/*--------------------------------*- C++ -*----------------------------------*\
| =========                 |                                                 |
| \\      /  F ield         | OpenFOAM: The Open Source CFD Toolbox           |
|  \\    /   O peration     | Version:  2212                                  |
|   \\  /    A nd           | Website:  www.openfoam.com                      |
|    \\/     M anipulation  |                                                 |
\*---------------------------------------------------------------------------*/
FoamFile
{
    version     2.0;
    format      ascii;
    arch        "LSB;label=32;scalar=64";
    class       volScalarField;
    location    "24/neutroRegion";
    object      TCool;
}
// * * * * * * * * * * * * * * * * * * * * * * * * * * * * * * * * * * * * * //

dimensions      [0 0 0 1 0 0 0];

internalField   nonuniform List<scalar> 
350
(
83.2886
83.289
83.2895
83.29
83.2905
83.291
83.2915
83.292
83.2924
83.2929
83.2934
83.2939
83.2944
83.2949
83.2954
83.2958
83.2963
83.2968
83.2973
83.2977
83.2982
83.2987
83.2991
83.2996
83.3
83.2886
83.289
83.2895
83.29
83.2905
83.291
83.2915
83.292
83.2924
83.2929
83.2934
83.2939
83.2944
83.2949
83.2954
83.2958
83.2963
83.2968
83.2973
83.2977
83.2982
83.2987
83.2991
83.2996
83.3
1700.41
1698.21
1683.98
1657.93
1620.38
1571.8
1512.77
1444.01
1366.38
1280.83
1188.52
1090.74
988.986
884.959
780.534
677.688
578.378
484.419
397.407
318.712
249.545
191.074
144.458
110.723
90.3961
1725.8
1723.9
1709.75
1683.58
1645.7
1596.59
1536.84
1467.17
1388.44
1301.63
1207.89
1108.53
1005.06
899.202
792.876
688.107
586.918
491.188
402.562
322.447
252.075
192.63
145.279
111.054
90.4668
1696.27
1694.04
1679.81
1653.8
1616.32
1567.84
1508.94
1440.35
1362.9
1277.57
1185.49
1087.97
986.497
882.765
778.644
676.101
577.085
483.401
396.638
318.158
249.173
190.847
144.339
110.674
90.3848
1720.1
1718.11
1703.93
1677.77
1639.96
1590.96
1531.36
1461.89
1383.4
1296.87
1203.45
1104.45
1001.37
895.925
790.032
685.703
584.946
489.623
401.369
321.582
251.489
192.269
145.089
110.977
90.4506
1720.1
1718.11
1703.93
1677.77
1639.96
1590.96
1531.36
1461.89
1383.4
1296.87
1203.45
1104.45
1001.37
895.925
790.032
685.703
584.946
489.623
401.369
321.582
251.489
192.269
145.089
110.977
90.4506
1696.27
1694.04
1679.81
1653.8
1616.32
1567.84
1508.94
1440.35
1362.9
1277.57
1185.49
1087.97
986.499
882.766
778.645
676.102
577.086
483.402
396.638
318.159
249.173
190.848
144.339
110.674
90.3848
1725.8
1723.9
1709.75
1683.58
1645.7
1596.59
1536.84
1467.17
1388.44
1301.63
1207.89
1108.53
1005.06
899.202
792.876
688.107
586.918
491.188
402.562
322.447
252.075
192.63
145.279
111.054
90.4668
1700.41
1698.21
1683.98
1657.93
1620.38
1571.8
1512.77
1444.01
1366.38
1280.83
1188.52
1090.74
988.985
884.959
780.534
677.688
578.378
484.419
397.407
318.712
249.545
191.074
144.458
110.723
90.3961
1720.1
1718.11
1703.93
1677.77
1639.96
1590.96
1531.36
1461.89
1383.4
1296.87
1203.45
1104.45
1001.37
895.925
790.032
685.703
584.946
489.623
401.369
321.582
251.489
192.269
145.089
110.977
90.4506
1696.27
1694.04
1679.81
1653.8
1616.32
1567.84
1508.94
1440.35
1362.9
1277.57
1185.49
1087.97
986.497
882.765
778.644
676.101
577.085
483.401
396.638
318.158
249.173
190.847
144.339
110.674
90.3848
1696.27
1694.04
1679.81
1653.8
1616.32
1567.84
1508.94
1440.35
1362.9
1277.57
1185.49
1087.97
986.499
882.766
778.645
676.102
577.086
483.402
396.638
318.159
249.173
190.848
144.339
110.674
90.3848
1720.1
1718.11
1703.93
1677.77
1639.96
1590.96
1531.36
1461.89
1383.4
1296.87
1203.45
1104.45
1001.37
895.925
790.032
685.703
584.946
489.623
401.369
321.582
251.489
192.269
145.089
110.977
90.4506
)
;

boundaryField
{
    outletCentralUnloaded
    {
        type            zeroGradient;
    }
    inletCentralUnloaded
    {
        type            zeroGradient;
    }
    outletFuelElement
    {
        type            zeroGradient;
    }
    inletFuelElement
    {
        type            zeroGradient;
    }
    defaultFaces
    {
        type            zeroGradient;
    }
}


// ************************************************************************* //
