/*--------------------------------*- C++ -*----------------------------------*\
| =========                 |                                                 |
| \\      /  F ield         | OpenFOAM: The Open Source CFD Toolbox           |
|  \\    /   O peration     | Version:  2212                                  |
|   \\  /    A nd           | Website:  www.openfoam.com                      |
|    \\/     M anipulation  |                                                 |
\*---------------------------------------------------------------------------*/
FoamFile
{
    version     2.0;
    format      ascii;
    arch        "LSB;label=32;scalar=64";
    class       surfaceScalarField;
    location    "62/fluidRegion";
    object      alphaRhoPhi;
}
// * * * * * * * * * * * * * * * * * * * * * * * * * * * * * * * * * * * * * //

dimensions      [1 0 -1 0 0 0 0];

oriented        oriented;

internalField   nonuniform List<scalar> 
661
(
-0.00584957
-8.95794e-12
-0.00584956
-1.12164e-11
-0.00584955
-9.22301e-12
-0.00584953
-5.75041e-12
-0.00584952
-1.78928e-12
-0.00584951
2.0094e-12
-0.00584951
5.30382e-12
-0.00584952
8.27103e-12
-0.00584954
1.07083e-11
-0.00584958
1.20998e-11
-0.00584964
1.16585e-11
-0.00584973
8.62487e-12
-0.00584981
3.1222e-12
-0.00584989
-3.73484e-12
-0.00584993
-1.00258e-11
-0.00584991
-1.35235e-11
-0.00584984
-1.28246e-11
-0.00584973
-7.59905e-12
-0.00584959
7.72075e-13
-0.00584947
9.86082e-12
-0.00584939
1.71346e-11
-0.00584937
2.0966e-11
-0.00584942
1.90541e-11
-0.00584952
3.48887e-12
-2.26319e-11
-0.00584957
-0.00584956
-0.00584955
-0.00584953
-0.00584952
-0.00584951
-0.00584951
-0.00584952
-0.00584954
-0.00584958
-0.00584964
-0.00584973
-0.00584981
-0.00584989
-0.00584993
-0.00584991
-0.00584984
-0.00584973
-0.00584959
-0.00584947
-0.00584939
-0.00584937
-0.00584942
-0.00584952
-0.00939682
6.458e-07
-0.00939705
3.12243e-07
-0.00939732
3.46726e-07
-0.00939757
3.21826e-07
-0.0093978
3.0248e-07
-0.00939801
2.85533e-07
-0.00939821
2.70701e-07
-0.0093984
2.56375e-07
-0.00939858
2.38609e-07
-0.00939874
2.0974e-07
-0.00939886
1.57563e-07
-0.0093989
6.51059e-08
-0.00939883
-8.48357e-08
-0.00939857
-2.99834e-07
-0.00939806
-5.80244e-07
-0.00939726
-9.07303e-07
-0.00939612
-1.25489e-06
-0.00939464
-1.60635e-06
-0.0093928
-1.97328e-06
-0.00939053
-2.40595e-06
-0.00938767
-2.99669e-06
-0.00938396
-3.843e-06
-0.00937912
-4.97507e-06
-0.00937338
-5.87482e-06
-7.19036e-06
-0.00931258
-2.00951e-08
-1.5535e-08
-0.00931213
-8.39465e-08
-8.07492e-08
-0.00931166
-8.19593e-08
-7.82091e-08
-0.00931122
-7.36595e-08
-6.95591e-08
-0.00931082
-6.67606e-08
-6.22084e-08
-0.00931044
-6.04325e-08
-5.53531e-08
-0.00931009
-5.46246e-08
-4.89071e-08
-0.00930977
-4.89171e-08
-4.23597e-08
-0.00930947
-4.22357e-08
-3.46278e-08
-0.00930923
-3.24118e-08
-2.34782e-08
-0.00930906
-1.57292e-08
-5.0808e-09
-0.00930904
1.28551e-08
2.5647e-08
-0.00930925
5.7787e-08
7.35213e-08
-0.00930981
1.26537e-07
1.46058e-07
-0.00931082
2.17e-07
2.41576e-07
-0.00931237
3.24999e-07
3.56366e-07
-0.00931451
4.42692e-07
4.83307e-07
-0.00931725
5.65114e-07
6.18273e-07
-0.00932063
6.96281e-07
7.66812e-07
-0.00932477
8.5374e-07
9.47282e-07
-0.00932995
1.06691e-06
1.19151e-06
-0.00933658
1.36363e-06
1.52198e-06
-0.00934509
1.72218e-06
1.91682e-06
-0.00935475
1.84828e-06
2.05159e-06
1.81379e-06
1.96035e-06
-0.00941063
3.15742e-07
-0.00941095
3.02907e-07
-0.00941128
2.98656e-07
-0.00941157
2.73942e-07
-0.00941183
2.52751e-07
-0.00941208
2.33764e-07
-0.0094123
2.16404e-07
-0.00941251
1.98749e-07
-0.00941268
1.76225e-07
-0.00941282
1.40274e-07
-0.0094129
7.73846e-08
-0.00941286
-2.96658e-08
-0.00941263
-1.98596e-07
-0.00941212
-4.39015e-07
-0.00941124
-7.48504e-07
-0.00940991
-1.10671e-06
-0.0094081
-1.48648e-06
-0.00940578
-1.87241e-06
-0.00940292
-2.2802e-06
-0.00939941
-2.76613e-06
-0.00939502
-3.42435e-06
-0.00938938
-4.34805e-06
-0.00938219
-5.47774e-06
-0.00937416
-6.15989e-06
-6.4363e-06
-0.00933147
4.53783e-10
-0.0093312
-1.33894e-09
-0.00933094
-1.2811e-09
-0.00933069
-1.31067e-09
-0.00933047
-1.25862e-09
-0.00933026
-1.19036e-09
-0.00933007
-1.12524e-09
-0.00932989
-9.72164e-10
-0.00932974
-7.62624e-10
-0.00932961
-4.7315e-10
-0.00932955
1.219e-11
-0.00932957
7.07822e-10
-0.00932975
1.69503e-09
-0.00933016
3.03009e-09
-0.00933086
4.81491e-09
-0.0093319
7.187e-09
-0.00933332
1.04057e-08
-0.00933513
1.47488e-08
-0.00933734
2.02274e-08
-0.00934004
2.69651e-08
-0.0093434
3.52062e-08
-0.00934771
4.30603e-08
-0.00935317
5.00033e-08
-0.00935934
4.79094e-08
3.31456e-08
-0.00933148
-3.14878e-07
-0.00933121
-3.05886e-07
-0.00933095
-3.0143e-07
-0.0093307
-2.76818e-07
-0.00933048
-2.55607e-07
-0.00933027
-2.36601e-07
-0.00933008
-2.19225e-07
-0.00932991
-2.01442e-07
-0.00932975
-1.78727e-07
-0.00932963
-1.42481e-07
-0.00932956
-7.90317e-08
-0.00932958
2.88738e-08
-0.00932977
1.99065e-07
-0.00933017
4.41212e-07
-0.00933087
7.53077e-07
-0.00933192
1.11457e-06
-0.00933333
1.49906e-06
-0.00933514
1.89176e-06
-0.00933735
2.30886e-06
-0.00934005
2.80758e-06
-0.00934341
3.4838e-06
-0.00934772
4.42928e-06
-0.00935318
5.5852e-06
-0.00935935
6.27694e-06
6.53603e-06
-0.00941063
1.73756e-08
-0.00941096
8.30128e-08
-0.00941128
8.06346e-08
-0.00941157
7.21365e-08
-0.00941184
6.502e-08
-0.00941208
5.84045e-08
-0.0094123
5.22178e-08
-0.00941251
4.60414e-08
-0.00941268
3.8725e-08
-0.00941283
2.80605e-08
-0.0094129
1.03161e-08
-0.00941286
-1.95881e-08
-0.00941263
-6.62894e-08
-0.00941212
-1.37345e-07
-0.00941124
-2.30831e-07
-0.00940991
-3.42704e-07
-0.00940809
-4.6526e-07
-0.00940578
-5.93499e-07
-0.00940291
-7.31705e-07
-0.0093994
-8.96801e-07
-0.009395
-1.11767e-06
-0.00938936
-1.42048e-06
-0.00938217
-1.77997e-06
-0.00937414
-1.89667e-06
-1.82994e-06
-0.00931258
-6.45979e-07
-1.7155e-08
-0.00931213
-3.12608e-07
-8.01356e-08
-0.00931166
-3.47175e-07
-7.77776e-08
-0.00931122
-3.22321e-07
-6.91643e-08
-0.00931082
-3.02983e-07
-6.1944e-08
-0.00931044
-2.86062e-07
-5.52486e-08
-0.00931009
-2.71273e-07
-4.89949e-08
-0.00930977
-2.56973e-07
-4.27563e-08
-0.00930947
-2.39261e-07
-3.54296e-08
-0.00930923
-2.1044e-07
-2.48297e-08
-0.00930906
-1.58237e-07
-7.2763e-09
-0.00930904
-6.56731e-08
2.22967e-08
-0.00930925
8.45311e-08
6.83832e-08
-0.00930981
3.00001e-07
1.38419e-07
-0.00931082
5.81335e-07
2.30239e-07
-0.00931237
9.10222e-07
3.39435e-07
-0.00931451
1.26142e-06
4.57542e-07
-0.00931725
1.61989e-06
5.78387e-07
-0.00932063
2.00007e-06
7.04005e-07
-0.00932477
2.45731e-06
8.47841e-07
-0.00932994
3.09434e-06
1.03212e-06
-0.00933658
4.01758e-06
1.27525e-06
-0.00934509
5.27569e-06
1.55034e-06
-0.00935475
6.29997e-06
1.58921e-06
7.68197e-06
1.51038e-06
-0.00939682
-0.00939705
-0.00939732
-0.00939757
-0.0093978
-0.00939801
-0.00939821
-0.0093984
-0.00939858
-0.00939874
-0.00939886
-0.0093989
-0.00939883
-0.00939857
-0.00939807
-0.00939726
-0.00939612
-0.00939464
-0.0093928
-0.00939052
-0.00938766
-0.00938396
-0.00937911
-0.00937337
-0.00933147
-3.19582e-07
2.88373e-09
-0.0093312
-3.07622e-07
1.68669e-09
-0.00933094
-3.03793e-07
2.03564e-09
-0.00933069
-2.79443e-07
2.27025e-09
-0.00933047
-2.58595e-07
2.51647e-09
-0.00933026
-2.40029e-07
2.83503e-09
-0.00933007
-2.232e-07
3.26035e-09
-0.00932989
-2.06143e-07
3.78009e-09
-0.00932974
-1.8436e-07
4.47143e-09
-0.00932961
-1.49324e-07
5.3908e-09
-0.00932955
-8.74699e-08
6.58583e-09
-0.00932957
1.8366e-08
8.05622e-09
-0.00932975
1.85726e-07
1.02512e-08
-0.00933016
4.24052e-07
1.32309e-08
-0.00933086
7.30553e-07
1.75268e-08
-0.0093319
1.08437e-06
2.38126e-08
-0.00933332
1.45732e-06
3.32217e-08
-0.00933512
1.83228e-06
4.74959e-08
-0.00933734
2.22065e-06
7.03443e-08
-0.00934004
2.67292e-06
1.06289e-07
-0.0093434
3.27063e-06
1.64071e-07
-0.00934771
4.09468e-06
2.48672e-07
-0.00935318
5.0746e-06
3.64028e-07
-0.00935934
5.60012e-06
4.56752e-07
5.85498e-06
4.49711e-07
-0.00941063
-0.00941095
-0.00941128
-0.00941157
-0.00941183
-0.00941208
-0.0094123
-0.0094125
-0.00941268
-0.00941282
-0.0094129
-0.00941286
-0.00941263
-0.00941212
-0.00941124
-0.00940991
-0.0094081
-0.00940578
-0.00940292
-0.00939941
-0.00939502
-0.00938938
-0.0093822
-0.00937417
-0.00941063
3.13558e-07
-0.00941096
3.04413e-07
-0.00941128
2.99816e-07
-0.00941157
2.75078e-07
-0.00941184
2.53804e-07
-0.00941208
2.34682e-07
-0.0094123
2.17126e-07
-0.00941251
1.99184e-07
-0.00941269
1.76233e-07
-0.00941283
1.39679e-07
-0.0094129
7.5926e-08
-0.00941286
-3.22922e-08
-0.00941263
-2.0294e-07
-0.00941212
-4.45715e-07
-0.00941124
-7.5843e-07
-0.00940991
-1.12093e-06
-0.00940809
-1.50629e-06
-0.00940577
-1.89883e-06
-0.00940291
-2.31341e-06
-0.0093994
-2.80297e-06
-0.009395
-3.45634e-06
-0.00938935
-4.35585e-06
-0.00938217
-5.42598e-06
-0.00937414
-6.01393e-06
-6.17857e-06
-0.00933148
-0.00933121
-0.00933095
-0.0093307
-0.00933048
-0.00933027
-0.00933008
-0.00932991
-0.00932975
-0.00932963
-0.00932956
-0.00932958
-0.00932977
-0.00933017
-0.00933087
-0.00933192
-0.00933333
-0.00933513
-0.00933735
-0.00934005
-0.00934341
-0.00934772
-0.00935318
-0.00935936
)
;

boundaryField
{
    outletCentralUnloaded
    {
        type            calculated;
        value           nonuniform List<scalar> 2(0.00584958 0.00584958);
    }
    inletCentralUnloaded
    {
        type            calculated;
        value           nonuniform List<scalar> 2(-0.0058737 -0.0058737);
    }
    outletFuelElement
    {
        type            calculated;
        value           nonuniform List<scalar> 
12
(
0.00939625
0.00931323
0.00941035
0.00933175
0.00933177
0.00941036
0.00931324
0.00939625
0.00933175
0.00941035
0.00941036
0.00933177
)
;
    }
    inletFuelElement
    {
        type            calculated;
        value           nonuniform List<scalar> 
12
(
-0.00953876
-0.00953877
-0.00953876
-0.00953876
-0.00953877
-0.00953876
-0.00953877
-0.00953876
-0.00953876
-0.00953876
-0.00953876
-0.00953877
)
;
    }
    defaultFaces
    {
        type            calculated;
        value           nonuniform List<scalar> 
450
(
1.13858e-23
-8.76957e-24
0
1.11342e-23
1.97933e-24
0
9.69e-24
1.83255e-25
0
-1.88018e-23
-4.80903e-24
0
-7.71072e-24
-1.61196e-23
0
-1.3733e-23
-4.58038e-24
0
-1.68739e-23
-5.8408e-24
0
-1.73343e-23
-3.99949e-24
0
-1.19531e-23
-8.20756e-24
0
-1.65258e-23
-5.56392e-24
0
-7.66176e-24
-4.55801e-24
0
-4.61349e-24
-1.9671e-24
0
6.64472e-24
5.18091e-26
0
2.19029e-23
7.76135e-24
0
3.70658e-23
2.39702e-23
0
5.57287e-23
3.20553e-23
0
4.89441e-23
-1.57782e-23
0
8.99891e-23
6.73317e-23
0
8.60565e-23
-8.33306e-23
0
-7.8293e-23
-7.44821e-23
0
-1.18452e-22
-1.12702e-22
0
1.64086e-22
-8.05647e-23
0
-1.73826e-22
7.08362e-23
0
-2.32816e-22
-2.54647e-22
0
-2.38573e-22
-2.34227e-22
0
1.11066e-23
0
1.88502e-23
0
-3.86405e-24
0
7.97243e-24
0
-6.20913e-24
0
1.08192e-23
0
4.55645e-24
0
7.24943e-24
0
-3.87513e-24
0
6.96379e-24
0
2.27357e-24
0
-4.1661e-25
0
-3.70584e-24
0
-8.34437e-24
0
-2.85736e-23
0
-2.20749e-23
0
9.10411e-23
0
-9.36685e-23
0
3.82623e-23
0
-1.43994e-22
0
-1.23602e-22
0
2.04445e-22
0
1.10692e-22
0
-2.25001e-22
0
-1.92182e-22
0
0
0
3.80775e-24
-7.85531e-24
4.07816e-24
-4.2632e-24
-4.48812e-24
0
5.08849e-24
-2.74309e-24
0
4.10244e-25
7.29881e-24
1.64369e-23
1.87664e-23
2.17559e-23
-5.13002e-23
3.08111e-23
-3.7792e-23
-4.74609e-23
6.11942e-23
-1.62232e-22
-3.30109e-22
-1.49494e-22
0
0
0
0
0
0
0
0
0
0
0
0
0
0
0
0
0
0
0
0
0
0
0
0
0
0
-6.47887e-24
7.40442e-24
0
7.54007e-24
7.7281e-24
1.93203e-23
-7.97242e-24
-7.97242e-24
6.20913e-24
-4.13942e-24
-6.49153e-24
-6.49153e-24
-6.83468e-24
-4.55645e-24
-7.24943e-24
-2.41648e-24
1.42088e-23
-5.16684e-24
-4.17827e-24
-2.78551e-24
-2.65249e-24
-1.51571e-24
0
1.0936e-24
7.41166e-24
7.41166e-24
8.34436e-24
8.34436e-24
2.85735e-23
1.42868e-23
3.31123e-23
3.31123e-23
-5.20234e-23
7.80351e-23
9.36684e-23
6.24456e-23
-1.53049e-22
1.14787e-22
-1.43994e-22
-1.19995e-22
-6.1801e-23
-9.27016e-23
-2.45334e-22
2.45334e-22
-5.53461e-23
-1.10692e-22
-7.50002e-23
-2.25001e-22
-1.92182e-22
-2.40228e-22
1.37336e-24
0
0
-5.03233e-25
0
0
5.54268e-24
0
-2.31254e-23
-2.60934e-23
0
3.97604e-24
8.861e-24
0
0
-2.46174e-23
0
4.31654e-24
-2.60707e-23
0
4.54467e-24
-2.54589e-23
0
9.64084e-24
-1.83681e-23
0
-1.54603e-23
-1.96131e-23
0
2.77827e-24
-1.31102e-23
0
3.02354e-24
-6.71627e-24
0
1.66212e-24
7.41778e-24
-0
-1.84815e-24
2.93156e-23
-0
-4.16159e-24
5.49149e-23
-0
-1.90017e-23
9.71782e-23
-0
-1.10109e-23
6.62806e-23
-0
-2.59518e-23
1.31749e-22
-0
0
1.03997e-22
-0
-7.63707e-23
-6.64049e-23
-0
4.79108e-23
-7.57515e-23
-0
6.17034e-23
1.41114e-22
-0
1.63345e-22
-1.54345e-22
-0
-1.10588e-22
-1.78301e-22
-0
1.49919e-22
-2.10013e-22
-0
1.9215e-22
0
0
0
-3.92766e-24
8.15632e-24
-4.2632e-24
0
0
-2.54424e-24
-2.74309e-24
0
2.05122e-25
3.64941e-24
1.64369e-23
9.38318e-24
0
-7.69504e-23
3.08111e-23
-7.55839e-23
9.49219e-23
6.11942e-23
-1.62232e-22
-1.10036e-22
0
1.91994e-22
1.29577e-23
0
1.13101e-23
0
3.86405e-24
0
5.97932e-24
0
-8.27884e-24
0
4.32769e-24
0
6.83468e-24
0
9.66591e-24
0
1.29171e-24
0
5.57103e-24
0
2.6525e-24
0
-8.3322e-25
0
-7.41167e-24
-0
-1.25166e-23
-0
-2.85736e-23
-0
-1.10374e-23
-0
7.80352e-23
-0
-6.24457e-23
-0
7.65246e-23
-0
-7.1997e-23
-0
-1.54503e-22
-0
1.63556e-22
-0
1.10692e-22
-0
-1.5e-22
-0
-1.44137e-22
-0
-1.06439e-23
7.40442e-24
-1.13101e-23
1.13101e-23
-3.86405e-24
7.7281e-24
-7.97243e-24
-1.99311e-23
0
6.20913e-24
-4.32769e-24
-1.94746e-23
-6.83468e-24
-1.59476e-23
-3.62471e-24
-1.69153e-23
1.29171e-24
-7.75026e-24
-4.17827e-24
-9.7493e-24
-3.22089e-24
-3.03142e-24
8.33219e-25
4.99931e-24
3.70583e-24
1.66762e-23
1.66887e-23
3.75496e-23
1.9049e-23
7.61961e-23
3.31123e-23
8.82994e-23
-2.60117e-23
9.1041e-23
6.24456e-23
1.71725e-22
0
1.33918e-22
-4.79979e-23
-9.59959e-23
6.18011e-23
-9.27016e-23
0
2.04445e-22
1.66038e-22
-1.10692e-22
0
-2.25001e-22
0
-2.88274e-22
-0
-0
-0
-0
-0
-0
-0
-0
-0
-0
-0
0
0
0
0
0
0
0
0
0
0
0
0
0
0
)
;
    }
    baffle_master
    {
        type            calculated;
        value           nonuniform List<scalar> 
150
(
-1.10318e-28
0
1.2423e-28
6.1791e-29
0
2.48482e-28
7.4449e-29
0
0
-7.7058e-29
0
0
-1.25591e-28
0
-1.24272e-28
-3.6528e-30
0
0
-7.14998e-31
0
0
-2.09415e-29
0
0
-8.04647e-30
0
0
-8.21639e-29
0
2.48645e-28
-1.55993e-28
0
0
-2.45438e-29
0
1.24343e-28
8.37857e-30
0
0
4.15479e-29
0
0
-3.191e-29
0
1.24374e-28
-3.71591e-29
0
2.48768e-28
1.084e-27
0
4.97578e-28
1.24399e-28
0
-1.24405e-28
-3.89549e-29
0
-3.11038e-29
3.75213e-29
0
-2.48852e-28
1.99824e-29
0
-2.48873e-28
1.47729e-27
0
9.95575e-28
-1.21328e-28
0
0
-5.24506e-29
0
-6.22337e-29
7.14268e-29
0
0
2.48461e-28
-3.11029e-28
0
2.48482e-28
-4.54343e-28
0
1.24251e-28
-4.87304e-28
0
1.24261e-28
-1.95677e-28
0
3.10679e-29
4.92477e-29
0
-6.21409e-29
4.9095e-29
-0
-1.24292e-28
1.26526e-28
-0
0
2.88532e-28
-0
4.9725e-28
4.05634e-28
-0
-2.48645e-28
5.50612e-28
-0
0
3.84191e-28
-0
-1.24343e-28
3.86428e-28
-0
0
1.08039e-28
-0
6.21818e-29
-1.63217e-28
0
2.48748e-28
-3.22355e-28
0
2.48768e-28
-7.63675e-28
0
-4.97578e-28
-3.90181e-28
0
1.24405e-28
-2.7111e-28
0
3.11038e-29
-4.41401e-30
-0
0
-2.42932e-28
-0
0
-5.96431e-28
-0
4.97788e-28
-1.14455e-27
-0
7.46744e-28
6.32622e-28
-0
0
-1.27602e-28
-0
0
5.83516e-28
0
)
;
    }
    baffle_slave
    {
        type            calculated;
        value           nonuniform List<scalar> 
150
(
5.45514e-24
-0
7.29848e-24
-1.85135e-24
-0
3.71558e-24
1.4229e-24
-0
0
4.89215e-25
-0
7.85531e-24
-1.39684e-23
-0
-1.22345e-23
-5.3097e-25
-0
0
1.67689e-24
-0
-4.48812e-24
1.18562e-24
-0
0
-6.33698e-25
-0
-2.54425e-24
0
-0
0
1.11521e-24
-0
0
4.08696e-25
0
0
0
0
0
-3.07037e-24
0
8.21845e-24
-2.33712e-24
0
-9.38318e-24
4.06451e-24
0
-2.17559e-23
-7.02922e-23
0
-1.28251e-22
0
0
0
-8.94782e-23
0
-7.55839e-23
2.95793e-24
0
0
-7.63026e-24
0
0
1.61899e-22
0
1.62232e-22
-3.43345e-23
0
1.10036e-22
-9.33541e-24
0
0
5.39853e-23
0
-9.5997e-23
-1.65291e-24
2.30032e-23
0
-6.18441e-24
8.5625e-24
0
5.08489e-25
9.01168e-24
0
-3.39578e-24
6.72671e-24
0
-5.98062e-25
-1.34605e-23
0
-2.92573e-24
1.20796e-23
0
-9.11674e-24
1.17383e-23
0
-1.81657e-24
5.0389e-24
0
4.64008e-24
6.17855e-24
0
-2.9533e-24
4.61165e-24
0
-2.35503e-24
3.90324e-24
0
4.25734e-25
2.96305e-24
0
4.87833e-24
-5.68069e-25
0
1.5046e-24
-6.23668e-24
0
3.00474e-23
-1.4041e-23
0
1.73506e-23
-9.82257e-24
0
-2.80389e-23
-2.87559e-23
0
5.07069e-23
-4.89426e-23
0
-8.8105e-23
-1.17734e-24
0
5.35159e-23
2.21845e-23
0
7.32112e-23
5.7227e-23
0
-1.68552e-22
1.72018e-22
0
-2.18329e-22
-1.44205e-22
0
-3.89125e-23
1.49367e-22
0
6.52667e-23
1.31964e-22
0
)
;
    }
}


// ************************************************************************* //
