/*--------------------------------*- C++ -*----------------------------------*\
| =========                 |                                                 |
| \\      /  F ield         | OpenFOAM: The Open Source CFD Toolbox           |
|  \\    /   O peration     | Version:  2212                                  |
|   \\  /    A nd           | Website:  www.openfoam.com                      |
|    \\/     M anipulation  |                                                 |
\*---------------------------------------------------------------------------*/
FoamFile
{
    version     2.0;
    format      ascii;
    arch        "LSB;label=32;scalar=64";
    class       volScalarField;
    location    "62/fluidRegion";
    object      alphat;
}
// * * * * * * * * * * * * * * * * * * * * * * * * * * * * * * * * * * * * * //

dimensions      [1 -1 -1 0 0 0 0];

internalField   nonuniform List<scalar> 
350
(
0.00258569
0.00258565
0.00258562
0.0025856
0.00258557
0.00258555
0.00258554
0.00258554
0.00258556
0.0025856
0.00258567
0.00258576
0.00258586
0.00258598
0.00258613
0.00258633
0.00258664
0.00258709
0.00258778
0.00258883
0.00259043
0.00259286
0.00259657
0.00260227
0.00261099
0.00258569
0.00258566
0.00258562
0.0025856
0.00258557
0.00258555
0.00258554
0.00258554
0.00258556
0.0025856
0.00258567
0.00258576
0.00258586
0.00258598
0.00258613
0.00258633
0.00258664
0.00258709
0.00258778
0.00258883
0.00259043
0.00259286
0.00259658
0.00260227
0.00261099
0.000895873
0.000884268
0.000872857
0.000861285
0.000849447
0.000837236
0.000824549
0.000811286
0.000797363
0.000782714
0.000767309
0.000751153
0.00073429
0.00071679
0.000698733
0.000680215
0.000661412
0.000642779
0.000625496
0.000612398
0.00060988
0.000631329
0.000699563
0.000832302
0.0010022
0.000888016
0.000876424
0.000865048
0.000853519
0.000841732
0.00082958
0.000816958
0.000803767
0.000789919
0.000775351
0.000760032
0.000743973
0.000727226
0.000709874
0.000692009
0.000673736
0.000655229
0.000636931
0.00062
0.000607243
0.00060504
0.000626816
0.000695612
0.000829603
0.00100146
0.000897127
0.000885509
0.000874087
0.000862504
0.000850653
0.000838428
0.000825726
0.000812447
0.000798507
0.00078384
0.000768416
0.000752239
0.000735351
0.000717821
0.000699728
0.000681164
0.000662307
0.000643613
0.000626265
0.000613102
0.000610522
0.000631909
0.000700059
0.000832642
0.00100232
0.000889819
0.000878229
0.000866848
0.000855312
0.000843515
0.000831352
0.000818717
0.000805511
0.000791646
0.00077706
0.000761721
0.000745639
0.000728865
0.000711478
0.000693569
0.000675239
0.000656663
0.000638288
0.000621275
0.00060844
0.000606164
0.000627865
0.000696532
0.000830234
0.00100163
0.000889819
0.000878229
0.000866848
0.000855312
0.000843516
0.000831352
0.000818717
0.000805511
0.000791646
0.00077706
0.000761721
0.000745639
0.000728865
0.000711478
0.000693569
0.000675239
0.000656664
0.000638289
0.000621276
0.000608441
0.000606165
0.000627866
0.000696532
0.000830234
0.00100163
0.000897127
0.000885508
0.000874087
0.000862503
0.000850652
0.000838428
0.000825725
0.000812447
0.000798506
0.00078384
0.000768416
0.000752239
0.000735352
0.000717822
0.000699728
0.000681165
0.000662308
0.000643614
0.000626267
0.000613104
0.000610524
0.00063191
0.00070006
0.000832641
0.00100232
0.000888015
0.000876424
0.000865048
0.000853519
0.000841732
0.00082958
0.000816958
0.000803767
0.000789919
0.000775351
0.000760032
0.000743972
0.000727226
0.000709873
0.000692009
0.000673736
0.000655229
0.000636931
0.00062
0.000607244
0.000605041
0.000626817
0.000695613
0.000829604
0.00100146
0.000895873
0.000884268
0.000872857
0.000861285
0.000849447
0.000837236
0.000824549
0.000811286
0.000797363
0.000782714
0.000767309
0.000751153
0.00073429
0.00071679
0.000698733
0.000680216
0.000661413
0.00064278
0.000625497
0.0006124
0.000609883
0.000631332
0.000699565
0.0008323
0.00100219
0.00088982
0.000878229
0.000866848
0.000855312
0.000843516
0.000831352
0.000818717
0.000805511
0.000791647
0.00077706
0.000761721
0.000745639
0.000728865
0.000711478
0.000693569
0.000675239
0.000656664
0.000638289
0.000621276
0.00060844
0.000606165
0.000627866
0.000696533
0.000830234
0.00100163
0.000897127
0.000885509
0.000874087
0.000862504
0.000850652
0.000838428
0.000825725
0.000812447
0.000798506
0.00078384
0.000768416
0.000752239
0.000735351
0.000717821
0.000699727
0.000681163
0.000662306
0.000643611
0.000626262
0.000613099
0.000610517
0.000631903
0.000700054
0.000832645
0.00100234
0.000897127
0.000885509
0.000874087
0.000862504
0.000850653
0.000838428
0.000825726
0.000812448
0.000798507
0.000783841
0.000768417
0.00075224
0.000735353
0.000717823
0.00069973
0.000681167
0.00066231
0.000643616
0.000626269
0.000613106
0.000610526
0.000631912
0.000700061
0.000832643
0.00100232
0.00088982
0.000878229
0.000866848
0.000855312
0.000843516
0.000831352
0.000818717
0.000805511
0.000791647
0.00077706
0.000761721
0.00074564
0.000728866
0.000711479
0.00069357
0.00067524
0.000656665
0.00063829
0.000621278
0.000608443
0.000606169
0.00062787
0.000696536
0.000830232
0.00100162
)
;

boundaryField
{
    outletCentralUnloaded
    {
        type            zeroGradient;
    }
    inletCentralUnloaded
    {
        type            zeroGradient;
    }
    outletFuelElement
    {
        type            zeroGradient;
    }
    inletFuelElement
    {
        type            zeroGradient;
    }
    defaultFaces
    {
        type            zeroGradient;
    }
    baffle_master
    {
        type            calculated;
        value           nonuniform List<scalar> 
150
(
0.00258569
0.00258569
0.00258569
0.00258565
0.00258565
0.00258565
0.00258562
0.00258562
0.00258562
0.0025856
0.0025856
0.0025856
0.00258557
0.00258557
0.00258557
0.00258555
0.00258555
0.00258555
0.00258554
0.00258554
0.00258554
0.00258554
0.00258554
0.00258554
0.00258556
0.00258556
0.00258556
0.0025856
0.0025856
0.0025856
0.00258567
0.00258567
0.00258567
0.00258576
0.00258576
0.00258576
0.00258586
0.00258586
0.00258586
0.00258598
0.00258598
0.00258598
0.00258613
0.00258613
0.00258613
0.00258633
0.00258633
0.00258633
0.00258664
0.00258664
0.00258664
0.00258709
0.00258709
0.00258709
0.00258778
0.00258778
0.00258778
0.00258883
0.00258883
0.00258883
0.00259043
0.00259043
0.00259043
0.00259286
0.00259286
0.00259286
0.00259657
0.00259657
0.00259657
0.00260227
0.00260227
0.00260227
0.00261099
0.00261099
0.00261099
0.00258569
0.00258569
0.00258569
0.00258566
0.00258566
0.00258566
0.00258562
0.00258562
0.00258562
0.0025856
0.0025856
0.0025856
0.00258557
0.00258557
0.00258557
0.00258555
0.00258555
0.00258555
0.00258554
0.00258554
0.00258554
0.00258554
0.00258554
0.00258554
0.00258556
0.00258556
0.00258556
0.0025856
0.0025856
0.0025856
0.00258567
0.00258567
0.00258567
0.00258576
0.00258576
0.00258576
0.00258586
0.00258586
0.00258586
0.00258598
0.00258598
0.00258598
0.00258613
0.00258613
0.00258613
0.00258633
0.00258633
0.00258633
0.00258664
0.00258664
0.00258664
0.00258709
0.00258709
0.00258709
0.00258778
0.00258778
0.00258778
0.00258883
0.00258883
0.00258883
0.00259043
0.00259043
0.00259043
0.00259286
0.00259286
0.00259286
0.00259658
0.00259658
0.00259658
0.00260227
0.00260227
0.00260227
0.00261099
0.00261099
0.00261099
)
;
    }
    baffle_slave
    {
        type            calculated;
        value           nonuniform List<scalar> 
150
(
0.000888016
0.000889819
0.00088982
0.000876424
0.000878229
0.000878229
0.000865048
0.000866848
0.000866848
0.000853519
0.000855312
0.000855312
0.000841732
0.000843515
0.000843516
0.00082958
0.000831352
0.000831352
0.000816958
0.000818717
0.000818717
0.000803767
0.000805511
0.000805511
0.000789919
0.000791646
0.000791647
0.000775351
0.00077706
0.00077706
0.000760032
0.000761721
0.000761721
0.000743973
0.000745639
0.00074564
0.000727226
0.000728865
0.000728866
0.000709874
0.000711478
0.000711479
0.000692009
0.000693569
0.00069357
0.000673736
0.000675239
0.00067524
0.000655229
0.000656663
0.000656665
0.000636931
0.000638288
0.00063829
0.00062
0.000621275
0.000621278
0.000607243
0.00060844
0.000608443
0.00060504
0.000606164
0.000606169
0.000626816
0.000627865
0.00062787
0.000695612
0.000696532
0.000696536
0.000829603
0.000830234
0.000830232
0.00100146
0.00100163
0.00100162
0.000889819
0.000888015
0.00088982
0.000878229
0.000876424
0.000878229
0.000866848
0.000865048
0.000866848
0.000855312
0.000853519
0.000855312
0.000843516
0.000841732
0.000843516
0.000831352
0.00082958
0.000831352
0.000818717
0.000816958
0.000818717
0.000805511
0.000803767
0.000805511
0.000791646
0.000789919
0.000791647
0.00077706
0.000775351
0.00077706
0.000761721
0.000760032
0.000761721
0.000745639
0.000743972
0.000745639
0.000728865
0.000727226
0.000728865
0.000711478
0.000709873
0.000711478
0.000693569
0.000692009
0.000693569
0.000675239
0.000673736
0.000675239
0.000656664
0.000655229
0.000656664
0.000638289
0.000636931
0.000638289
0.000621276
0.00062
0.000621276
0.000608441
0.000607244
0.00060844
0.000606165
0.000605041
0.000606165
0.000627866
0.000626817
0.000627866
0.000696532
0.000695613
0.000696533
0.000830234
0.000829604
0.000830234
0.00100163
0.00100146
0.00100163
)
;
    }
}


// ************************************************************************* //
