/*--------------------------------*- C++ -*----------------------------------*\
| =========                 |                                                 |
| \\      /  F ield         | OpenFOAM: The Open Source CFD Toolbox           |
|  \\    /   O peration     | Version:  2212                                  |
|   \\  /    A nd           | Website:  www.openfoam.com                      |
|    \\/     M anipulation  |                                                 |
\*---------------------------------------------------------------------------*/
FoamFile
{
    version     2.0;
    format      ascii;
    arch        "LSB;label=32;scalar=64";
    class       volScalarField;
    location    "62/fluidRegion";
    object      heatFlux.structure;
}
// * * * * * * * * * * * * * * * * * * * * * * * * * * * * * * * * * * * * * //

dimensions      [1 0 -3 0 0 0 0];

internalField   nonuniform List<scalar> 
350
(
-258308
-258310
-258313
-258315
-258318
-258320
-258323
-258326
-258329
-258333
-258338
-258343
-258349
-258355
-258360
-258363
-258365
-258364
-258362
-258360
-258359
-258359
-258362
-258368
-258804
-258308
-258310
-258313
-258315
-258318
-258320
-258323
-258326
-258329
-258333
-258338
-258343
-258349
-258355
-258360
-258363
-258365
-258364
-258362
-258360
-258359
-258359
-258362
-258368
-258804
449343
1.34315e+06
2.21575e+06
3.05339e+06
3.84286e+06
4.57172e+06
5.22846e+06
5.80273e+06
6.28548e+06
6.66909e+06
6.94752e+06
7.11637e+06
7.17298e+06
7.11647e+06
6.94771e+06
6.66938e+06
6.28586e+06
5.8032e+06
5.22899e+06
4.57235e+06
3.84357e+06
3.05419e+06
2.2166e+06
1.34409e+06
450489
454475
1.35852e+06
2.24111e+06
3.08835e+06
3.88687e+06
4.62408e+06
5.28834e+06
5.86919e+06
6.35747e+06
6.74548e+06
7.02709e+06
7.19788e+06
7.25514e+06
7.19798e+06
7.02729e+06
6.74577e+06
6.35786e+06
5.86967e+06
5.28888e+06
4.62472e+06
3.88759e+06
3.08918e+06
2.24199e+06
1.35948e+06
455648
448526
1.3407e+06
2.21171e+06
3.04782e+06
3.83586e+06
4.56338e+06
5.21892e+06
5.79215e+06
6.27402e+06
6.65693e+06
6.93485e+06
7.10339e+06
7.1599e+06
7.10349e+06
6.93504e+06
6.65721e+06
6.27439e+06
5.79262e+06
5.21945e+06
4.56401e+06
3.83656e+06
3.04862e+06
2.21256e+06
1.34164e+06
449668
453293
1.35498e+06
2.23527e+06
3.0803e+06
3.87674e+06
4.61202e+06
5.27456e+06
5.85389e+06
6.3409e+06
6.72789e+06
7.00878e+06
7.17912e+06
7.23623e+06
7.17921e+06
7.00897e+06
6.72819e+06
6.34129e+06
5.85437e+06
5.2751e+06
4.61267e+06
3.87746e+06
3.08113e+06
2.23615e+06
1.35594e+06
454461
453293
1.35498e+06
2.23528e+06
3.0803e+06
3.87674e+06
4.61202e+06
5.27456e+06
5.85389e+06
6.3409e+06
6.72789e+06
7.00877e+06
7.17912e+06
7.23623e+06
7.17921e+06
7.00897e+06
6.72819e+06
6.34129e+06
5.85437e+06
5.27509e+06
4.61267e+06
3.87746e+06
3.08113e+06
2.23615e+06
1.35594e+06
454461
448526
1.3407e+06
2.21171e+06
3.04782e+06
3.83586e+06
4.56338e+06
5.21893e+06
5.79215e+06
6.27402e+06
6.65693e+06
6.93485e+06
7.10339e+06
7.1599e+06
7.10349e+06
6.93504e+06
6.65721e+06
6.27439e+06
5.79261e+06
5.21945e+06
4.56401e+06
3.83656e+06
3.04862e+06
2.21256e+06
1.34164e+06
449668
454475
1.35852e+06
2.24112e+06
3.08835e+06
3.88687e+06
4.62408e+06
5.28834e+06
5.86919e+06
6.35747e+06
6.74548e+06
7.02709e+06
7.19788e+06
7.25514e+06
7.19798e+06
7.02729e+06
6.74577e+06
6.35786e+06
5.86967e+06
5.28888e+06
4.62472e+06
3.88759e+06
3.08918e+06
2.24199e+06
1.35948e+06
455648
449343
1.34314e+06
2.21575e+06
3.05339e+06
3.84286e+06
4.57172e+06
5.22846e+06
5.80273e+06
6.28548e+06
6.66909e+06
6.94752e+06
7.11637e+06
7.17298e+06
7.11647e+06
6.94771e+06
6.66938e+06
6.28586e+06
5.8032e+06
5.22899e+06
4.57235e+06
3.84357e+06
3.05419e+06
2.2166e+06
1.34409e+06
450489
453293
1.35498e+06
2.23528e+06
3.0803e+06
3.87674e+06
4.61202e+06
5.27456e+06
5.85389e+06
6.3409e+06
6.72789e+06
7.00877e+06
7.17912e+06
7.23623e+06
7.17921e+06
7.00897e+06
6.72819e+06
6.34129e+06
5.85437e+06
5.2751e+06
4.61267e+06
3.87746e+06
3.08113e+06
2.23615e+06
1.35594e+06
454461
448526
1.3407e+06
2.21171e+06
3.04782e+06
3.83586e+06
4.56338e+06
5.21892e+06
5.79215e+06
6.27402e+06
6.65693e+06
6.93485e+06
7.10339e+06
7.1599e+06
7.10349e+06
6.93504e+06
6.65721e+06
6.27439e+06
5.79261e+06
5.21945e+06
4.56401e+06
3.83656e+06
3.04863e+06
2.21256e+06
1.34164e+06
449668
448526
1.3407e+06
2.21171e+06
3.04782e+06
3.83586e+06
4.56338e+06
5.21892e+06
5.79215e+06
6.27402e+06
6.65693e+06
6.93485e+06
7.10339e+06
7.1599e+06
7.10349e+06
6.93504e+06
6.65721e+06
6.27439e+06
5.79261e+06
5.21945e+06
4.56401e+06
3.83656e+06
3.04862e+06
2.21256e+06
1.34164e+06
449668
453293
1.35498e+06
2.23528e+06
3.0803e+06
3.87674e+06
4.61202e+06
5.27456e+06
5.85389e+06
6.3409e+06
6.72789e+06
7.00877e+06
7.17912e+06
7.23623e+06
7.17921e+06
7.00897e+06
6.72819e+06
6.34128e+06
5.85437e+06
5.27509e+06
4.61267e+06
3.87746e+06
3.08112e+06
2.23615e+06
1.35594e+06
454461
)
;

boundaryField
{
    outletCentralUnloaded
    {
        type            zeroGradient;
    }
    inletCentralUnloaded
    {
        type            zeroGradient;
    }
    outletFuelElement
    {
        type            zeroGradient;
    }
    inletFuelElement
    {
        type            zeroGradient;
    }
    defaultFaces
    {
        type            zeroGradient;
    }
    baffle_master
    {
        type            zeroGradient;
    }
    baffle_slave
    {
        type            zeroGradient;
    }
}


// ************************************************************************* //
