/*--------------------------------*- C++ -*----------------------------------*\
| =========                 |                                                 |
| \\      /  F ield         | OpenFOAM: The Open Source CFD Toolbox           |
|  \\    /   O peration     | Version:  2212                                  |
|   \\  /    A nd           | Website:  www.openfoam.com                      |
|    \\/     M anipulation  |                                                 |
\*---------------------------------------------------------------------------*/
FoamFile
{
    version     2.0;
    format      ascii;
    arch        "LSB;label=32;scalar=64";
    class       volTensorField;
    location    "62/fluidRegion";
    object      Kd;
}
// * * * * * * * * * * * * * * * * * * * * * * * * * * * * * * * * * * * * * //

dimensions      [1 -3 -1 0 0 0 0];

internalField   nonuniform List<tensor> 
350
(
(84.7412 0 0 0 84.7412 0 0 0 84.7412)
(84.7411 0 0 0 84.7411 0 0 0 84.7411)
(84.7409 0 0 0 84.7409 0 0 0 84.7409)
(84.7408 0 0 0 84.7408 0 0 0 84.7408)
(84.7407 0 0 0 84.7407 0 0 0 84.7407)
(84.7405 0 0 0 84.7405 0 0 0 84.7405)
(84.7405 0 0 0 84.7405 0 0 0 84.7405)
(84.7405 0 0 0 84.7405 0 0 0 84.7405)
(84.7407 0 0 0 84.7407 0 0 0 84.7407)
(84.741 0 0 0 84.741 0 0 0 84.741)
(84.7416 0 0 0 84.7416 0 0 0 84.7416)
(84.7424 0 0 0 84.7424 0 0 0 84.7424)
(84.7433 0 0 0 84.7433 0 0 0 84.7433)
(84.7442 0 0 0 84.7442 0 0 0 84.7442)
(84.7448 0 0 0 84.7448 0 0 0 84.7448)
(84.7449 0 0 0 84.7449 0 0 0 84.7449)
(84.7445 0 0 0 84.7445 0 0 0 84.7445)
(84.7434 0 0 0 84.7434 0 0 0 84.7434)
(84.7421 0 0 0 84.7421 0 0 0 84.7421)
(84.7407 0 0 0 84.7407 0 0 0 84.7407)
(84.7396 0 0 0 84.7396 0 0 0 84.7396)
(84.739 0 0 0 84.739 0 0 0 84.739)
(84.7392 0 0 0 84.7392 0 0 0 84.7392)
(84.7401 0 0 0 84.7401 0 0 0 84.7401)
(84.8732 0 0 0 84.8732 0 0 0 84.8732)
(84.7412 0 0 0 84.7412 0 0 0 84.7412)
(84.7411 0 0 0 84.7411 0 0 0 84.7411)
(84.7409 0 0 0 84.7409 0 0 0 84.7409)
(84.7408 0 0 0 84.7408 0 0 0 84.7408)
(84.7407 0 0 0 84.7407 0 0 0 84.7407)
(84.7405 0 0 0 84.7405 0 0 0 84.7405)
(84.7405 0 0 0 84.7405 0 0 0 84.7405)
(84.7405 0 0 0 84.7405 0 0 0 84.7405)
(84.7407 0 0 0 84.7407 0 0 0 84.7407)
(84.741 0 0 0 84.741 0 0 0 84.741)
(84.7416 0 0 0 84.7416 0 0 0 84.7416)
(84.7424 0 0 0 84.7424 0 0 0 84.7424)
(84.7433 0 0 0 84.7433 0 0 0 84.7433)
(84.7442 0 0 0 84.7442 0 0 0 84.7442)
(84.7448 0 0 0 84.7448 0 0 0 84.7448)
(84.7449 0 0 0 84.7449 0 0 0 84.7449)
(84.7445 0 0 0 84.7445 0 0 0 84.7445)
(84.7434 0 0 0 84.7434 0 0 0 84.7434)
(84.7421 0 0 0 84.7421 0 0 0 84.7421)
(84.7407 0 0 0 84.7407 0 0 0 84.7407)
(84.7396 0 0 0 84.7396 0 0 0 84.7396)
(84.739 0 0 0 84.739 0 0 0 84.739)
(84.7392 0 0 0 84.7392 0 0 0 84.7392)
(84.7401 0 0 0 84.7401 0 0 0 84.7401)
(84.8732 0 0 0 84.8732 0 0 0 84.8732)
(682.647 0 0 0 682.647 0 0 0 682.647)
(682.193 0 0 0 682.193 0 0 0 682.193)
(682.204 0 0 0 682.204 0 0 0 682.204)
(682.206 0 0 0 682.206 0 0 0 682.206)
(682.197 0 0 0 682.197 0 0 0 682.197)
(682.175 0 0 0 682.175 0 0 0 682.175)
(682.139 0 0 0 682.139 0 0 0 682.139)
(682.087 0 0 0 682.087 0 0 0 682.087)
(682.018 0 0 0 682.018 0 0 0 682.018)
(681.929 0 0 0 681.929 0 0 0 681.929)
(681.818 0 0 0 681.818 0 0 0 681.818)
(681.687 0 0 0 681.687 0 0 0 681.687)
(681.535 0 0 0 681.535 0 0 0 681.535)
(681.362 0 0 0 681.362 0 0 0 681.362)
(681.165 0 0 0 681.165 0 0 0 681.165)
(680.936 0 0 0 680.936 0 0 0 680.936)
(680.656 0 0 0 680.656 0 0 0 680.656)
(680.309 0 0 0 680.309 0 0 0 680.309)
(679.887 0 0 0 679.887 0 0 0 679.887)
(679.444 0 0 0 679.444 0 0 0 679.444)
(679.16 0 0 0 679.16 0 0 0 679.16)
(679.586 0 0 0 679.586 0 0 0 679.586)
(682.055 0 0 0 682.055 0 0 0 682.055)
(688.938 0 0 0 688.938 0 0 0 688.938)
(693.454 0 0 0 693.454 0 0 0 693.454)
(678.106 0 0 0 678.106 0 0 0 678.106)
(677.581 0 0 0 677.581 0 0 0 677.581)
(677.554 0 0 0 677.554 0 0 0 677.554)
(677.517 0 0 0 677.517 0 0 0 677.517)
(677.472 0 0 0 677.472 0 0 0 677.472)
(677.417 0 0 0 677.417 0 0 0 677.417)
(677.35 0 0 0 677.35 0 0 0 677.35)
(677.27 0 0 0 677.27 0 0 0 677.27)
(677.173 0 0 0 677.173 0 0 0 677.173)
(677.06 0 0 0 677.06 0 0 0 677.06)
(676.93 0 0 0 676.93 0 0 0 676.93)
(676.787 0 0 0 676.787 0 0 0 676.787)
(676.637 0 0 0 676.637 0 0 0 676.637)
(676.49 0 0 0 676.49 0 0 0 676.49)
(676.353 0 0 0 676.353 0 0 0 676.353)
(676.226 0 0 0 676.226 0 0 0 676.226)
(676.098 0 0 0 676.098 0 0 0 676.098)
(675.951 0 0 0 675.951 0 0 0 675.951)
(675.78 0 0 0 675.78 0 0 0 675.78)
(675.641 0 0 0 675.641 0 0 0 675.641)
(675.73 0 0 0 675.73 0 0 0 675.73)
(676.628 0 0 0 676.628 0 0 0 676.628)
(679.725 0 0 0 679.725 0 0 0 679.725)
(687.448 0 0 0 687.448 0 0 0 687.448)
(692.969 0 0 0 692.969 0 0 0 692.969)
(683.405 0 0 0 683.405 0 0 0 683.405)
(682.948 0 0 0 682.948 0 0 0 682.948)
(682.963 0 0 0 682.963 0 0 0 682.963)
(682.968 0 0 0 682.968 0 0 0 682.968)
(682.96 0 0 0 682.96 0 0 0 682.96)
(682.94 0 0 0 682.94 0 0 0 682.94)
(682.906 0 0 0 682.906 0 0 0 682.906)
(682.855 0 0 0 682.855 0 0 0 682.855)
(682.786 0 0 0 682.786 0 0 0 682.786)
(682.696 0 0 0 682.696 0 0 0 682.696)
(682.585 0 0 0 682.585 0 0 0 682.585)
(682.45 0 0 0 682.45 0 0 0 682.45)
(682.292 0 0 0 682.292 0 0 0 682.292)
(682.108 0 0 0 682.108 0 0 0 682.108)
(681.895 0 0 0 681.895 0 0 0 681.895)
(681.642 0 0 0 681.642 0 0 0 681.642)
(681.331 0 0 0 681.331 0 0 0 681.331)
(680.943 0 0 0 680.943 0 0 0 680.943)
(680.472 0 0 0 680.472 0 0 0 680.472)
(679.969 0 0 0 679.969 0 0 0 679.969)
(679.613 0 0 0 679.613 0 0 0 679.613)
(679.949 0 0 0 679.949 0 0 0 679.949)
(682.303 0 0 0 682.303 0 0 0 682.303)
(689.05 0 0 0 689.05 0 0 0 689.05)
(693.471 0 0 0 693.471 0 0 0 693.471)
(679.122 0 0 0 679.122 0 0 0 679.122)
(678.617 0 0 0 678.617 0 0 0 678.617)
(678.601 0 0 0 678.601 0 0 0 678.601)
(678.575 0 0 0 678.575 0 0 0 678.575)
(678.54 0 0 0 678.54 0 0 0 678.54)
(678.494 0 0 0 678.494 0 0 0 678.494)
(678.436 0 0 0 678.436 0 0 0 678.436)
(678.364 0 0 0 678.364 0 0 0 678.364)
(678.276 0 0 0 678.276 0 0 0 678.276)
(678.17 0 0 0 678.17 0 0 0 678.17)
(678.046 0 0 0 678.046 0 0 0 678.046)
(677.907 0 0 0 677.907 0 0 0 677.907)
(677.759 0 0 0 677.759 0 0 0 677.759)
(677.608 0 0 0 677.608 0 0 0 677.608)
(677.459 0 0 0 677.459 0 0 0 677.459)
(677.31 0 0 0 677.31 0 0 0 677.31)
(677.149 0 0 0 677.149 0 0 0 677.149)
(676.958 0 0 0 676.958 0 0 0 676.958)
(676.73 0 0 0 676.73 0 0 0 676.73)
(676.524 0 0 0 676.524 0 0 0 676.524)
(676.529 0 0 0 676.529 0 0 0 676.529)
(677.321 0 0 0 677.321 0 0 0 677.321)
(680.276 0 0 0 680.276 0 0 0 680.276)
(687.807 0 0 0 687.807 0 0 0 687.807)
(693.089 0 0 0 693.089 0 0 0 693.089)
(679.122 0 0 0 679.122 0 0 0 679.122)
(678.617 0 0 0 678.617 0 0 0 678.617)
(678.601 0 0 0 678.601 0 0 0 678.601)
(678.575 0 0 0 678.575 0 0 0 678.575)
(678.54 0 0 0 678.54 0 0 0 678.54)
(678.494 0 0 0 678.494 0 0 0 678.494)
(678.436 0 0 0 678.436 0 0 0 678.436)
(678.364 0 0 0 678.364 0 0 0 678.364)
(678.276 0 0 0 678.276 0 0 0 678.276)
(678.17 0 0 0 678.17 0 0 0 678.17)
(678.046 0 0 0 678.046 0 0 0 678.046)
(677.907 0 0 0 677.907 0 0 0 677.907)
(677.759 0 0 0 677.759 0 0 0 677.759)
(677.608 0 0 0 677.608 0 0 0 677.608)
(677.459 0 0 0 677.459 0 0 0 677.459)
(677.31 0 0 0 677.31 0 0 0 677.31)
(677.149 0 0 0 677.149 0 0 0 677.149)
(676.958 0 0 0 676.958 0 0 0 676.958)
(676.73 0 0 0 676.73 0 0 0 676.73)
(676.524 0 0 0 676.524 0 0 0 676.524)
(676.529 0 0 0 676.529 0 0 0 676.529)
(677.321 0 0 0 677.321 0 0 0 677.321)
(680.275 0 0 0 680.275 0 0 0 680.275)
(687.807 0 0 0 687.807 0 0 0 687.807)
(693.089 0 0 0 693.089 0 0 0 693.089)
(683.405 0 0 0 683.405 0 0 0 683.405)
(682.948 0 0 0 682.948 0 0 0 682.948)
(682.963 0 0 0 682.963 0 0 0 682.963)
(682.968 0 0 0 682.968 0 0 0 682.968)
(682.96 0 0 0 682.96 0 0 0 682.96)
(682.94 0 0 0 682.94 0 0 0 682.94)
(682.905 0 0 0 682.905 0 0 0 682.905)
(682.855 0 0 0 682.855 0 0 0 682.855)
(682.786 0 0 0 682.786 0 0 0 682.786)
(682.696 0 0 0 682.696 0 0 0 682.696)
(682.585 0 0 0 682.585 0 0 0 682.585)
(682.45 0 0 0 682.45 0 0 0 682.45)
(682.291 0 0 0 682.291 0 0 0 682.291)
(682.108 0 0 0 682.108 0 0 0 682.108)
(681.895 0 0 0 681.895 0 0 0 681.895)
(681.642 0 0 0 681.642 0 0 0 681.642)
(681.33 0 0 0 681.33 0 0 0 681.33)
(680.942 0 0 0 680.942 0 0 0 680.942)
(680.471 0 0 0 680.471 0 0 0 680.471)
(679.968 0 0 0 679.968 0 0 0 679.968)
(679.612 0 0 0 679.612 0 0 0 679.612)
(679.947 0 0 0 679.947 0 0 0 679.947)
(682.302 0 0 0 682.302 0 0 0 682.302)
(689.048 0 0 0 689.048 0 0 0 689.048)
(693.47 0 0 0 693.47 0 0 0 693.47)
(678.106 0 0 0 678.106 0 0 0 678.106)
(677.581 0 0 0 677.581 0 0 0 677.581)
(677.554 0 0 0 677.554 0 0 0 677.554)
(677.517 0 0 0 677.517 0 0 0 677.517)
(677.472 0 0 0 677.472 0 0 0 677.472)
(677.417 0 0 0 677.417 0 0 0 677.417)
(677.35 0 0 0 677.35 0 0 0 677.35)
(677.27 0 0 0 677.27 0 0 0 677.27)
(677.173 0 0 0 677.173 0 0 0 677.173)
(677.06 0 0 0 677.06 0 0 0 677.06)
(676.93 0 0 0 676.93 0 0 0 676.93)
(676.787 0 0 0 676.787 0 0 0 676.787)
(676.637 0 0 0 676.637 0 0 0 676.637)
(676.49 0 0 0 676.49 0 0 0 676.49)
(676.353 0 0 0 676.353 0 0 0 676.353)
(676.226 0 0 0 676.226 0 0 0 676.226)
(676.098 0 0 0 676.098 0 0 0 676.098)
(675.951 0 0 0 675.951 0 0 0 675.951)
(675.78 0 0 0 675.78 0 0 0 675.78)
(675.641 0 0 0 675.641 0 0 0 675.641)
(675.73 0 0 0 675.73 0 0 0 675.73)
(676.628 0 0 0 676.628 0 0 0 676.628)
(679.725 0 0 0 679.725 0 0 0 679.725)
(687.448 0 0 0 687.448 0 0 0 687.448)
(692.969 0 0 0 692.969 0 0 0 692.969)
(682.647 0 0 0 682.647 0 0 0 682.647)
(682.193 0 0 0 682.193 0 0 0 682.193)
(682.204 0 0 0 682.204 0 0 0 682.204)
(682.206 0 0 0 682.206 0 0 0 682.206)
(682.197 0 0 0 682.197 0 0 0 682.197)
(682.175 0 0 0 682.175 0 0 0 682.175)
(682.139 0 0 0 682.139 0 0 0 682.139)
(682.087 0 0 0 682.087 0 0 0 682.087)
(682.018 0 0 0 682.018 0 0 0 682.018)
(681.929 0 0 0 681.929 0 0 0 681.929)
(681.818 0 0 0 681.818 0 0 0 681.818)
(681.687 0 0 0 681.687 0 0 0 681.687)
(681.535 0 0 0 681.535 0 0 0 681.535)
(681.362 0 0 0 681.362 0 0 0 681.362)
(681.165 0 0 0 681.165 0 0 0 681.165)
(680.936 0 0 0 680.936 0 0 0 680.936)
(680.656 0 0 0 680.656 0 0 0 680.656)
(680.309 0 0 0 680.309 0 0 0 680.309)
(679.887 0 0 0 679.887 0 0 0 679.887)
(679.444 0 0 0 679.444 0 0 0 679.444)
(679.16 0 0 0 679.16 0 0 0 679.16)
(679.586 0 0 0 679.586 0 0 0 679.586)
(682.055 0 0 0 682.055 0 0 0 682.055)
(688.937 0 0 0 688.937 0 0 0 688.937)
(693.454 0 0 0 693.454 0 0 0 693.454)
(679.122 0 0 0 679.122 0 0 0 679.122)
(678.617 0 0 0 678.617 0 0 0 678.617)
(678.601 0 0 0 678.601 0 0 0 678.601)
(678.575 0 0 0 678.575 0 0 0 678.575)
(678.54 0 0 0 678.54 0 0 0 678.54)
(678.494 0 0 0 678.494 0 0 0 678.494)
(678.436 0 0 0 678.436 0 0 0 678.436)
(678.364 0 0 0 678.364 0 0 0 678.364)
(678.276 0 0 0 678.276 0 0 0 678.276)
(678.17 0 0 0 678.17 0 0 0 678.17)
(678.046 0 0 0 678.046 0 0 0 678.046)
(677.907 0 0 0 677.907 0 0 0 677.907)
(677.759 0 0 0 677.759 0 0 0 677.759)
(677.608 0 0 0 677.608 0 0 0 677.608)
(677.459 0 0 0 677.459 0 0 0 677.459)
(677.31 0 0 0 677.31 0 0 0 677.31)
(677.149 0 0 0 677.149 0 0 0 677.149)
(676.958 0 0 0 676.958 0 0 0 676.958)
(676.73 0 0 0 676.73 0 0 0 676.73)
(676.524 0 0 0 676.524 0 0 0 676.524)
(676.529 0 0 0 676.529 0 0 0 676.529)
(677.321 0 0 0 677.321 0 0 0 677.321)
(680.276 0 0 0 680.276 0 0 0 680.276)
(687.807 0 0 0 687.807 0 0 0 687.807)
(693.089 0 0 0 693.089 0 0 0 693.089)
(683.405 0 0 0 683.405 0 0 0 683.405)
(682.948 0 0 0 682.948 0 0 0 682.948)
(682.963 0 0 0 682.963 0 0 0 682.963)
(682.968 0 0 0 682.968 0 0 0 682.968)
(682.96 0 0 0 682.96 0 0 0 682.96)
(682.94 0 0 0 682.94 0 0 0 682.94)
(682.906 0 0 0 682.906 0 0 0 682.906)
(682.855 0 0 0 682.855 0 0 0 682.855)
(682.786 0 0 0 682.786 0 0 0 682.786)
(682.696 0 0 0 682.696 0 0 0 682.696)
(682.585 0 0 0 682.585 0 0 0 682.585)
(682.45 0 0 0 682.45 0 0 0 682.45)
(682.292 0 0 0 682.292 0 0 0 682.292)
(682.108 0 0 0 682.108 0 0 0 682.108)
(681.895 0 0 0 681.895 0 0 0 681.895)
(681.642 0 0 0 681.642 0 0 0 681.642)
(681.331 0 0 0 681.331 0 0 0 681.331)
(680.943 0 0 0 680.943 0 0 0 680.943)
(680.472 0 0 0 680.472 0 0 0 680.472)
(679.969 0 0 0 679.969 0 0 0 679.969)
(679.613 0 0 0 679.613 0 0 0 679.613)
(679.949 0 0 0 679.949 0 0 0 679.949)
(682.303 0 0 0 682.303 0 0 0 682.303)
(689.05 0 0 0 689.05 0 0 0 689.05)
(693.471 0 0 0 693.471 0 0 0 693.471)
(683.405 0 0 0 683.405 0 0 0 683.405)
(682.948 0 0 0 682.948 0 0 0 682.948)
(682.963 0 0 0 682.963 0 0 0 682.963)
(682.968 0 0 0 682.968 0 0 0 682.968)
(682.96 0 0 0 682.96 0 0 0 682.96)
(682.94 0 0 0 682.94 0 0 0 682.94)
(682.905 0 0 0 682.905 0 0 0 682.905)
(682.855 0 0 0 682.855 0 0 0 682.855)
(682.786 0 0 0 682.786 0 0 0 682.786)
(682.696 0 0 0 682.696 0 0 0 682.696)
(682.585 0 0 0 682.585 0 0 0 682.585)
(682.45 0 0 0 682.45 0 0 0 682.45)
(682.291 0 0 0 682.291 0 0 0 682.291)
(682.108 0 0 0 682.108 0 0 0 682.108)
(681.895 0 0 0 681.895 0 0 0 681.895)
(681.642 0 0 0 681.642 0 0 0 681.642)
(681.33 0 0 0 681.33 0 0 0 681.33)
(680.942 0 0 0 680.942 0 0 0 680.942)
(680.471 0 0 0 680.471 0 0 0 680.471)
(679.968 0 0 0 679.968 0 0 0 679.968)
(679.612 0 0 0 679.612 0 0 0 679.612)
(679.947 0 0 0 679.947 0 0 0 679.947)
(682.301 0 0 0 682.301 0 0 0 682.301)
(689.048 0 0 0 689.048 0 0 0 689.048)
(693.47 0 0 0 693.47 0 0 0 693.47)
(679.122 0 0 0 679.122 0 0 0 679.122)
(678.617 0 0 0 678.617 0 0 0 678.617)
(678.601 0 0 0 678.601 0 0 0 678.601)
(678.575 0 0 0 678.575 0 0 0 678.575)
(678.54 0 0 0 678.54 0 0 0 678.54)
(678.494 0 0 0 678.494 0 0 0 678.494)
(678.436 0 0 0 678.436 0 0 0 678.436)
(678.364 0 0 0 678.364 0 0 0 678.364)
(678.276 0 0 0 678.276 0 0 0 678.276)
(678.17 0 0 0 678.17 0 0 0 678.17)
(678.046 0 0 0 678.046 0 0 0 678.046)
(677.907 0 0 0 677.907 0 0 0 677.907)
(677.759 0 0 0 677.759 0 0 0 677.759)
(677.608 0 0 0 677.608 0 0 0 677.608)
(677.459 0 0 0 677.459 0 0 0 677.459)
(677.31 0 0 0 677.31 0 0 0 677.31)
(677.149 0 0 0 677.149 0 0 0 677.149)
(676.958 0 0 0 676.958 0 0 0 676.958)
(676.73 0 0 0 676.73 0 0 0 676.73)
(676.524 0 0 0 676.524 0 0 0 676.524)
(676.528 0 0 0 676.528 0 0 0 676.528)
(677.32 0 0 0 677.32 0 0 0 677.32)
(680.275 0 0 0 680.275 0 0 0 680.275)
(687.807 0 0 0 687.807 0 0 0 687.807)
(693.089 0 0 0 693.089 0 0 0 693.089)
)
;

boundaryField
{
    outletCentralUnloaded
    {
        type            zeroGradient;
    }
    inletCentralUnloaded
    {
        type            zeroGradient;
    }
    outletFuelElement
    {
        type            zeroGradient;
    }
    inletFuelElement
    {
        type            zeroGradient;
    }
    defaultFaces
    {
        type            zeroGradient;
    }
    baffle_master
    {
        type            zeroGradient;
    }
    baffle_slave
    {
        type            zeroGradient;
    }
}


// ************************************************************************* //
