/*--------------------------------*- C++ -*----------------------------------*\
| =========                 |                                                 |
| \\      /  F ield         | OpenFOAM: The Open Source CFD Toolbox           |
|  \\    /   O peration     | Version:  2212                                  |
|   \\  /    A nd           | Website:  www.openfoam.com                      |
|    \\/     M anipulation  |                                                 |
\*---------------------------------------------------------------------------*/
FoamFile
{
    version     2.0;
    format      ascii;
    arch        "LSB;label=32;scalar=64";
    class       volScalarField;
    location    "62/fluidRegion";
    object      p_rgh;
}
// * * * * * * * * * * * * * * * * * * * * * * * * * * * * * * * * * * * * * //

dimensions      [1 -1 -2 0 0 0 0];

internalField   nonuniform List<scalar> 
350
(
3.44743e+06
3.44772e+06
3.44802e+06
3.44832e+06
3.44861e+06
3.44891e+06
3.4492e+06
3.4495e+06
3.44979e+06
3.45009e+06
3.45038e+06
3.45068e+06
3.45097e+06
3.45127e+06
3.45156e+06
3.45186e+06
3.45216e+06
3.45245e+06
3.45275e+06
3.45304e+06
3.45334e+06
3.45364e+06
3.45393e+06
3.45423e+06
3.45451e+06
3.44743e+06
3.44772e+06
3.44802e+06
3.44832e+06
3.44861e+06
3.44891e+06
3.4492e+06
3.4495e+06
3.44979e+06
3.45009e+06
3.45038e+06
3.45068e+06
3.45097e+06
3.45127e+06
3.45156e+06
3.45186e+06
3.45216e+06
3.45245e+06
3.45275e+06
3.45304e+06
3.45334e+06
3.45364e+06
3.45393e+06
3.45423e+06
3.45451e+06
3.47385e+06
3.52569e+06
3.57692e+06
3.62723e+06
3.67632e+06
3.7239e+06
3.76971e+06
3.81352e+06
3.85512e+06
3.89432e+06
3.93096e+06
3.9649e+06
3.99604e+06
4.02429e+06
4.04961e+06
4.07199e+06
4.09148e+06
4.10818e+06
4.12221e+06
4.13376e+06
4.14303e+06
4.15023e+06
4.15561e+06
4.15946e+06
4.16214e+06
3.47385e+06
3.52569e+06
3.57692e+06
3.62723e+06
3.67632e+06
3.7239e+06
3.76971e+06
3.81352e+06
3.85512e+06
3.89432e+06
3.93096e+06
3.9649e+06
3.99604e+06
4.02429e+06
4.04961e+06
4.07199e+06
4.09148e+06
4.10818e+06
4.12221e+06
4.13376e+06
4.14303e+06
4.15023e+06
4.15561e+06
4.15946e+06
4.16214e+06
3.47385e+06
3.52569e+06
3.57692e+06
3.62723e+06
3.67632e+06
3.7239e+06
3.76971e+06
3.81352e+06
3.85512e+06
3.89432e+06
3.93096e+06
3.9649e+06
3.99604e+06
4.02429e+06
4.04961e+06
4.07199e+06
4.09148e+06
4.10818e+06
4.12221e+06
4.13376e+06
4.14303e+06
4.15023e+06
4.15561e+06
4.15946e+06
4.16214e+06
3.47385e+06
3.52569e+06
3.57692e+06
3.62723e+06
3.67632e+06
3.7239e+06
3.76971e+06
3.81352e+06
3.85512e+06
3.89432e+06
3.93096e+06
3.9649e+06
3.99604e+06
4.02429e+06
4.04961e+06
4.07199e+06
4.09148e+06
4.10818e+06
4.12221e+06
4.13376e+06
4.14303e+06
4.15023e+06
4.15561e+06
4.15946e+06
4.16214e+06
3.47385e+06
3.52569e+06
3.57692e+06
3.62723e+06
3.67632e+06
3.7239e+06
3.76971e+06
3.81352e+06
3.85512e+06
3.89432e+06
3.93096e+06
3.9649e+06
3.99604e+06
4.02429e+06
4.04961e+06
4.07199e+06
4.09148e+06
4.10818e+06
4.12221e+06
4.13376e+06
4.14303e+06
4.15023e+06
4.15561e+06
4.15946e+06
4.16214e+06
3.47385e+06
3.52569e+06
3.57692e+06
3.62723e+06
3.67632e+06
3.7239e+06
3.76971e+06
3.81352e+06
3.85512e+06
3.89432e+06
3.93096e+06
3.9649e+06
3.99604e+06
4.02429e+06
4.04961e+06
4.07199e+06
4.09148e+06
4.10818e+06
4.12221e+06
4.13376e+06
4.14303e+06
4.15023e+06
4.15561e+06
4.15946e+06
4.16214e+06
3.47385e+06
3.52569e+06
3.57692e+06
3.62723e+06
3.67632e+06
3.7239e+06
3.76971e+06
3.81352e+06
3.85512e+06
3.89432e+06
3.93096e+06
3.9649e+06
3.99604e+06
4.02429e+06
4.04961e+06
4.07199e+06
4.09148e+06
4.10818e+06
4.12221e+06
4.13376e+06
4.14303e+06
4.15023e+06
4.15561e+06
4.15946e+06
4.16214e+06
3.47385e+06
3.52569e+06
3.57692e+06
3.62723e+06
3.67632e+06
3.7239e+06
3.76971e+06
3.81352e+06
3.85512e+06
3.89432e+06
3.93096e+06
3.9649e+06
3.99604e+06
4.02429e+06
4.04961e+06
4.07199e+06
4.09148e+06
4.10818e+06
4.12221e+06
4.13376e+06
4.14303e+06
4.15023e+06
4.15561e+06
4.15946e+06
4.16214e+06
3.47385e+06
3.52569e+06
3.57692e+06
3.62723e+06
3.67632e+06
3.7239e+06
3.76971e+06
3.81352e+06
3.85512e+06
3.89432e+06
3.93096e+06
3.9649e+06
3.99604e+06
4.02429e+06
4.04961e+06
4.07199e+06
4.09148e+06
4.10818e+06
4.12221e+06
4.13376e+06
4.14303e+06
4.15023e+06
4.15561e+06
4.15946e+06
4.16214e+06
3.47385e+06
3.52569e+06
3.57692e+06
3.62723e+06
3.67632e+06
3.7239e+06
3.76971e+06
3.81352e+06
3.85512e+06
3.89432e+06
3.93096e+06
3.9649e+06
3.99604e+06
4.02429e+06
4.04961e+06
4.07199e+06
4.09148e+06
4.10818e+06
4.12221e+06
4.13376e+06
4.14303e+06
4.15023e+06
4.15561e+06
4.15946e+06
4.16214e+06
3.47385e+06
3.52569e+06
3.57692e+06
3.62723e+06
3.67632e+06
3.7239e+06
3.76971e+06
3.81352e+06
3.85512e+06
3.89432e+06
3.93096e+06
3.9649e+06
3.99604e+06
4.02429e+06
4.04961e+06
4.07199e+06
4.09148e+06
4.10818e+06
4.12221e+06
4.13376e+06
4.14303e+06
4.15023e+06
4.15561e+06
4.15946e+06
4.16214e+06
3.47385e+06
3.52569e+06
3.57692e+06
3.62723e+06
3.67632e+06
3.7239e+06
3.76971e+06
3.81352e+06
3.85512e+06
3.89432e+06
3.93096e+06
3.9649e+06
3.99604e+06
4.02429e+06
4.04961e+06
4.07199e+06
4.09148e+06
4.10818e+06
4.12221e+06
4.13376e+06
4.14303e+06
4.15023e+06
4.15561e+06
4.15946e+06
4.16214e+06
)
;

boundaryField
{
    outletCentralUnloaded
    {
        type            fixedValue;
        value           uniform 3.44728e+06;
    }
    inletCentralUnloaded
    {
        type            zeroGradient;
    }
    outletFuelElement
    {
        type            fixedValue;
        value           uniform 3.44728e+06;
    }
    inletFuelElement
    {
        type            zeroGradient;
    }
    defaultFaces
    {
        type            zeroGradient;
    }
    baffle_master
    {
        type            zeroGradient;
    }
    baffle_slave
    {
        type            zeroGradient;
    }
}


// ************************************************************************* //
