/*--------------------------------*- C++ -*----------------------------------*\
| =========                 |                                                 |
| \\      /  F ield         | OpenFOAM: The Open Source CFD Toolbox           |
|  \\    /   O peration     | Version:  2212                                  |
|   \\  /    A nd           | Website:  www.openfoam.com                      |
|    \\/     M anipulation  |                                                 |
\*---------------------------------------------------------------------------*/
FoamFile
{
    version     2.0;
    format      ascii;
    arch        "LSB;label=32;scalar=64";
    class       volScalarField;
    location    "62/fluidRegion";
    object      Re;
}
// * * * * * * * * * * * * * * * * * * * * * * * * * * * * * * * * * * * * * //

dimensions      [0 0 0 0 0 0 0];

internalField   nonuniform List<scalar> 
350
(
174030
174030
174029
174029
174029
174028
174028
174028
174029
174029
174031
174033
174036
174038
174040
174040
174039
174036
174032
174029
174026
174024
174025
174027
174391
174030
174030
174029
174029
174029
174028
174028
174028
174029
174029
174031
174033
174036
174038
174040
174040
174039
174036
174032
174029
174026
174024
174025
174027
174391
55431.3
55382.1
55383.4
55383.6
55382.6
55380.2
55376.3
55370.7
55363.2
55353.5
55341.6
55327.4
55310.9
55292.2
55270.9
55246.1
55215.9
55178.3
55132.7
55084.8
55054.1
55100.2
55367.3
56113.4
56604.4
54940.2
54883.5
54880.6
54876.6
54871.7
54865.8
54858.6
54849.9
54839.5
54827.2
54813.2
54797.7
54781.6
54765.7
54751
54737.2
54723.3
54707.5
54689
54674.1
54683.6
54780.6
55115.2
55951.7
56551.6
55513.4
55463.9
55465.5
55466
55465.2
55463
55459.3
55453.8
55446.3
55436.6
55424.6
55410
55392.8
55373
55349.9
55322.5
55288.8
55246.9
55195.9
55141.6
55103.1
55139.3
55394.1
56125.6
56606.2
55050
54995.5
54993.7
54990.9
54987.1
54982.2
54975.9
54968.1
54958.5
54947.1
54933.7
54918.7
54902.7
54886.4
54870.3
54854.3
54836.8
54816.2
54791.7
54769.3
54769.9
54855.4
55174.7
55990.6
56564.7
55050
54995.5
54993.7
54990.9
54987.1
54982.2
54975.9
54968.1
54958.5
54947.1
54933.7
54918.7
54902.7
54886.4
54870.3
54854.3
54836.8
54816.2
54791.7
54769.3
54769.9
54855.4
55174.7
55990.6
56564.7
55513.4
55463.8
55465.5
55466
55465.2
55463
55459.3
55453.8
55446.3
55436.6
55424.5
55410
55392.8
55372.9
55349.9
55322.5
55288.8
55246.8
55195.8
55141.5
55102.9
55139.2
55393.9
56125.4
56606.1
54940.2
54883.5
54880.6
54876.6
54871.7
54865.8
54858.6
54849.9
54839.5
54827.2
54813.2
54797.7
54781.6
54765.7
54751
54737.2
54723.3
54707.5
54689
54674.1
54683.6
54780.6
55115.2
55951.6
56551.6
55431.3
55382.1
55383.4
55383.6
55382.6
55380.2
55376.3
55370.7
55363.2
55353.5
55341.6
55327.4
55310.9
55292.2
55270.9
55246.1
55215.9
55178.3
55132.7
55084.8
55054.1
55100.2
55367.2
56113.4
56604.4
55050
54995.5
54993.7
54990.9
54987.1
54982.2
54975.9
54968.1
54958.5
54947.1
54933.7
54918.7
54902.7
54886.4
54870.3
54854.3
54836.8
54816.2
54791.7
54769.3
54769.9
54855.4
55174.7
55990.7
56564.7
55513.4
55463.9
55465.5
55466
55465.2
55463
55459.3
55453.8
55446.3
55436.6
55424.6
55410
55392.8
55373
55349.9
55322.5
55288.8
55246.9
55195.9
55141.6
55103.1
55139.4
55394.1
56125.6
56606.3
55513.4
55463.8
55465.5
55466
55465.2
55463
55459.3
55453.8
55446.3
55436.6
55424.5
55410
55392.8
55372.9
55349.9
55322.5
55288.8
55246.8
55195.8
55141.5
55102.9
55139.2
55393.9
56125.4
56606.2
55050
54995.5
54993.7
54990.9
54987.1
54982.2
54975.9
54968.1
54958.5
54947.1
54933.7
54918.7
54902.7
54886.4
54870.3
54854.3
54836.8
54816.2
54791.6
54769.3
54769.8
54855.3
55174.7
55990.7
56564.7
)
;

boundaryField
{
    outletCentralUnloaded
    {
        type            zeroGradient;
    }
    inletCentralUnloaded
    {
        type            zeroGradient;
    }
    outletFuelElement
    {
        type            zeroGradient;
    }
    inletFuelElement
    {
        type            zeroGradient;
    }
    defaultFaces
    {
        type            zeroGradient;
    }
    baffle_master
    {
        type            zeroGradient;
    }
    baffle_slave
    {
        type            zeroGradient;
    }
}


// ************************************************************************* //
