/*--------------------------------*- C++ -*----------------------------------*\
| =========                 |                                                 |
| \\      /  F ield         | OpenFOAM: The Open Source CFD Toolbox           |
|  \\    /   O peration     | Version:  2212                                  |
|   \\  /    A nd           | Website:  www.openfoam.com                      |
|    \\/     M anipulation  |                                                 |
\*---------------------------------------------------------------------------*/
FoamFile
{
    version     2.0;
    format      ascii;
    arch        "LSB;label=32;scalar=64";
    class       volScalarField;
    location    "62/fluidRegion";
    object      T;
}
// * * * * * * * * * * * * * * * * * * * * * * * * * * * * * * * * * * * * * //

dimensions      [0 0 0 1 0 0 0];

internalField   nonuniform List<scalar> 
350
(
83.2889
83.2894
83.2899
83.2904
83.2909
83.2913
83.2918
83.2922
83.2927
83.2932
83.2937
83.2942
83.2947
83.2952
83.2957
83.2962
83.2967
83.2971
83.2975
83.2979
83.2982
83.2985
83.2989
83.2994
83.2999
83.2889
83.2894
83.2899
83.2904
83.2909
83.2913
83.2918
83.2922
83.2927
83.2932
83.2937
83.2942
83.2947
83.2952
83.2957
83.2962
83.2967
83.2971
83.2975
83.2979
83.2982
83.2985
83.2989
83.2994
83.2999
1823.47
1817.3
1798.72
1767.95
1725.35
1671.39
1606.7
1532.04
1448.28
1356.42
1257.62
1153.2
1044.69
933.832
822.587
713.053
607.337
507.402
414.959
331.444
258.118
196.162
146.803
111.209
90.0853
1851.72
1845.77
1827.18
1796.2
1753.15
1698.55
1633.02
1557.31
1472.33
1379.07
1278.71
1172.58
1062.21
949.379
836.074
724.451
616.686
514.813
420.604
335.537
260.894
197.872
147.706
111.573
90.1627
1818.88
1812.69
1794.14
1763.42
1720.9
1667.07
1602.53
1528.05
1444.5
1352.87
1254.33
1150.2
1041.99
931.448
820.531
711.326
605.929
506.294
414.121
330.842
257.712
195.915
146.673
111.156
90.0729
1845.37
1839.35
1820.76
1789.8
1746.85
1692.38
1627.03
1551.55
1466.83
1373.89
1273.88
1168.13
1058.18
945.8
832.965
721.82
614.525
513.099
419.297
334.588
260.25
197.475
147.497
111.488
90.1449
1845.37
1839.35
1820.76
1789.8
1746.85
1692.38
1627.03
1551.55
1466.83
1373.89
1273.88
1168.13
1058.18
945.8
832.965
721.82
614.525
513.099
419.297
334.588
260.25
197.475
147.497
111.488
90.1449
1818.88
1812.7
1794.14
1763.42
1720.9
1667.07
1602.54
1528.05
1444.5
1352.87
1254.33
1150.2
1041.99
931.449
820.532
711.327
605.93
506.294
414.121
330.842
257.713
195.915
146.673
111.156
90.0729
1851.72
1845.77
1827.18
1796.2
1753.15
1698.55
1633.02
1557.31
1472.33
1379.07
1278.71
1172.58
1062.21
949.379
836.074
724.451
616.686
514.813
420.604
335.537
260.894
197.872
147.706
111.573
90.1627
1823.47
1817.3
1798.72
1767.95
1725.35
1671.39
1606.7
1532.04
1448.28
1356.42
1257.62
1153.2
1044.69
933.832
822.587
713.053
607.337
507.402
414.959
331.444
258.118
196.162
146.803
111.209
90.0853
1845.37
1839.35
1820.76
1789.8
1746.85
1692.38
1627.03
1551.55
1466.83
1373.89
1273.88
1168.13
1058.18
945.8
832.965
721.82
614.525
513.099
419.297
334.588
260.25
197.475
147.497
111.488
90.1449
1818.88
1812.69
1794.14
1763.42
1720.9
1667.07
1602.53
1528.05
1444.5
1352.87
1254.33
1150.2
1041.99
931.448
820.531
711.326
605.929
506.294
414.121
330.842
257.713
195.915
146.673
111.156
90.0729
1818.88
1812.7
1794.14
1763.42
1720.9
1667.07
1602.54
1528.05
1444.5
1352.87
1254.33
1150.2
1041.99
931.449
820.532
711.327
605.93
506.294
414.121
330.842
257.713
195.915
146.673
111.156
90.0729
1845.37
1839.35
1820.75
1789.8
1746.85
1692.38
1627.03
1551.55
1466.83
1373.89
1273.88
1168.13
1058.18
945.8
832.965
721.82
614.525
513.099
419.297
334.588
260.25
197.475
147.497
111.488
90.1449
)
;

boundaryField
{
    outletCentralUnloaded
    {
        type            zeroGradient;
    }
    inletCentralUnloaded
    {
        type            fixedValue;
        value           uniform 83.3;
    }
    outletFuelElement
    {
        type            zeroGradient;
    }
    inletFuelElement
    {
        type            fixedValue;
        value           uniform 83.3;
    }
    defaultFaces
    {
        type            zeroGradient;
    }
    baffle_master
    {
        type            zeroGradient;
    }
    baffle_slave
    {
        type            zeroGradient;
    }
}


// ************************************************************************* //
