/*--------------------------------*- C++ -*----------------------------------*\
| =========                 |                                                 |
| \\      /  F ield         | OpenFOAM: The Open Source CFD Toolbox           |
|  \\    /   O peration     | Version:  2212                                  |
|   \\  /    A nd           | Website:  www.openfoam.com                      |
|    \\/     M anipulation  |                                                 |
\*---------------------------------------------------------------------------*/
FoamFile
{
    version     2.0;
    format      ascii;
    arch        "LSB;label=32;scalar=64";
    class       volScalarField;
    location    "62/fluidRegion";
    object      Tcav.nuclearFuelPin;
}
// * * * * * * * * * * * * * * * * * * * * * * * * * * * * * * * * * * * * * //

dimensions      [0 0 0 1 0 0 0];

internalField   nonuniform List<scalar> 
350
(
0
0
0
0
0
0
0
0
0
0
0
0
0
0
0
0
0
0
0
0
0
0
0
0
0
0
0
0
0
0
0
0
0
0
0
0
0
0
0
0
0
0
0
0
0
0
0
0
0
0
1845.65
1883.74
1908.9
1921.1
1920.49
1907.32
1882.04
1845.19
1797.5
1739.81
1673.1
1598.46
1517.12
1430.42
1339.8
1246.71
1152.55
1058.38
964.604
870.391
772.828
665.62
538.018
377.911
186.909
1874.1
1912.81
1938.35
1950.71
1950.03
1936.57
1910.78
1873.21
1824.61
1765.83
1697.85
1621.8
1538.92
1450.56
1358.19
1263.29
1167.31
1071.36
975.911
880.167
781.215
672.677
543.585
381.529
188.132
1841.03
1879.04
1904.15
1916.35
1915.77
1902.67
1877.48
1840.76
1793.23
1735.73
1669.23
1594.82
1513.74
1427.31
1336.96
1244.16
1150.29
1056.4
962.881
868.907
771.563
664.567
537.199
377.384
186.723
1867.7
1906.25
1931.69
1944
1943.32
1929.92
1904.22
1866.81
1818.41
1759.87
1692.17
1616.44
1533.91
1445.93
1353.95
1259.46
1163.9
1068.36
973.297
877.906
779.275
671.043
542.295
380.689
187.849
1867.7
1906.25
1931.69
1944
1943.32
1929.92
1904.22
1866.81
1818.41
1759.87
1692.17
1616.44
1533.91
1445.93
1353.95
1259.46
1163.9
1068.36
973.297
877.906
779.275
671.043
542.295
380.689
187.849
1841.03
1879.04
1904.16
1916.36
1915.77
1902.67
1877.48
1840.76
1793.23
1735.73
1669.23
1594.82
1513.74
1427.31
1336.96
1244.16
1150.29
1056.4
962.882
868.908
771.564
664.568
537.199
377.384
186.723
1874.1
1912.81
1938.35
1950.71
1950.03
1936.57
1910.78
1873.21
1824.61
1765.83
1697.85
1621.8
1538.92
1450.56
1358.19
1263.29
1167.31
1071.36
975.911
880.167
781.215
672.677
543.585
381.529
188.132
1845.65
1883.74
1908.9
1921.1
1920.49
1907.32
1882.03
1845.19
1797.5
1739.81
1673.1
1598.46
1517.12
1430.42
1339.8
1246.71
1152.55
1058.38
964.604
870.391
772.828
665.62
538.018
377.911
186.909
1867.7
1906.25
1931.69
1944
1943.32
1929.92
1904.22
1866.81
1818.41
1759.87
1692.17
1616.44
1533.91
1445.93
1353.95
1259.46
1163.9
1068.36
973.297
877.906
779.275
671.043
542.295
380.689
187.849
1841.03
1879.04
1904.15
1916.35
1915.77
1902.67
1877.48
1840.76
1793.23
1735.73
1669.23
1594.82
1513.74
1427.31
1336.96
1244.16
1150.29
1056.4
962.881
868.907
771.564
664.568
537.199
377.384
186.723
1841.03
1879.04
1904.16
1916.36
1915.77
1902.67
1877.48
1840.76
1793.23
1735.73
1669.23
1594.82
1513.74
1427.31
1336.96
1244.16
1150.29
1056.4
962.882
868.908
771.564
664.568
537.199
377.384
186.723
1867.7
1906.25
1931.69
1944
1943.32
1929.92
1904.22
1866.81
1818.41
1759.87
1692.17
1616.44
1533.91
1445.93
1353.95
1259.46
1163.9
1068.36
973.297
877.906
779.275
671.043
542.295
380.689
187.849
)
;

boundaryField
{
    outletCentralUnloaded
    {
        type            zeroGradient;
    }
    inletCentralUnloaded
    {
        type            zeroGradient;
    }
    outletFuelElement
    {
        type            zeroGradient;
    }
    inletFuelElement
    {
        type            zeroGradient;
    }
    defaultFaces
    {
        type            zeroGradient;
    }
    baffle_master
    {
        type            zeroGradient;
    }
    baffle_slave
    {
        type            zeroGradient;
    }
}


// ************************************************************************* //
