/*--------------------------------*- C++ -*----------------------------------*\
| =========                 |                                                 |
| \\      /  F ield         | OpenFOAM: The Open Source CFD Toolbox           |
|  \\    /   O peration     | Version:  2212                                  |
|   \\  /    A nd           | Website:  www.openfoam.com                      |
|    \\/     M anipulation  |                                                 |
\*---------------------------------------------------------------------------*/
FoamFile
{
    version     2.0;
    format      ascii;
    arch        "LSB;label=32;scalar=64";
    class       volScalarField;
    location    "62/fluidRegion";
    object      Tci.nuclearFuelPin;
}
// * * * * * * * * * * * * * * * * * * * * * * * * * * * * * * * * * * * * * //

dimensions      [0 0 0 1 0 0 0];

internalField   nonuniform List<scalar> 
350
(
0
0
0
0
0
0
0
0
0
0
0
0
0
0
0
0
0
0
0
0
0
0
0
0
0
0
0
0
0
0
0
0
0
0
0
0
0
0
0
0
0
0
0
0
0
0
0
0
0
0
1851.74
1901.97
1938.97
1962.54
1972.64
1969.37
1952.99
1923.94
1882.8
1830.32
1767.38
1695.04
1614.47
1527.01
1434.09
1337.23
1237.86
1137.14
1035.57
932.445
824.991
707.07
568.1
396.152
193.023
1880.26
1931.24
1968.76
1992.63
2002.78
1999.33
1982.55
1952.87
1910.89
1857.37
1793.22
1719.49
1637.39
1548.25
1453.56
1354.84
1253.59
1151.02
1047.69
942.932
833.976
714.601
574.012
399.979
194.316
1847.11
1897.24
1934.17
1957.72
1967.83
1964.6
1948.31
1919.37
1878.38
1826.07
1763.34
1691.23
1610.91
1523.71
1431.08
1334.51
1235.44
1135.01
1033.72
930.848
823.631
705.942
567.226
395.592
192.825
1873.85
1924.64
1962.02
1985.81
1995.93
1992.51
1975.81
1946.26
1904.47
1851.17
1787.29
1713.87
1632.11
1543.36
1449.07
1350.78
1249.96
1147.82
1044.89
940.507
831.898
712.858
572.643
399.092
194.017
1873.85
1924.64
1962.02
1985.81
1995.93
1992.51
1975.81
1946.26
1904.47
1851.17
1787.29
1713.87
1632.11
1543.36
1449.07
1350.78
1249.96
1147.82
1044.89
940.507
831.898
712.858
572.643
399.092
194.017
1847.11
1897.24
1934.17
1957.72
1967.83
1964.6
1948.31
1919.37
1878.38
1826.07
1763.34
1691.23
1610.91
1523.71
1431.08
1334.51
1235.44
1135.01
1033.72
930.849
823.632
705.943
567.227
395.592
192.825
1880.26
1931.24
1968.76
1992.63
2002.78
1999.33
1982.55
1952.87
1910.89
1857.37
1793.22
1719.49
1637.39
1548.25
1453.56
1354.84
1253.59
1151.02
1047.69
942.932
833.976
714.602
574.013
399.979
194.316
1851.74
1901.97
1938.97
1962.54
1972.64
1969.37
1952.99
1923.94
1882.8
1830.32
1767.38
1695.04
1614.47
1527.01
1434.09
1337.23
1237.86
1137.14
1035.57
932.445
824.991
707.071
568.1
396.152
193.023
1873.85
1924.64
1962.02
1985.81
1995.93
1992.51
1975.81
1946.26
1904.47
1851.17
1787.29
1713.87
1632.11
1543.36
1449.07
1350.78
1249.96
1147.82
1044.89
940.507
831.898
712.858
572.643
399.092
194.017
1847.11
1897.24
1934.17
1957.72
1967.83
1964.6
1948.31
1919.37
1878.38
1826.07
1763.34
1691.23
1610.91
1523.71
1431.08
1334.51
1235.44
1135.01
1033.72
930.848
823.631
705.942
567.227
395.592
192.825
1847.11
1897.24
1934.17
1957.72
1967.83
1964.6
1948.31
1919.37
1878.38
1826.07
1763.34
1691.23
1610.91
1523.71
1431.08
1334.51
1235.44
1135.01
1033.72
930.849
823.632
705.943
567.227
395.592
192.825
1873.85
1924.64
1962.02
1985.81
1995.93
1992.51
1975.81
1946.26
1904.47
1851.17
1787.29
1713.87
1632.11
1543.36
1449.07
1350.78
1249.96
1147.82
1044.89
940.507
831.898
712.858
572.643
399.091
194.017
)
;

boundaryField
{
    outletCentralUnloaded
    {
        type            zeroGradient;
    }
    inletCentralUnloaded
    {
        type            zeroGradient;
    }
    outletFuelElement
    {
        type            zeroGradient;
    }
    inletFuelElement
    {
        type            zeroGradient;
    }
    defaultFaces
    {
        type            zeroGradient;
    }
    baffle_master
    {
        type            zeroGradient;
    }
    baffle_slave
    {
        type            zeroGradient;
    }
}


// ************************************************************************* //
