/*--------------------------------*- C++ -*----------------------------------*\
| =========                 |                                                 |
| \\      /  F ield         | OpenFOAM: The Open Source CFD Toolbox           |
|  \\    /   O peration     | Version:  2212                                  |
|   \\  /    A nd           | Website:  www.openfoam.com                      |
|    \\/     M anipulation  |                                                 |
\*---------------------------------------------------------------------------*/
FoamFile
{
    version     2.0;
    format      ascii;
    arch        "LSB;label=32;scalar=64";
    class       volScalarField;
    location    "62/fluidRegion";
    object      Tco.nuclearFuelPin;
}
// * * * * * * * * * * * * * * * * * * * * * * * * * * * * * * * * * * * * * //

dimensions      [0 0 0 1 0 0 0];

internalField   nonuniform List<scalar> 
350
(
0
0
0
0
0
0
0
0
0
0
0
0
0
0
0
0
0
0
0
0
0
0
0
0
0
0
0
0
0
0
0
0
0
0
0
0
0
0
0
0
0
0
0
0
0
0
0
0
0
0
1839.95
1866.73
1880.82
1882.42
1871.8
1849.4
1815.8
1771.68
1717.87
1655.32
1585.08
1508.3
1426.25
1340.27
1251.78
1162.22
1072.92
984.862
898.358
812.464
724.134
626.927
509.936
360.883
181.202
1868.34
1895.6
1909.95
1911.59
1900.79
1877.99
1843.78
1798.86
1744.07
1680.37
1608.83
1530.61
1447.01
1359.37
1269.16
1177.83
1086.76
997.001
908.906
821.577
731.963
633.54
515.181
364.306
182.359
1835.34
1862.06
1876.13
1877.74
1867.17
1844.86
1811.36
1767.38
1713.75
1651.39
1581.37
1504.83
1423.03
1337.31
1249.1
1159.82
1070.8
983.012
896.756
811.086
722.958
625.945
509.168
360.387
181.026
1861.96
1889.09
1903.37
1904.98
1894.21
1871.49
1837.4
1792.65
1738.08
1674.63
1603.38
1525.49
1442.23
1354.97
1265.15
1174.23
1083.56
994.195
906.467
819.469
730.151
632.008
513.965
363.511
182.091
1861.96
1889.09
1903.37
1904.98
1894.21
1871.49
1837.4
1792.65
1738.08
1674.63
1603.38
1525.49
1442.23
1354.97
1265.15
1174.23
1083.56
994.195
906.467
819.469
730.151
632.008
513.965
363.511
182.091
1835.34
1862.06
1876.14
1877.74
1867.17
1844.86
1811.36
1767.38
1713.75
1651.39
1581.37
1504.83
1423.03
1337.31
1249.1
1159.82
1070.8
983.013
896.757
811.087
722.959
625.946
509.169
360.387
181.026
1868.34
1895.6
1909.95
1911.59
1900.79
1877.99
1843.78
1798.86
1744.07
1680.37
1608.83
1530.61
1447.01
1359.37
1269.16
1177.83
1086.76
997.001
908.906
821.577
731.963
633.54
515.182
364.306
182.359
1839.95
1866.73
1880.82
1882.42
1871.8
1849.4
1815.8
1771.68
1717.87
1655.32
1585.08
1508.3
1426.25
1340.27
1251.78
1162.22
1072.92
984.862
898.358
812.464
724.134
626.927
509.936
360.883
181.202
1861.96
1889.09
1903.37
1904.98
1894.21
1871.49
1837.4
1792.65
1738.08
1674.63
1603.38
1525.49
1442.23
1354.97
1265.15
1174.23
1083.56
994.195
906.467
819.469
730.151
632.008
513.965
363.511
182.091
1835.34
1862.06
1876.13
1877.74
1867.17
1844.86
1811.36
1767.38
1713.75
1651.39
1581.37
1504.83
1423.03
1337.31
1249.1
1159.82
1070.8
983.013
896.756
811.086
722.958
625.945
509.168
360.386
181.026
1835.34
1862.06
1876.14
1877.74
1867.17
1844.86
1811.36
1767.38
1713.75
1651.39
1581.37
1504.83
1423.03
1337.31
1249.1
1159.82
1070.8
983.013
896.757
811.087
722.959
625.945
509.169
360.387
181.026
1861.96
1889.09
1903.37
1904.98
1894.21
1871.49
1837.4
1792.65
1738.08
1674.63
1603.38
1525.49
1442.23
1354.97
1265.15
1174.23
1083.56
994.195
906.467
819.469
730.151
632.008
513.965
363.511
182.091
)
;

boundaryField
{
    outletCentralUnloaded
    {
        type            zeroGradient;
    }
    inletCentralUnloaded
    {
        type            zeroGradient;
    }
    outletFuelElement
    {
        type            zeroGradient;
    }
    inletFuelElement
    {
        type            zeroGradient;
    }
    defaultFaces
    {
        type            zeroGradient;
    }
    baffle_master
    {
        type            zeroGradient;
    }
    baffle_slave
    {
        type            zeroGradient;
    }
}


// ************************************************************************* //
