/*--------------------------------*- C++ -*----------------------------------*\
| =========                 |                                                 |
| \\      /  F ield         | OpenFOAM: The Open Source CFD Toolbox           |
|  \\    /   O peration     | Version:  2212                                  |
|   \\  /    A nd           | Website:  www.openfoam.com                      |
|    \\/     M anipulation  |                                                 |
\*---------------------------------------------------------------------------*/
FoamFile
{
    version     2.0;
    format      ascii;
    arch        "LSB;label=32;scalar=64";
    class       volScalarField;
    location    "62/fluidRegion";
    object      Tfav.nuclearFuelPin;
}
// * * * * * * * * * * * * * * * * * * * * * * * * * * * * * * * * * * * * * //

dimensions      [0 0 0 1 0 0 0];

internalField   nonuniform List<scalar> 
350
(
0
0
0
0
0
0
0
0
0
0
0
0
0
0
0
0
0
0
0
0
0
0
0
0
0
0
0
0
0
0
0
0
0
0
0
0
0
0
0
0
0
0
0
0
0
0
0
0
0
0
2222.13
3009.18
3765.54
4479.65
5140.57
5738.16
6263.19
6707.56
7064.39
7328.15
7494.74
7561.6
7527.7
7393.65
7161.62
6835.3
6419.77
5921.16
5346.22
4701.78
3993.54
3224.88
2395.41
1504.19
564.399
2254.87
3051.13
3816.24
4538.55
5206.99
5811.28
6342.1
6791.27
7151.82
7418.17
7586.18
7653.24
7618.35
7482.09
7246.69
6915.9
6494.86
5989.84
5407.72
4755.45
4038.82
3261.25
2422.26
1520.71
569.945
2216.82
3002.43
3757.41
4470.23
5129.98
5726.52
6250.64
6694.26
7050.51
7313.87
7480.25
7547.08
7513.35
7379.66
7148.16
6822.56
6407.91
5910.31
5336.51
4693.31
3986.4
3219.16
2391.21
1501.61
563.525
2247.49
3041.61
3804.69
4525.1
5191.79
5794.52
6324
6772.05
7131.73
7397.48
7565.15
7632.16
7597.48
7461.73
7227.1
6897.33
6477.57
5974.02
5393.55
4743.08
4028.38
3252.87
2416.07
1516.9
568.667
2247.49
3041.61
3804.69
4525.1
5191.79
5794.52
6324
6772.05
7131.73
7397.48
7565.15
7632.16
7597.48
7461.73
7227.1
6897.33
6477.57
5974.02
5393.55
4743.08
4028.38
3252.87
2416.07
1516.9
568.667
2216.82
3002.44
3757.41
4470.24
5129.98
5726.52
6250.64
6694.26
7050.52
7313.88
7480.26
7547.08
7513.36
7379.66
7148.16
6822.56
6407.91
5910.31
5336.51
4693.31
3986.4
3219.16
2391.21
1501.61
563.525
2254.87
3051.13
3816.24
4538.55
5206.99
5811.28
6342.1
6791.27
7151.82
7418.17
7586.18
7653.24
7618.35
7482.09
7246.69
6915.9
6494.86
5989.84
5407.72
4755.45
4038.82
3261.25
2422.26
1520.71
569.945
2222.12
3009.18
3765.54
4479.65
5140.57
5738.16
6263.19
6707.56
7064.39
7328.15
7494.74
7561.6
7527.7
7393.65
7161.61
6835.3
6419.77
5921.16
5346.22
4701.78
3993.54
3224.88
2395.42
1504.19
564.399
2247.49
3041.61
3804.69
4525.1
5191.79
5794.52
6324
6772.05
7131.73
7397.48
7565.15
7632.16
7597.48
7461.73
7227.1
6897.33
6477.57
5974.02
5393.55
4743.08
4028.38
3252.87
2416.07
1516.9
568.667
2216.82
3002.43
3757.41
4470.23
5129.98
5726.52
6250.64
6694.26
7050.51
7313.87
7480.25
7547.08
7513.35
7379.65
7148.16
6822.56
6407.91
5910.31
5336.51
4693.31
3986.4
3219.16
2391.21
1501.61
563.525
2216.82
3002.43
3757.41
4470.24
5129.98
5726.52
6250.64
6694.26
7050.52
7313.87
7480.26
7547.08
7513.36
7379.66
7148.16
6822.56
6407.91
5910.31
5336.51
4693.31
3986.4
3219.16
2391.21
1501.61
563.525
2247.49
3041.61
3804.69
4525.1
5191.79
5794.52
6324
6772.05
7131.73
7397.48
7565.15
7632.16
7597.48
7461.73
7227.1
6897.33
6477.57
5974.02
5393.55
4743.08
4028.38
3252.87
2416.07
1516.9
568.667
)
;

boundaryField
{
    outletCentralUnloaded
    {
        type            zeroGradient;
    }
    inletCentralUnloaded
    {
        type            zeroGradient;
    }
    outletFuelElement
    {
        type            zeroGradient;
    }
    inletFuelElement
    {
        type            zeroGradient;
    }
    defaultFaces
    {
        type            zeroGradient;
    }
    baffle_master
    {
        type            zeroGradient;
    }
    baffle_slave
    {
        type            zeroGradient;
    }
}


// ************************************************************************* //
