/*--------------------------------*- C++ -*----------------------------------*\
| =========                 |                                                 |
| \\      /  F ield         | OpenFOAM: The Open Source CFD Toolbox           |
|  \\    /   O peration     | Version:  2212                                  |
|   \\  /    A nd           | Website:  www.openfoam.com                      |
|    \\/     M anipulation  |                                                 |
\*---------------------------------------------------------------------------*/
FoamFile
{
    version     2.0;
    format      ascii;
    arch        "LSB;label=32;scalar=64";
    class       volScalarField;
    location    "62/fluidRegion";
    object      Tfi.nuclearFuelPin;
}
// * * * * * * * * * * * * * * * * * * * * * * * * * * * * * * * * * * * * * //

dimensions      [0 0 0 1 0 0 0];

internalField   nonuniform List<scalar> 
350
(
0
0
0
0
0
0
0
0
0
0
0
0
0
0
0
0
0
0
0
0
0
0
0
0
0
0
0
0
0
0
0
0
0
0
0
0
0
0
0
0
0
0
0
0
0
0
0
0
0
0
2423.77
3612.21
4760.42
5850.69
6866.15
7791.04
8610.99
9313.25
9886.87
10322.9
10614.5
10757.2
10748.8
10589.3
10281.5
9830.23
9242.48
8527.13
7694.34
6755.03
5719.52
4596.38
3390.79
2107.76
766.706
2458.82
3661.05
4822.51
5925.29
6952.32
7887.67
8716.8
9426.81
10006.6
10447.2
10741.7
10885.5
10876.3
10714.4
10402.3
9945.12
9349.9
8625.66
7782.73
6832.21
5784.57
4648.46
3429.04
2131.19
774.568
2418.1
3604.36
4750.48
5838.78
6852.41
7775.65
8594.16
9295.2
9867.85
10303.2
10594.4
10736.9
10728.5
10569.5
10262.4
9812.02
9225.46
8511.52
7680.34
6742.81
5709.23
4588.16
3384.77
2104.08
765.462
2450.9
3649.94
4808.34
5908.23
6932.58
7865.5
8692.5
9400.72
9979.1
10418.6
10712.5
10856
10846.9
10685.6
10374.5
9918.67
9325.16
8602.97
7762.37
6814.43
5769.58
4636.46
3420.22
2125.79
772.757
2450.9
3649.94
4808.34
5908.23
6932.57
7865.5
8692.5
9400.72
9979.1
10418.6
10712.5
10856
10846.9
10685.6
10374.5
9918.67
9325.16
8602.97
7762.37
6814.43
5769.58
4636.46
3420.22
2125.79
772.757
2418.1
3604.36
4750.48
5838.78
6852.41
7775.65
8594.16
9295.21
9867.85
10303.2
10594.4
10736.9
10728.5
10569.5
10262.4
9812.03
9225.46
8511.52
7680.34
6742.81
5709.23
4588.16
3384.77
2104.08
765.463
2458.82
3661.05
4822.51
5925.29
6952.32
7887.67
8716.8
9426.81
10006.6
10447.2
10741.7
10885.5
10876.3
10714.4
10402.3
9945.12
9349.9
8625.66
7782.73
6832.21
5784.57
4648.46
3429.04
2131.19
774.568
2423.77
3612.21
4760.42
5850.69
6866.14
7791.04
8610.99
9313.25
9886.87
10322.9
10614.5
10757.2
10748.8
10589.3
10281.5
9830.23
9242.48
8527.13
7694.34
6755.03
5719.52
4596.38
3390.79
2107.76
766.706
2450.9
3649.94
4808.34
5908.23
6932.57
7865.5
8692.5
9400.72
9979.1
10418.6
10712.5
10856
10846.9
10685.6
10374.5
9918.67
9325.16
8602.97
7762.37
6814.43
5769.58
4636.46
3420.22
2125.79
772.757
2418.1
3604.36
4750.48
5838.78
6852.41
7775.65
8594.16
9295.2
9867.85
10303.2
10594.4
10736.9
10728.5
10569.5
10262.4
9812.02
9225.46
8511.52
7680.34
6742.81
5709.23
4588.16
3384.77
2104.08
765.463
2418.1
3604.36
4750.48
5838.78
6852.41
7775.65
8594.16
9295.21
9867.85
10303.2
10594.4
10736.9
10728.5
10569.5
10262.4
9812.02
9225.46
8511.52
7680.34
6742.81
5709.23
4588.16
3384.77
2104.08
765.463
2450.9
3649.94
4808.34
5908.23
6932.57
7865.5
8692.5
9400.72
9979.1
10418.6
10712.5
10856
10846.9
10685.6
10374.5
9918.67
9325.16
8602.97
7762.37
6814.43
5769.58
4636.46
3420.22
2125.79
772.757
)
;

boundaryField
{
    outletCentralUnloaded
    {
        type            zeroGradient;
    }
    inletCentralUnloaded
    {
        type            zeroGradient;
    }
    outletFuelElement
    {
        type            zeroGradient;
    }
    inletFuelElement
    {
        type            zeroGradient;
    }
    defaultFaces
    {
        type            zeroGradient;
    }
    baffle_master
    {
        type            zeroGradient;
    }
    baffle_slave
    {
        type            zeroGradient;
    }
}


// ************************************************************************* //
