/*--------------------------------*- C++ -*----------------------------------*\
| =========                 |                                                 |
| \\      /  F ield         | OpenFOAM: The Open Source CFD Toolbox           |
|  \\    /   O peration     | Version:  2212                                  |
|   \\  /    A nd           | Website:  www.openfoam.com                      |
|    \\/     M anipulation  |                                                 |
\*---------------------------------------------------------------------------*/
FoamFile
{
    version     2.0;
    format      ascii;
    arch        "LSB;label=32;scalar=64";
    class       volVectorField;
    location    "62/fluidRegion";
    object      U;
}
// * * * * * * * * * * * * * * * * * * * * * * * * * * * * * * * * * * * * * //

dimensions      [0 1 -1 0 0 0 0];

internalField   nonuniform List<vector> 
350
(
(1.9245e-10 1.11111e-10 -14.9682)
(2.11304e-10 1.21996e-10 -14.9669)
(1.37949e-10 7.96448e-11 -14.9656)
(3.42088e-11 1.97504e-11 -14.9642)
(-8.01e-11 -4.62456e-11 -14.9629)
(-1.99314e-10 -1.15074e-10 -14.9615)
(-3.12692e-10 -1.80532e-10 -14.9603)
(-4.01694e-10 -2.31917e-10 -14.959)
(-4.40715e-10 -2.54446e-10 -14.9579)
(-4.07364e-10 -2.35191e-10 -14.9568)
(-2.8417e-10 -1.64065e-10 -14.9558)
(-7.0414e-11 -4.06534e-11 -14.9548)
(2.06549e-10 1.19251e-10 -14.9539)
(4.90697e-10 2.83303e-10 -14.9529)
(7.08847e-10 4.09252e-10 -14.9518)
(7.87752e-10 4.54808e-10 -14.9506)
(6.89433e-10 3.98043e-10 -14.9492)
(4.17962e-10 2.4131e-10 -14.9477)
(3.26161e-11 1.88309e-11 -14.9462)
(-3.75255e-10 -2.16653e-10 -14.9446)
(-7.07498e-10 -4.08473e-10 -14.943)
(-8.86545e-10 -5.11845e-10 -14.9416)
(-8.43641e-10 -4.87075e-10 -14.9404)
(-3.15367e-10 -1.82076e-10 -14.9393)
(6.86294e-10 3.96231e-10 -14.9694)
(1.9245e-10 1.11111e-10 -14.9682)
(2.11304e-10 1.21996e-10 -14.9669)
(1.37949e-10 7.96447e-11 -14.9656)
(3.42088e-11 1.97504e-11 -14.9642)
(-8.01001e-11 -4.62457e-11 -14.9629)
(-1.99315e-10 -1.15074e-10 -14.9615)
(-3.12692e-10 -1.80532e-10 -14.9603)
(-4.01694e-10 -2.31917e-10 -14.959)
(-4.40715e-10 -2.54446e-10 -14.9579)
(-4.07364e-10 -2.35191e-10 -14.9568)
(-2.8417e-10 -1.64065e-10 -14.9558)
(-7.0414e-11 -4.06534e-11 -14.9548)
(2.06549e-10 1.19251e-10 -14.9539)
(4.90697e-10 2.83303e-10 -14.9529)
(7.08847e-10 4.09252e-10 -14.9518)
(7.87752e-10 4.54808e-10 -14.9506)
(6.89433e-10 3.98043e-10 -14.9492)
(4.17962e-10 2.4131e-10 -14.9477)
(3.26161e-11 1.88309e-11 -14.9462)
(-3.75255e-10 -2.16653e-10 -14.9446)
(-7.07498e-10 -4.08473e-10 -14.943)
(-8.86545e-10 -5.11845e-10 -14.9416)
(-8.43641e-10 -4.87075e-10 -14.9404)
(-3.15367e-10 -1.82076e-10 -14.9393)
(6.86294e-10 3.96231e-10 -14.9694)
(-0.00197596 -0.00114082 -423.775)
(-0.000938834 -0.000542035 -415.789)
(-0.00101726 -0.000587312 -405.688)
(-0.000915427 -0.000528521 -393.262)
(-0.000828685 -0.000478441 -378.705)
(-0.000748334 -0.00043205 -362.218)
(-0.000673921 -0.000389088 -344.011)
(-0.00060179 -0.000347443 -324.3)
(-0.00052391 -0.000302479 -303.303)
(-0.000427084 -0.000246577 -281.25)
(-0.000294733 -0.000170164 -258.379)
(-0.000110584 -6.38454e-05 -234.947)
(0.000130254 7.52022e-05 -211.234)
(0.000408284 0.000235723 -187.554)
(0.000692046 0.000399552 -164.243)
(0.000933776 0.000539115 -141.655)
(0.00109612 0.000632842 -120.137)
(0.0011691 0.000674978 -100.005)
(0.00117198 0.00067664 -81.5256)
(0.00113896 0.000657576 -64.9202)
(0.00110077 0.000635532 -50.3804)
(0.00106482 0.000614776 -38.0942)
(0.00101569 0.000586406 -28.27)
(0.00088226 0.000509373 -21.1344)
(0.000840618 0.000485331 -16.6338)
(-0.00191786 -0.00111819 -426.508)
(-0.0006969 -0.000393902 -418.479)
(-0.000787687 -0.000447133 -408.346)
(-0.000717283 -0.000406096 -395.866)
(-0.000657558 -0.000371577 -381.238)
(-0.000602195 -0.000339394 -364.664)
(-0.000550712 -0.000309346 -346.355)
(-0.000500274 -0.000280128 -326.528)
(-0.000445057 -0.000248118 -305.402)
(-0.000375563 -0.000207888 -283.208)
(-0.000280396 -0.000152896 -260.184)
(-0.000148171 -7.6381e-05 -236.589)
(2.546e-05 2.39017e-05 -212.704)
(0.000219385 0.000135956 -188.843)
(0.000416282 0.000249705 -165.349)
(0.000582227 0.000345404 -142.58)
(0.000692422 0.00040886 -120.887)
(0.000741199 0.000436601 -100.592)
(0.000742255 0.000436931 -81.9649)
(0.000719399 0.000423192 -65.2311)
(0.000693787 0.00040832 -50.5835)
(0.000672584 0.000396084 -38.2115)
(0.000649801 0.000383767 -28.3251)
(0.000592172 0.00034975 -21.1515)
(0.000620246 0.000361538 -16.6358)
(-0.000877362 -0.000655815 -423.339)
(-0.000508762 -0.00095121 -415.351)
(-0.000495551 -0.000909723 -405.258)
(-0.000451079 -0.00079964 -392.842)
(-0.000409519 -0.00070288 -378.297)
(-0.000371393 -0.000613687 -361.825)
(-0.000335567 -0.00053144 -343.636)
(-0.000299347 -0.000452144 -323.944)
(-0.000257262 -0.000366873 -302.969)
(-0.000201211 -0.000260945 -280.939)
(-0.000121987 -0.00011505 -258.093)
(-1.2878e-05 8.77253e-05 -234.687)
(0.00012895 0.000350661 -211.003)
(0.000282027 0.000665581 -187.351)
(0.00043238 0.000986381 -164.069)
(0.000552622 0.00126006 -141.509)
(0.00062565 0.00144283 -120.019)
(0.00065032 0.00152257 -99.9118)
(0.000639854 0.00152162 -81.4549)
(0.000613236 0.00147923 -64.869)
(0.000584719 0.00142896 -50.3455)
(0.000559018 0.00137438 -38.072)
(0.000519905 0.00128023 -28.2571)
(0.000454217 0.00103859 -21.1276)
(0.000395729 0.000819931 -16.6315)
(-0.000975238 -0.000563052 -425.899)
(-0.000916461 -0.000529117 -417.88)
(-0.00088263 -0.000509585 -407.752)
(-0.000785841 -0.000453704 -395.283)
(-0.000699312 -0.000403747 -380.67)
(-0.000619613 -0.000357732 -364.114)
(-0.000545557 -0.000314977 -345.828)
(-0.000473134 -0.000273163 -326.025)
(-0.000393173 -0.000226998 -304.928)
(-0.000291372 -0.000168223 -282.765)
(-0.000150022 -8.66149e-05 -259.775)
(4.57267e-05 2.64002e-05 -236.216)
(0.000299728 0.000173047 -212.37)
(0.000593142 0.00034245 -188.55)
(0.000888485 0.000512966 -165.097)
(0.00113533 0.000655483 -142.369)
(0.00129548 0.000747945 -120.716)
(0.00136064 0.000785561 -100.458)
(0.00135328 0.000781312 -81.8646)
(0.00130982 0.000756221 -65.1602)
(0.0012602 0.000727576 -50.5374)
(0.00120991 0.000698539 -38.1851)
(0.00112665 0.000650468 -28.313)
(0.000935034 0.00053984 -21.1481)
(0.000762591 0.000440281 -16.6356)
(0.00095282 0.00055011 -425.899)
(0.000913067 0.000527158 -417.88)
(0.000877528 0.00050664 -407.752)
(0.000781055 0.000450941 -395.283)
(0.000694302 0.000400855 -380.67)
(0.000614615 0.000354848 -364.114)
(0.000540986 0.000312338 -345.828)
(0.00046879 0.000270655 -326.025)
(0.000389309 0.000224767 -304.928)
(0.000288245 0.000166418 -282.765)
(0.000147381 8.50901e-05 -259.775)
(-4.79031e-05 -2.76568e-05 -236.216)
(-0.00030139 -0.000174007 -212.37)
(-0.000594141 -0.000343027 -188.55)
(-0.000888629 -0.000513049 -165.097)
(-0.00113455 -0.000655033 -142.369)
(-0.00129411 -0.000747151 -120.716)
(-0.00135921 -0.000784738 -100.458)
(-0.00135178 -0.000780447 -81.8646)
(-0.00130848 -0.000755447 -65.1602)
(-0.00125919 -0.000726994 -50.5374)
(-0.00120868 -0.000697827 -38.1851)
(-0.00112463 -0.000649303 -28.313)
(-0.000932513 -0.000538385 -21.1481)
(-0.000758349 -0.000437832 -16.6356)
(0.000991731 0.000437702 -423.339)
(0.00107766 -3.90012e-05 -415.352)
(0.00103372 -2.90993e-05 -405.258)
(0.000916285 -1.26088e-05 -392.842)
(0.000811647 -5.69683e-07 -378.297)
(0.000715391 1.07579e-05 -361.825)
(0.00062644 2.07285e-05 -343.636)
(0.000539801 2.8724e-05 -323.944)
(0.000445134 3.48087e-05 -302.969)
(0.000325651 3.92829e-05 -280.94)
(0.000159901 4.34689e-05 -258.093)
(-7.00477e-05 5.01073e-05 -234.688)
(-0.0003684 5.84641e-05 -211.003)
(-0.000717355 8.33279e-05 -187.351)
(-0.00106998 0.000113717 -164.069)
(-0.00136674 0.000146822 -141.509)
(-0.00156128 0.000175309 -120.019)
(-0.00164261 0.000194075 -99.9118)
(-0.00163654 0.00020324 -81.4549)
(-0.00158662 0.000205823 -64.869)
(-0.00152895 0.000205977 -50.3455)
(-0.00146877 0.000201713 -38.0719)
(-0.00136733 0.000189483 -28.257)
(-0.00112491 0.000125778 -21.1275)
(-0.00090488 6.57559e-05 -16.6315)
(0.00191344 0.00112495 -426.508)
(0.000690269 0.000403396 -418.479)
(0.000780628 0.000457507 -408.346)
(0.00071014 0.000416776 -395.866)
(0.000650319 0.000382061 -381.238)
(0.000594863 0.000349896 -364.664)
(0.000543388 0.000319913 -346.355)
(0.000493068 0.000290365 -326.528)
(0.000438125 0.000258081 -305.402)
(0.000369002 0.000217573 -283.208)
(0.000274115 0.000162138 -260.184)
(0.000142061 8.5282e-05 -236.589)
(-3.11504e-05 -1.56894e-05 -212.704)
(-0.000224545 -0.000128256 -188.843)
(-0.000420681 -0.000242502 -165.349)
(-0.000585599 -0.000338884 -142.58)
(-0.000694717 -0.000403095 -120.887)
(-0.000742351 -0.000431814 -100.592)
(-0.000742066 -0.000432728 -81.9649)
(-0.000717582 -0.000419686 -65.2311)
(-0.000690525 -0.000404824 -50.5836)
(-0.000668173 -0.000392244 -38.2115)
(-0.000644329 -0.000378273 -28.3251)
(-0.00058609 -0.000344766 -21.1515)
(-0.000610346 -0.000365187 -16.6358)
(0.00197601 0.00114085 -423.775)
(0.000938683 0.000541949 -415.789)
(0.00101715 0.000587253 -405.688)
(0.000915359 0.000528482 -393.262)
(0.000828537 0.000478356 -378.705)
(0.000748159 0.00043195 -362.218)
(0.000673759 0.000388995 -344.011)
(0.0006016 0.000347334 -324.3)
(0.000523764 0.000302395 -303.303)
(0.000427007 0.000246532 -281.25)
(0.000294645 0.000170113 -258.379)
(0.000110472 6.37807e-05 -234.947)
(-0.000130373 -7.52705e-05 -211.234)
(-0.000408334 -0.000235752 -187.554)
(-0.000691936 -0.000399489 -164.243)
(-0.000933453 -0.000538929 -141.655)
(-0.00109558 -0.000632534 -120.137)
(-0.00116836 -0.000674553 -100.005)
(-0.00117084 -0.000675986 -81.5256)
(-0.0011373 -0.000656619 -64.9202)
(-0.00109841 -0.000634167 -50.3804)
(-0.00106178 -0.000613019 -38.0942)
(-0.00101153 -0.000584009 -28.27)
(-0.000877777 -0.000506784 -21.1344)
(-0.000836575 -0.000482996 -16.6338)
(0.000970176 0.00056013 -425.899)
(0.000909761 0.000525249 -417.88)
(0.000875754 0.000505615 -407.752)
(0.000778998 0.000449753 -395.283)
(0.00069214 0.000399606 -380.67)
(0.000612254 0.000353484 -364.114)
(0.00053831 0.000310792 -345.828)
(0.000465843 0.000268954 -326.025)
(0.000386047 0.000222884 -304.928)
(0.000284651 0.000164343 -282.765)
(0.000143497 8.28478e-05 -259.775)
(-5.21543e-05 -3.01112e-05 -236.216)
(-0.000306039 -0.000176691 -212.37)
(-0.000599177 -0.000345934 -188.55)
(-0.000894078 -0.000516195 -165.097)
(-0.00114038 -0.000658399 -142.369)
(-0.00130034 -0.00075075 -120.716)
(-0.00136577 -0.000788524 -100.458)
(-0.00135889 -0.000784554 -81.8646)
(-0.00131624 -0.00075993 -65.1602)
(-0.00126814 -0.000732161 -50.5374)
(-0.00121892 -0.000703739 -38.1851)
(-0.00113658 -0.000656201 -28.313)
(-0.000944872 -0.000545521 -21.1481)
(-0.000770867 -0.000445059 -16.6356)
(0.000871015 0.000657983 -423.339)
(0.000499768 0.000954597 -415.351)
(0.000486099 0.000913377 -405.258)
(0.000441556 0.000803334 -392.842)
(0.000399765 0.000706578 -378.297)
(0.000361486 0.000617428 -361.825)
(0.000325726 0.000535192 -343.636)
(0.000289605 0.000455825 -323.944)
(0.000247852 0.000370416 -302.969)
(0.000192324 0.000264299 -280.939)
(0.000113481 0.000118245 -258.093)
(4.58278e-06 -8.46399e-05 -234.688)
(-0.000136797 -0.000347844 -211.003)
(-0.000289216 -0.000663086 -187.351)
(-0.000438651 -0.000984347 -164.069)
(-0.000557709 -0.00125869 -141.509)
(-0.000629684 -0.00144226 -120.019)
(-0.000653495 -0.00152295 -99.9118)
(-0.000642236 -0.00152318 -81.4549)
(-0.000614919 -0.00148227 -64.869)
(-0.000586423 -0.00143344 -50.3455)
(-0.000560906 -0.00138002 -38.072)
(-0.000522259 -0.00128671 -28.2571)
(-0.000456584 -0.00104524 -21.1276)
(-0.000394531 -0.000828774 -16.6315)
(-0.000993543 -0.00043527 -423.339)
(-0.00107989 4.24574e-05 -415.352)
(-0.001036 3.31224e-05 -405.258)
(-0.000918577 1.68979e-05 -392.842)
(-0.000814041 4.52208e-06 -378.297)
(-0.000717838 -6.89576e-06 -361.825)
(-0.000628867 -1.67684e-05 -343.636)
(-0.000542236 -2.50376e-05 -323.944)
(-0.000447515 -3.11951e-05 -302.969)
(-0.000327896 -3.55917e-05 -280.94)
(-0.000162082 -3.99666e-05 -258.093)
(6.79032e-05 -4.67914e-05 -234.688)
(0.000366257 -5.55514e-05 -211.003)
(0.000715282 -8.04917e-05 -187.351)
(0.00106805 -0.000110744 -164.069)
(0.00136503 -0.000143655 -141.509)
(0.00155973 -0.000172013 -120.019)
(0.00164121 -0.000190885 -99.9118)
(0.00163542 -0.000199606 -81.4549)
(0.00158591 -0.000201704 -64.869)
(0.00152888 -0.000200911 -50.3455)
(0.0014696 -0.000195392 -38.0719)
(0.00136902 -0.000181055 -28.257)
(0.00112719 -0.0001177 -21.1275)
(0.000906717 -6.4525e-05 -16.6315)
(-0.000956095 -0.000552 -425.899)
(-0.000917135 -0.000529507 -417.88)
(-0.000881548 -0.000508961 -407.752)
(-0.000784966 -0.000453199 -395.283)
(-0.000698565 -0.000403316 -380.67)
(-0.000619061 -0.000357414 -364.114)
(-0.000545329 -0.000314845 -345.828)
(-0.000473269 -0.000273241 -326.025)
(-0.000393726 -0.000227317 -304.928)
(-0.000292338 -0.000168781 -282.765)
(-0.000151417 -8.74203e-05 -259.775)
(4.38819e-05 2.53352e-05 -236.216)
(0.000297264 0.000171625 -212.37)
(0.00059011 0.000340699 -188.55)
(0.000884889 0.00051089 -165.097)
(0.00113123 0.000653117 -142.369)
(0.00129097 0.000745341 -120.716)
(0.00135594 0.000782852 -100.458)
(0.0013486 0.000778612 -81.8646)
(0.00130543 0.000753689 -65.1602)
(0.00125631 0.000725329 -50.5374)
(0.00120665 0.000696655 -38.1851)
(0.00112375 0.000648798 -28.313)
(0.000932266 0.000538243 -21.1481)
(0.000756652 0.000436852 -16.6356)
)
;

boundaryField
{
    outletCentralUnloaded
    {
        type            zeroGradient;
    }
    inletCentralUnloaded
    {
        type            fixedValue;
        value           uniform (0 0 -15);
    }
    outletFuelElement
    {
        type            zeroGradient;
    }
    inletFuelElement
    {
        type            fixedValue;
        value           uniform (0 0 -15);
    }
    defaultFaces
    {
        type            slip;
    }
    baffle_master
    {
        type            slip;
    }
    baffle_slave
    {
        type            slip;
    }
}


// ************************************************************************* //
