/*--------------------------------*- C++ -*----------------------------------*\
| =========                 |                                                 |
| \\      /  F ield         | OpenFOAM: The Open Source CFD Toolbox           |
|  \\    /   O peration     | Version:  2212                                  |
|   \\  /    A nd           | Website:  www.openfoam.com                      |
|    \\/     M anipulation  |                                                 |
\*---------------------------------------------------------------------------*/
FoamFile
{
    version     2.0;
    format      ascii;
    arch        "LSB;label=32;scalar=64";
    class       volTensorField;
    location    "50/fluidRegion";
    object      KdTotU;
}
// * * * * * * * * * * * * * * * * * * * * * * * * * * * * * * * * * * * * * //

dimensions      [1 -2 -2 0 0 0 0];

internalField   nonuniform List<tensor> 
17
(
(5252.12 0 0 0 5252.12 0 0 0 5252.12)
(5252.12 0 0 0 5252.12 0 0 0 5252.12)
(5241.17 0 0 0 5241.17 0 0 0 5241.17)
(5281.13 0 0 0 5281.13 0 0 0 5281.13)
(5321.8 0 0 0 5321.8 0 0 0 5321.8)
(7818.52 0 0 0 7818.52 0 0 0 7818.52)
(13023.2 0 0 0 13023.2 0 0 0 13023.2)
(19704.2 0 0 0 19704.2 0 0 0 19704.2)
(27718.1 0 0 0 27718.1 0 0 0 27718.1)
(36943.1 0 0 0 36943.1 0 0 0 36943.1)
(47075.5 0 0 0 47075.5 0 0 0 47075.5)
(57687.9 0 0 0 57687.9 0 0 0 57687.9)
(68521.9 0 0 0 68521.9 0 0 0 68521.9)
(79438.2 0 0 0 79438.2 0 0 0 79438.2)
(90314.5 0 0 0 90314.5 0 0 0 90314.5)
(101027 0 0 0 101027 0 0 0 101027)
(111675 0 0 0 111675 0 0 0 111675)
)
;

boundaryField
{
    inlet
    {
        type            zeroGradient;
    }
    outlet
    {
        type            zeroGradient;
    }
    fixedWalls
    {
        type            zeroGradient;
    }
}


// ************************************************************************* //
