/*--------------------------------*- C++ -*----------------------------------*\
| =========                 |                                                 |
| \\      /  F ield         | OpenFOAM: The Open Source CFD Toolbox           |
|  \\    /   O peration     | Version:  2212                                  |
|   \\  /    A nd           | Website:  www.openfoam.com                      |
|    \\/     M anipulation  |                                                 |
\*---------------------------------------------------------------------------*/
FoamFile
{
    version     2.0;
    format      ascii;
    arch        "LSB;label=32;scalar=64";
    class       volScalarField;
    location    "50/fluidRegion";
    object      p;
}
// * * * * * * * * * * * * * * * * * * * * * * * * * * * * * * * * * * * * * //

dimensions      [1 -1 -2 0 0 0 0];

internalField   nonuniform List<scalar> 
17
(
1.49172e+07
1.49163e+07
1.49149e+07
1.49129e+07
1.49108e+07
1.49085e+07
1.4905e+07
1.48998e+07
1.48928e+07
1.48836e+07
1.4872e+07
1.48579e+07
1.48412e+07
1.48218e+07
1.47998e+07
1.47752e+07
1.4748e+07
)
;

boundaryField
{
    inlet
    {
        type            calculated;
        value           uniform 1.49177e+07;
    }
    outlet
    {
        type            calculated;
        value           uniform 1.47334e+07;
    }
    fixedWalls
    {
        type            calculated;
        value           nonuniform List<scalar> 
68
(
1.49172e+07
1.49163e+07
1.49149e+07
1.49129e+07
1.49108e+07
1.49085e+07
1.4905e+07
1.48998e+07
1.48928e+07
1.48836e+07
1.4872e+07
1.48579e+07
1.48412e+07
1.48218e+07
1.47998e+07
1.47752e+07
1.4748e+07
1.49172e+07
1.49163e+07
1.49149e+07
1.49129e+07
1.49108e+07
1.49085e+07
1.4905e+07
1.48998e+07
1.48928e+07
1.48836e+07
1.4872e+07
1.48579e+07
1.48412e+07
1.48218e+07
1.47998e+07
1.47752e+07
1.4748e+07
1.49172e+07
1.49163e+07
1.49149e+07
1.49129e+07
1.49108e+07
1.49085e+07
1.4905e+07
1.48998e+07
1.48928e+07
1.48836e+07
1.4872e+07
1.48579e+07
1.48412e+07
1.48218e+07
1.47998e+07
1.47752e+07
1.4748e+07
1.49172e+07
1.49163e+07
1.49149e+07
1.49129e+07
1.49108e+07
1.49085e+07
1.4905e+07
1.48998e+07
1.48928e+07
1.48836e+07
1.4872e+07
1.48579e+07
1.48412e+07
1.48218e+07
1.47998e+07
1.47752e+07
1.4748e+07
)
;
    }
}


// ************************************************************************* //
