/*--------------------------------*- C++ -*----------------------------------*\
| =========                 |                                                 |
| \\      /  F ield         | OpenFOAM: The Open Source CFD Toolbox           |
|  \\    /   O peration     | Version:  2212                                  |
|   \\  /    A nd           | Website:  www.openfoam.com                      |
|    \\/     M anipulation  |                                                 |
\*---------------------------------------------------------------------------*/
FoamFile
{
    version     2.0;
    format      ascii;
    arch        "LSB;label=32;scalar=64";
    class       volScalarField;
    location    "50/fluidRegion";
    object      p_rgh;
}
// * * * * * * * * * * * * * * * * * * * * * * * * * * * * * * * * * * * * * //

dimensions      [1 -1 -2 0 0 0 0];

internalField   nonuniform List<scalar> 
17
(
1.49174e+07
1.49168e+07
1.49159e+07
1.49145e+07
1.4913e+07
1.49112e+07
1.49082e+07
1.49034e+07
1.48968e+07
1.48879e+07
1.48765e+07
1.48626e+07
1.48461e+07
1.4827e+07
1.48052e+07
1.47808e+07
1.47538e+07
)
;

boundaryField
{
    inlet
    {
        type            fixedFluxPressure;
        gradient        uniform 12087.9;
        value           uniform 1.49177e+07;
    }
    outlet
    {
        type            fixedValue;
        value           uniform 1.47394e+07;
    }
    fixedWalls
    {
        type            fixedFluxPressure;
        gradient        uniform 0;
        value           nonuniform List<scalar> 
68
(
1.49174e+07
1.49168e+07
1.49159e+07
1.49145e+07
1.4913e+07
1.49112e+07
1.49082e+07
1.49034e+07
1.48968e+07
1.48879e+07
1.48765e+07
1.48626e+07
1.48461e+07
1.4827e+07
1.48052e+07
1.47808e+07
1.47538e+07
1.49174e+07
1.49168e+07
1.49159e+07
1.49145e+07
1.4913e+07
1.49112e+07
1.49082e+07
1.49034e+07
1.48968e+07
1.48879e+07
1.48765e+07
1.48626e+07
1.48461e+07
1.4827e+07
1.48052e+07
1.47808e+07
1.47538e+07
1.49174e+07
1.49168e+07
1.49159e+07
1.49145e+07
1.4913e+07
1.49112e+07
1.49082e+07
1.49034e+07
1.48968e+07
1.48879e+07
1.48765e+07
1.48626e+07
1.48461e+07
1.4827e+07
1.48052e+07
1.47808e+07
1.47538e+07
1.49174e+07
1.49168e+07
1.49159e+07
1.49145e+07
1.4913e+07
1.49112e+07
1.49082e+07
1.49034e+07
1.48968e+07
1.48879e+07
1.48765e+07
1.48626e+07
1.48461e+07
1.4827e+07
1.48052e+07
1.47808e+07
1.47538e+07
)
;
    }
}


// ************************************************************************* //
