/*--------------------------------*- C++ -*----------------------------------*\
| =========                 |                                                 |
| \\      /  F ield         | OpenFOAM: The Open Source CFD Toolbox           |
|  \\    /   O peration     | Version:  2212                                  |
|   \\  /    A nd           | Website:  www.openfoam.com                      |
|    \\/     M anipulation  |                                                 |
\*---------------------------------------------------------------------------*/
FoamFile
{
    version     2.0;
    format      ascii;
    arch        "LSB;label=32;scalar=64";
    class       volScalarField;
    location    "44/fluidRegion";
    object      heatFlux.structure;
}
// * * * * * * * * * * * * * * * * * * * * * * * * * * * * * * * * * * * * * //

dimensions      [1 0 -3 0 0 0 0];

internalField   nonuniform List<scalar> 
350
(
-258305
-258307
-258310
-258314
-258319
-258325
-258330
-258335
-258337
-258338
-258337
-258337
-258337
-258340
-258343
-258347
-258351
-258354
-258356
-258358
-258359
-258362
-258365
-258369
-258804
-258305
-258307
-258310
-258314
-258319
-258325
-258330
-258335
-258337
-258338
-258337
-258337
-258337
-258340
-258343
-258347
-258351
-258354
-258356
-258358
-258359
-258362
-258365
-258369
-258804
432393
1.32558e+06
2.19765e+06
3.03485e+06
3.82398e+06
4.55261e+06
5.20925e+06
5.78355e+06
6.26646e+06
6.65038e+06
6.92926e+06
7.0987e+06
7.15605e+06
7.1004e+06
6.93263e+06
6.65539e+06
6.27306e+06
5.79165e+06
5.21873e+06
4.56341e+06
3.83597e+06
3.04802e+06
2.21211e+06
1.34184e+06
451139
437135
1.34056e+06
2.22262e+06
3.06942e+06
3.8676e+06
4.60458e+06
5.26875e+06
5.84964e+06
6.33809e+06
6.72642e+06
7.0085e+06
7.1799e+06
7.23791e+06
7.18163e+06
7.01195e+06
6.73155e+06
6.34485e+06
5.85793e+06
5.27846e+06
4.61564e+06
3.87987e+06
3.0829e+06
2.23741e+06
1.35718e+06
456279
431637
1.3232e+06
2.19367e+06
3.02934e+06
3.81703e+06
4.54433e+06
5.19977e+06
5.77302e+06
6.25505e+06
6.63827e+06
6.91664e+06
7.08577e+06
7.14301e+06
7.08746e+06
6.92e+06
6.64326e+06
6.26163e+06
5.78109e+06
5.20922e+06
4.55509e+06
3.82897e+06
3.04246e+06
2.20808e+06
1.3394e+06
450320
436042
1.33711e+06
2.21687e+06
3.06146e+06
3.85755e+06
4.59261e+06
5.25505e+06
5.83442e+06
6.3216e+06
6.70892e+06
6.99026e+06
7.16121e+06
7.21906e+06
7.16293e+06
6.99369e+06
6.71402e+06
6.32832e+06
5.84268e+06
5.26471e+06
4.60362e+06
3.86977e+06
3.07487e+06
2.23159e+06
1.35365e+06
455096
436042
1.33711e+06
2.21687e+06
3.06146e+06
3.85755e+06
4.59261e+06
5.25505e+06
5.83442e+06
6.3216e+06
6.70892e+06
6.99026e+06
7.16121e+06
7.21906e+06
7.16293e+06
6.99369e+06
6.71402e+06
6.32832e+06
5.84268e+06
5.26471e+06
4.60362e+06
3.86977e+06
3.07487e+06
2.23159e+06
1.35365e+06
455096
431637
1.3232e+06
2.19367e+06
3.02934e+06
3.81703e+06
4.54433e+06
5.19977e+06
5.77302e+06
6.25505e+06
6.63827e+06
6.91664e+06
7.08577e+06
7.14301e+06
7.08746e+06
6.92e+06
6.64327e+06
6.26163e+06
5.78109e+06
5.20922e+06
4.55509e+06
3.82897e+06
3.04246e+06
2.20808e+06
1.3394e+06
450320
437135
1.34056e+06
2.22263e+06
3.06942e+06
3.8676e+06
4.60458e+06
5.26875e+06
5.84964e+06
6.33809e+06
6.72642e+06
7.0085e+06
7.1799e+06
7.23791e+06
7.18163e+06
7.01195e+06
6.73155e+06
6.34485e+06
5.85793e+06
5.27846e+06
4.61564e+06
3.87987e+06
3.0829e+06
2.23741e+06
1.35718e+06
456279
432393
1.32558e+06
2.19765e+06
3.03485e+06
3.82398e+06
4.55261e+06
5.20925e+06
5.78355e+06
6.26646e+06
6.65038e+06
6.92926e+06
7.0987e+06
7.15605e+06
7.1004e+06
6.93263e+06
6.65539e+06
6.27306e+06
5.79165e+06
5.21873e+06
4.56341e+06
3.83597e+06
3.04802e+06
2.21211e+06
1.34184e+06
451139
436041
1.33711e+06
2.21687e+06
3.06146e+06
3.85755e+06
4.59261e+06
5.25505e+06
5.83442e+06
6.3216e+06
6.70892e+06
6.99026e+06
7.16121e+06
7.21906e+06
7.16293e+06
6.99369e+06
6.71402e+06
6.32832e+06
5.84267e+06
5.26471e+06
4.60362e+06
3.86977e+06
3.07487e+06
2.23159e+06
1.35365e+06
455096
431637
1.3232e+06
2.19367e+06
3.02934e+06
3.81703e+06
4.54433e+06
5.19977e+06
5.77302e+06
6.25505e+06
6.63827e+06
6.91664e+06
7.08577e+06
7.14301e+06
7.08746e+06
6.92e+06
6.64326e+06
6.26163e+06
5.78109e+06
5.20922e+06
4.55509e+06
3.82897e+06
3.04246e+06
2.20808e+06
1.3394e+06
450320
431637
1.3232e+06
2.19367e+06
3.02934e+06
3.81703e+06
4.54433e+06
5.19977e+06
5.77302e+06
6.25505e+06
6.63827e+06
6.91664e+06
7.08577e+06
7.14301e+06
7.08746e+06
6.92e+06
6.64326e+06
6.26163e+06
5.78109e+06
5.20922e+06
4.55509e+06
3.82897e+06
3.04246e+06
2.20808e+06
1.3394e+06
450320
436042
1.33711e+06
2.21687e+06
3.06146e+06
3.85755e+06
4.59261e+06
5.25505e+06
5.83442e+06
6.3216e+06
6.70892e+06
6.99026e+06
7.16121e+06
7.21906e+06
7.16293e+06
6.99369e+06
6.71402e+06
6.32832e+06
5.84268e+06
5.26471e+06
4.60362e+06
3.86977e+06
3.07487e+06
2.23159e+06
1.35365e+06
455095
)
;

boundaryField
{
    outletCentralUnloaded
    {
        type            zeroGradient;
    }
    inletCentralUnloaded
    {
        type            zeroGradient;
    }
    outletFuelElement
    {
        type            zeroGradient;
    }
    inletFuelElement
    {
        type            zeroGradient;
    }
    defaultFaces
    {
        type            zeroGradient;
    }
    baffle_master
    {
        type            zeroGradient;
    }
    baffle_slave
    {
        type            zeroGradient;
    }
}


// ************************************************************************* //
