/*--------------------------------*- C++ -*----------------------------------*\
| =========                 |                                                 |
| \\      /  F ield         | OpenFOAM: The Open Source CFD Toolbox           |
|  \\    /   O peration     | Version:  2212                                  |
|   \\  /    A nd           | Website:  www.openfoam.com                      |
|    \\/     M anipulation  |                                                 |
\*---------------------------------------------------------------------------*/
FoamFile
{
    version     2.0;
    format      ascii;
    arch        "LSB;label=32;scalar=64";
    class       volScalarField;
    location    "44/fluidRegion";
    object      htc;
}
// * * * * * * * * * * * * * * * * * * * * * * * * * * * * * * * * * * * * * //

dimensions      [1 0 -3 -1 0 0 0];

internalField   nonuniform List<scalar> 
350
(
3101.31
3101.32
3101.34
3101.36
3101.41
3101.46
3101.51
3101.55
3101.56
3101.55
3101.52
3101.5
3101.49
3101.5
3101.52
3101.56
3101.59
3101.61
3101.61
3101.62
3101.62
3101.63
3101.66
3101.69
3106.89
3101.31
3101.32
3101.34
3101.36
3101.41
3101.46
3101.51
3101.55
3101.56
3101.55
3101.52
3101.5
3101.49
3101.5
3101.52
3101.56
3101.59
3101.61
3101.61
3101.62
3101.62
3101.63
3101.66
3101.69
3106.89
27205.5
27125.6
26940.5
26630.4
26196.6
25641.3
24967.5
24178.9
23280.9
22280.5
21187.2
20013.6
18774.9
17487.7
16168.5
14831.2
13486.1
12141.3
10806
9496.35
8240.41
7084.76
6100.44
5380.94
4941.95
27294.2
27213.9
27029.5
26719.3
26285.1
25728.8
25053.4
24262.5
23361.2
22356.4
21257.5
20076.9
18830.1
17534.2
16206.5
14861.6
13510.1
12159.9
10820
9505.88
8245.37
7085.25
6097.4
5376.7
4939.99
27191.5
27111.2
26926.1
26616
26182.3
25627.2
24953.7
24165.5
23268.1
22268.4
21176.1
20003.6
18766.1
17480.2
16162.3
14826.2
13482.1
12138
10803.4
9494.33
8239.01
7083.92
6100.02
5380.68
4941.81
27274.5
27194.3
27009.7
26699.5
26265.4
25709.3
25034.1
24243.7
23343.1
22339.3
21241.6
20062.6
18817.6
17523.7
16197.9
14854.7
13504.7
12155.8
10816.9
9503.79
8244.33
7085.24
6098.21
5377.8
4940.51
27274.5
27194.3
27009.7
26699.5
26265.4
25709.3
25034.1
24243.7
23343.1
22339.3
21241.6
20062.6
18817.6
17523.7
16197.9
14854.7
13504.7
12155.8
10816.9
9503.79
8244.33
7085.24
6098.21
5377.8
4940.51
27191.5
27111.2
26926.1
26616
26182.3
25627.2
24953.7
24165.6
23268.1
22268.4
21176.1
20003.6
18766.1
17480.2
16162.3
14826.2
13482.1
12138
10803.4
9494.33
8239
7083.91
6100.01
5380.67
4941.8
27294.2
27213.9
27029.5
26719.3
26285.1
25728.8
25053.4
24262.5
23361.2
22356.4
21257.5
20076.9
18830.1
17534.2
16206.5
14861.6
13510.1
12159.9
10820
9505.88
8245.37
7085.25
6097.4
5376.7
4939.99
27205.5
27125.6
26940.5
26630.4
26196.6
25641.3
24967.5
24178.9
23280.9
22280.5
21187.2
20013.6
18774.9
17487.7
16168.5
14831.2
13486.1
12141.3
10806
9496.35
8240.41
7084.76
6100.44
5380.94
4941.95
27274.5
27194.3
27009.7
26699.5
26265.4
25709.3
25034.1
24243.7
23343.1
22339.3
21241.6
20062.6
18817.6
17523.7
16197.9
14854.7
13504.7
12155.8
10816.9
9503.79
8244.33
7085.24
6098.21
5377.8
4940.51
27191.5
27111.2
26926.1
26616
26182.3
25627.2
24953.7
24165.5
23268.1
22268.4
21176.1
20003.6
18766.1
17480.2
16162.3
14826.2
13482.1
12138
10803.4
9494.33
8239.01
7083.92
6100.02
5380.68
4941.81
27191.5
27111.2
26926.1
26616
26182.3
25627.2
24953.7
24165.6
23268.1
22268.4
21176.1
20003.6
18766.1
17480.2
16162.3
14826.2
13482.1
12138
10803.4
9494.33
8239
7083.91
6100.02
5380.66
4941.8
27274.5
27194.3
27009.7
26699.5
26265.4
25709.3
25034.1
24243.7
23343.1
22339.3
21241.6
20062.6
18817.6
17523.7
16197.9
14854.7
13504.7
12155.8
10816.9
9503.79
8244.33
7085.24
6098.21
5377.8
4940.51
)
;

boundaryField
{
    outletCentralUnloaded
    {
        type            zeroGradient;
    }
    inletCentralUnloaded
    {
        type            zeroGradient;
    }
    outletFuelElement
    {
        type            zeroGradient;
    }
    inletFuelElement
    {
        type            zeroGradient;
    }
    defaultFaces
    {
        type            zeroGradient;
    }
    baffle_master
    {
        type            zeroGradient;
    }
    baffle_slave
    {
        type            zeroGradient;
    }
}


// ************************************************************************* //
