/*--------------------------------*- C++ -*----------------------------------*\
| =========                 |                                                 |
| \\      /  F ield         | OpenFOAM: The Open Source CFD Toolbox           |
|  \\    /   O peration     | Version:  2212                                  |
|   \\  /    A nd           | Website:  www.openfoam.com                      |
|    \\/     M anipulation  |                                                 |
\*---------------------------------------------------------------------------*/
FoamFile
{
    version     2.0;
    format      ascii;
    arch        "LSB;label=32;scalar=64";
    class       volTensorField;
    location    "44/fluidRegion";
    object      Kd;
}
// * * * * * * * * * * * * * * * * * * * * * * * * * * * * * * * * * * * * * //

dimensions      [1 -3 -1 0 0 0 0];

internalField   nonuniform List<tensor> 
350
(
(84.7402 0 0 0 84.7402 0 0 0 84.7402)
(84.7402 0 0 0 84.7402 0 0 0 84.7402)
(84.7401 0 0 0 84.7401 0 0 0 84.7401)
(84.7404 0 0 0 84.7404 0 0 0 84.7404)
(84.741 0 0 0 84.741 0 0 0 84.741)
(84.742 0 0 0 84.742 0 0 0 84.742)
(84.7428 0 0 0 84.7428 0 0 0 84.7428)
(84.7433 0 0 0 84.7433 0 0 0 84.7433)
(84.7432 0 0 0 84.7432 0 0 0 84.7432)
(84.7424 0 0 0 84.7424 0 0 0 84.7424)
(84.7414 0 0 0 84.7414 0 0 0 84.7414)
(84.7404 0 0 0 84.7404 0 0 0 84.7404)
(84.7397 0 0 0 84.7397 0 0 0 84.7397)
(84.7395 0 0 0 84.7395 0 0 0 84.7395)
(84.7397 0 0 0 84.7397 0 0 0 84.7397)
(84.7402 0 0 0 84.7402 0 0 0 84.7402)
(84.7405 0 0 0 84.7405 0 0 0 84.7405)
(84.7406 0 0 0 84.7406 0 0 0 84.7406)
(84.7404 0 0 0 84.7404 0 0 0 84.7404)
(84.7401 0 0 0 84.7401 0 0 0 84.7401)
(84.7398 0 0 0 84.7398 0 0 0 84.7398)
(84.7397 0 0 0 84.7397 0 0 0 84.7397)
(84.7398 0 0 0 84.7398 0 0 0 84.7398)
(84.7403 0 0 0 84.7403 0 0 0 84.7403)
(84.8731 0 0 0 84.8731 0 0 0 84.8731)
(84.7402 0 0 0 84.7402 0 0 0 84.7402)
(84.7402 0 0 0 84.7402 0 0 0 84.7402)
(84.7401 0 0 0 84.7401 0 0 0 84.7401)
(84.7404 0 0 0 84.7404 0 0 0 84.7404)
(84.741 0 0 0 84.741 0 0 0 84.741)
(84.742 0 0 0 84.742 0 0 0 84.742)
(84.7428 0 0 0 84.7428 0 0 0 84.7428)
(84.7433 0 0 0 84.7433 0 0 0 84.7433)
(84.7432 0 0 0 84.7432 0 0 0 84.7432)
(84.7424 0 0 0 84.7424 0 0 0 84.7424)
(84.7414 0 0 0 84.7414 0 0 0 84.7414)
(84.7404 0 0 0 84.7404 0 0 0 84.7404)
(84.7397 0 0 0 84.7397 0 0 0 84.7397)
(84.7395 0 0 0 84.7395 0 0 0 84.7395)
(84.7397 0 0 0 84.7397 0 0 0 84.7397)
(84.7402 0 0 0 84.7402 0 0 0 84.7402)
(84.7405 0 0 0 84.7405 0 0 0 84.7405)
(84.7406 0 0 0 84.7406 0 0 0 84.7406)
(84.7404 0 0 0 84.7404 0 0 0 84.7404)
(84.7401 0 0 0 84.7401 0 0 0 84.7401)
(84.7398 0 0 0 84.7398 0 0 0 84.7398)
(84.7397 0 0 0 84.7397 0 0 0 84.7397)
(84.7398 0 0 0 84.7398 0 0 0 84.7398)
(84.7403 0 0 0 84.7403 0 0 0 84.7403)
(84.8731 0 0 0 84.8731 0 0 0 84.8731)
(682.415 0 0 0 682.415 0 0 0 682.415)
(681.945 0 0 0 681.945 0 0 0 681.945)
(681.957 0 0 0 681.957 0 0 0 681.957)
(681.959 0 0 0 681.959 0 0 0 681.959)
(681.95 0 0 0 681.95 0 0 0 681.95)
(681.928 0 0 0 681.928 0 0 0 681.928)
(681.892 0 0 0 681.892 0 0 0 681.892)
(681.841 0 0 0 681.841 0 0 0 681.841)
(681.772 0 0 0 681.772 0 0 0 681.772)
(681.683 0 0 0 681.683 0 0 0 681.683)
(681.573 0 0 0 681.573 0 0 0 681.573)
(681.442 0 0 0 681.442 0 0 0 681.442)
(681.29 0 0 0 681.29 0 0 0 681.29)
(681.117 0 0 0 681.117 0 0 0 681.117)
(680.921 0 0 0 680.921 0 0 0 680.921)
(680.692 0 0 0 680.692 0 0 0 680.692)
(680.413 0 0 0 680.413 0 0 0 680.413)
(680.066 0 0 0 680.066 0 0 0 680.066)
(679.645 0 0 0 679.645 0 0 0 679.645)
(679.204 0 0 0 679.204 0 0 0 679.204)
(678.924 0 0 0 678.924 0 0 0 678.924)
(679.355 0 0 0 679.355 0 0 0 679.355)
(681.824 0 0 0 681.824 0 0 0 681.824)
(688.684 0 0 0 688.684 0 0 0 688.684)
(693.141 0 0 0 693.141 0 0 0 693.141)
(677.884 0 0 0 677.884 0 0 0 677.884)
(677.342 0 0 0 677.342 0 0 0 677.342)
(677.315 0 0 0 677.315 0 0 0 677.315)
(677.279 0 0 0 677.279 0 0 0 677.279)
(677.234 0 0 0 677.234 0 0 0 677.234)
(677.179 0 0 0 677.179 0 0 0 677.179)
(677.112 0 0 0 677.112 0 0 0 677.112)
(677.031 0 0 0 677.031 0 0 0 677.031)
(676.935 0 0 0 676.935 0 0 0 676.935)
(676.822 0 0 0 676.822 0 0 0 676.822)
(676.692 0 0 0 676.692 0 0 0 676.692)
(676.549 0 0 0 676.549 0 0 0 676.549)
(676.4 0 0 0 676.4 0 0 0 676.4)
(676.254 0 0 0 676.254 0 0 0 676.254)
(676.117 0 0 0 676.117 0 0 0 676.117)
(675.99 0 0 0 675.99 0 0 0 675.99)
(675.862 0 0 0 675.862 0 0 0 675.862)
(675.716 0 0 0 675.716 0 0 0 675.716)
(675.545 0 0 0 675.545 0 0 0 675.545)
(675.408 0 0 0 675.408 0 0 0 675.408)
(675.5 0 0 0 675.5 0 0 0 675.5)
(676.403 0 0 0 676.403 0 0 0 676.403)
(679.501 0 0 0 679.501 0 0 0 679.501)
(687.199 0 0 0 687.199 0 0 0 687.199)
(692.658 0 0 0 692.658 0 0 0 692.658)
(683.172 0 0 0 683.172 0 0 0 683.172)
(682.698 0 0 0 682.698 0 0 0 682.698)
(682.714 0 0 0 682.714 0 0 0 682.714)
(682.719 0 0 0 682.719 0 0 0 682.719)
(682.712 0 0 0 682.712 0 0 0 682.712)
(682.692 0 0 0 682.692 0 0 0 682.692)
(682.658 0 0 0 682.658 0 0 0 682.658)
(682.608 0 0 0 682.608 0 0 0 682.608)
(682.539 0 0 0 682.539 0 0 0 682.539)
(682.45 0 0 0 682.45 0 0 0 682.45)
(682.338 0 0 0 682.338 0 0 0 682.338)
(682.204 0 0 0 682.204 0 0 0 682.204)
(682.046 0 0 0 682.046 0 0 0 682.046)
(681.863 0 0 0 681.863 0 0 0 681.863)
(681.65 0 0 0 681.65 0 0 0 681.65)
(681.397 0 0 0 681.397 0 0 0 681.397)
(681.086 0 0 0 681.086 0 0 0 681.086)
(680.699 0 0 0 680.699 0 0 0 680.699)
(680.229 0 0 0 680.229 0 0 0 680.229)
(679.729 0 0 0 679.729 0 0 0 679.729)
(679.376 0 0 0 679.376 0 0 0 679.376)
(679.716 0 0 0 679.716 0 0 0 679.716)
(682.071 0 0 0 682.071 0 0 0 682.071)
(688.795 0 0 0 688.795 0 0 0 688.795)
(693.158 0 0 0 693.158 0 0 0 693.158)
(678.898 0 0 0 678.898 0 0 0 678.898)
(678.377 0 0 0 678.377 0 0 0 678.377)
(678.36 0 0 0 678.36 0 0 0 678.36)
(678.335 0 0 0 678.335 0 0 0 678.335)
(678.3 0 0 0 678.3 0 0 0 678.3)
(678.254 0 0 0 678.254 0 0 0 678.254)
(678.196 0 0 0 678.196 0 0 0 678.196)
(678.124 0 0 0 678.124 0 0 0 678.124)
(678.036 0 0 0 678.036 0 0 0 678.036)
(677.93 0 0 0 677.93 0 0 0 677.93)
(677.806 0 0 0 677.806 0 0 0 677.806)
(677.668 0 0 0 677.668 0 0 0 677.668)
(677.52 0 0 0 677.52 0 0 0 677.52)
(677.369 0 0 0 677.369 0 0 0 677.369)
(677.221 0 0 0 677.221 0 0 0 677.221)
(677.072 0 0 0 677.072 0 0 0 677.072)
(676.911 0 0 0 676.911 0 0 0 676.911)
(676.721 0 0 0 676.721 0 0 0 676.721)
(676.494 0 0 0 676.494 0 0 0 676.494)
(676.289 0 0 0 676.289 0 0 0 676.289)
(676.298 0 0 0 676.298 0 0 0 676.298)
(677.094 0 0 0 677.094 0 0 0 677.094)
(680.049 0 0 0 680.049 0 0 0 680.049)
(687.557 0 0 0 687.557 0 0 0 687.557)
(692.777 0 0 0 692.777 0 0 0 692.777)
(678.898 0 0 0 678.898 0 0 0 678.898)
(678.377 0 0 0 678.377 0 0 0 678.377)
(678.36 0 0 0 678.36 0 0 0 678.36)
(678.335 0 0 0 678.335 0 0 0 678.335)
(678.3 0 0 0 678.3 0 0 0 678.3)
(678.254 0 0 0 678.254 0 0 0 678.254)
(678.196 0 0 0 678.196 0 0 0 678.196)
(678.124 0 0 0 678.124 0 0 0 678.124)
(678.036 0 0 0 678.036 0 0 0 678.036)
(677.93 0 0 0 677.93 0 0 0 677.93)
(677.806 0 0 0 677.806 0 0 0 677.806)
(677.668 0 0 0 677.668 0 0 0 677.668)
(677.52 0 0 0 677.52 0 0 0 677.52)
(677.369 0 0 0 677.369 0 0 0 677.369)
(677.221 0 0 0 677.221 0 0 0 677.221)
(677.072 0 0 0 677.072 0 0 0 677.072)
(676.911 0 0 0 676.911 0 0 0 676.911)
(676.721 0 0 0 676.721 0 0 0 676.721)
(676.494 0 0 0 676.494 0 0 0 676.494)
(676.289 0 0 0 676.289 0 0 0 676.289)
(676.298 0 0 0 676.298 0 0 0 676.298)
(677.094 0 0 0 677.094 0 0 0 677.094)
(680.049 0 0 0 680.049 0 0 0 680.049)
(687.557 0 0 0 687.557 0 0 0 687.557)
(692.777 0 0 0 692.777 0 0 0 692.777)
(683.172 0 0 0 683.172 0 0 0 683.172)
(682.698 0 0 0 682.698 0 0 0 682.698)
(682.714 0 0 0 682.714 0 0 0 682.714)
(682.719 0 0 0 682.719 0 0 0 682.719)
(682.712 0 0 0 682.712 0 0 0 682.712)
(682.692 0 0 0 682.692 0 0 0 682.692)
(682.658 0 0 0 682.658 0 0 0 682.658)
(682.607 0 0 0 682.607 0 0 0 682.607)
(682.538 0 0 0 682.538 0 0 0 682.538)
(682.449 0 0 0 682.449 0 0 0 682.449)
(682.338 0 0 0 682.338 0 0 0 682.338)
(682.204 0 0 0 682.204 0 0 0 682.204)
(682.046 0 0 0 682.046 0 0 0 682.046)
(681.862 0 0 0 681.862 0 0 0 681.862)
(681.65 0 0 0 681.65 0 0 0 681.65)
(681.397 0 0 0 681.397 0 0 0 681.397)
(681.086 0 0 0 681.086 0 0 0 681.086)
(680.698 0 0 0 680.698 0 0 0 680.698)
(680.228 0 0 0 680.228 0 0 0 680.228)
(679.728 0 0 0 679.728 0 0 0 679.728)
(679.375 0 0 0 679.375 0 0 0 679.375)
(679.715 0 0 0 679.715 0 0 0 679.715)
(682.07 0 0 0 682.07 0 0 0 682.07)
(688.794 0 0 0 688.794 0 0 0 688.794)
(693.157 0 0 0 693.157 0 0 0 693.157)
(677.884 0 0 0 677.884 0 0 0 677.884)
(677.342 0 0 0 677.342 0 0 0 677.342)
(677.315 0 0 0 677.315 0 0 0 677.315)
(677.279 0 0 0 677.279 0 0 0 677.279)
(677.234 0 0 0 677.234 0 0 0 677.234)
(677.179 0 0 0 677.179 0 0 0 677.179)
(677.112 0 0 0 677.112 0 0 0 677.112)
(677.031 0 0 0 677.031 0 0 0 677.031)
(676.935 0 0 0 676.935 0 0 0 676.935)
(676.822 0 0 0 676.822 0 0 0 676.822)
(676.692 0 0 0 676.692 0 0 0 676.692)
(676.549 0 0 0 676.549 0 0 0 676.549)
(676.4 0 0 0 676.4 0 0 0 676.4)
(676.254 0 0 0 676.254 0 0 0 676.254)
(676.117 0 0 0 676.117 0 0 0 676.117)
(675.99 0 0 0 675.99 0 0 0 675.99)
(675.862 0 0 0 675.862 0 0 0 675.862)
(675.716 0 0 0 675.716 0 0 0 675.716)
(675.545 0 0 0 675.545 0 0 0 675.545)
(675.408 0 0 0 675.408 0 0 0 675.408)
(675.5 0 0 0 675.5 0 0 0 675.5)
(676.403 0 0 0 676.403 0 0 0 676.403)
(679.501 0 0 0 679.501 0 0 0 679.501)
(687.199 0 0 0 687.199 0 0 0 687.199)
(692.658 0 0 0 692.658 0 0 0 692.658)
(682.415 0 0 0 682.415 0 0 0 682.415)
(681.945 0 0 0 681.945 0 0 0 681.945)
(681.957 0 0 0 681.957 0 0 0 681.957)
(681.959 0 0 0 681.959 0 0 0 681.959)
(681.95 0 0 0 681.95 0 0 0 681.95)
(681.928 0 0 0 681.928 0 0 0 681.928)
(681.892 0 0 0 681.892 0 0 0 681.892)
(681.841 0 0 0 681.841 0 0 0 681.841)
(681.772 0 0 0 681.772 0 0 0 681.772)
(681.683 0 0 0 681.683 0 0 0 681.683)
(681.573 0 0 0 681.573 0 0 0 681.573)
(681.442 0 0 0 681.442 0 0 0 681.442)
(681.29 0 0 0 681.29 0 0 0 681.29)
(681.117 0 0 0 681.117 0 0 0 681.117)
(680.921 0 0 0 680.921 0 0 0 680.921)
(680.692 0 0 0 680.692 0 0 0 680.692)
(680.413 0 0 0 680.413 0 0 0 680.413)
(680.066 0 0 0 680.066 0 0 0 680.066)
(679.645 0 0 0 679.645 0 0 0 679.645)
(679.204 0 0 0 679.204 0 0 0 679.204)
(678.924 0 0 0 678.924 0 0 0 678.924)
(679.355 0 0 0 679.355 0 0 0 679.355)
(681.824 0 0 0 681.824 0 0 0 681.824)
(688.684 0 0 0 688.684 0 0 0 688.684)
(693.141 0 0 0 693.141 0 0 0 693.141)
(678.898 0 0 0 678.898 0 0 0 678.898)
(678.377 0 0 0 678.377 0 0 0 678.377)
(678.36 0 0 0 678.36 0 0 0 678.36)
(678.335 0 0 0 678.335 0 0 0 678.335)
(678.3 0 0 0 678.3 0 0 0 678.3)
(678.254 0 0 0 678.254 0 0 0 678.254)
(678.196 0 0 0 678.196 0 0 0 678.196)
(678.124 0 0 0 678.124 0 0 0 678.124)
(678.036 0 0 0 678.036 0 0 0 678.036)
(677.93 0 0 0 677.93 0 0 0 677.93)
(677.806 0 0 0 677.806 0 0 0 677.806)
(677.668 0 0 0 677.668 0 0 0 677.668)
(677.52 0 0 0 677.52 0 0 0 677.52)
(677.369 0 0 0 677.369 0 0 0 677.369)
(677.221 0 0 0 677.221 0 0 0 677.221)
(677.072 0 0 0 677.072 0 0 0 677.072)
(676.911 0 0 0 676.911 0 0 0 676.911)
(676.721 0 0 0 676.721 0 0 0 676.721)
(676.494 0 0 0 676.494 0 0 0 676.494)
(676.289 0 0 0 676.289 0 0 0 676.289)
(676.298 0 0 0 676.298 0 0 0 676.298)
(677.094 0 0 0 677.094 0 0 0 677.094)
(680.049 0 0 0 680.049 0 0 0 680.049)
(687.557 0 0 0 687.557 0 0 0 687.557)
(692.777 0 0 0 692.777 0 0 0 692.777)
(683.172 0 0 0 683.172 0 0 0 683.172)
(682.698 0 0 0 682.698 0 0 0 682.698)
(682.714 0 0 0 682.714 0 0 0 682.714)
(682.719 0 0 0 682.719 0 0 0 682.719)
(682.712 0 0 0 682.712 0 0 0 682.712)
(682.692 0 0 0 682.692 0 0 0 682.692)
(682.658 0 0 0 682.658 0 0 0 682.658)
(682.608 0 0 0 682.608 0 0 0 682.608)
(682.539 0 0 0 682.539 0 0 0 682.539)
(682.45 0 0 0 682.45 0 0 0 682.45)
(682.338 0 0 0 682.338 0 0 0 682.338)
(682.204 0 0 0 682.204 0 0 0 682.204)
(682.046 0 0 0 682.046 0 0 0 682.046)
(681.863 0 0 0 681.863 0 0 0 681.863)
(681.65 0 0 0 681.65 0 0 0 681.65)
(681.397 0 0 0 681.397 0 0 0 681.397)
(681.086 0 0 0 681.086 0 0 0 681.086)
(680.699 0 0 0 680.699 0 0 0 680.699)
(680.229 0 0 0 680.229 0 0 0 680.229)
(679.728 0 0 0 679.728 0 0 0 679.728)
(679.376 0 0 0 679.376 0 0 0 679.376)
(679.716 0 0 0 679.716 0 0 0 679.716)
(682.071 0 0 0 682.071 0 0 0 682.071)
(688.795 0 0 0 688.795 0 0 0 688.795)
(693.158 0 0 0 693.158 0 0 0 693.158)
(683.172 0 0 0 683.172 0 0 0 683.172)
(682.698 0 0 0 682.698 0 0 0 682.698)
(682.714 0 0 0 682.714 0 0 0 682.714)
(682.719 0 0 0 682.719 0 0 0 682.719)
(682.712 0 0 0 682.712 0 0 0 682.712)
(682.692 0 0 0 682.692 0 0 0 682.692)
(682.658 0 0 0 682.658 0 0 0 682.658)
(682.607 0 0 0 682.607 0 0 0 682.607)
(682.538 0 0 0 682.538 0 0 0 682.538)
(682.449 0 0 0 682.449 0 0 0 682.449)
(682.338 0 0 0 682.338 0 0 0 682.338)
(682.204 0 0 0 682.204 0 0 0 682.204)
(682.046 0 0 0 682.046 0 0 0 682.046)
(681.862 0 0 0 681.862 0 0 0 681.862)
(681.65 0 0 0 681.65 0 0 0 681.65)
(681.397 0 0 0 681.397 0 0 0 681.397)
(681.086 0 0 0 681.086 0 0 0 681.086)
(680.698 0 0 0 680.698 0 0 0 680.698)
(680.228 0 0 0 680.228 0 0 0 680.228)
(679.728 0 0 0 679.728 0 0 0 679.728)
(679.375 0 0 0 679.375 0 0 0 679.375)
(679.715 0 0 0 679.715 0 0 0 679.715)
(682.07 0 0 0 682.07 0 0 0 682.07)
(688.794 0 0 0 688.794 0 0 0 688.794)
(693.157 0 0 0 693.157 0 0 0 693.157)
(678.898 0 0 0 678.898 0 0 0 678.898)
(678.377 0 0 0 678.377 0 0 0 678.377)
(678.36 0 0 0 678.36 0 0 0 678.36)
(678.335 0 0 0 678.335 0 0 0 678.335)
(678.3 0 0 0 678.3 0 0 0 678.3)
(678.254 0 0 0 678.254 0 0 0 678.254)
(678.196 0 0 0 678.196 0 0 0 678.196)
(678.124 0 0 0 678.124 0 0 0 678.124)
(678.036 0 0 0 678.036 0 0 0 678.036)
(677.93 0 0 0 677.93 0 0 0 677.93)
(677.806 0 0 0 677.806 0 0 0 677.806)
(677.668 0 0 0 677.668 0 0 0 677.668)
(677.52 0 0 0 677.52 0 0 0 677.52)
(677.369 0 0 0 677.369 0 0 0 677.369)
(677.221 0 0 0 677.221 0 0 0 677.221)
(677.072 0 0 0 677.072 0 0 0 677.072)
(676.911 0 0 0 676.911 0 0 0 676.911)
(676.721 0 0 0 676.721 0 0 0 676.721)
(676.494 0 0 0 676.494 0 0 0 676.494)
(676.289 0 0 0 676.289 0 0 0 676.289)
(676.298 0 0 0 676.298 0 0 0 676.298)
(677.094 0 0 0 677.094 0 0 0 677.094)
(680.05 0 0 0 680.05 0 0 0 680.05)
(687.557 0 0 0 687.557 0 0 0 687.557)
(692.778 0 0 0 692.778 0 0 0 692.778)
)
;

boundaryField
{
    outletCentralUnloaded
    {
        type            zeroGradient;
    }
    inletCentralUnloaded
    {
        type            zeroGradient;
    }
    outletFuelElement
    {
        type            zeroGradient;
    }
    inletFuelElement
    {
        type            zeroGradient;
    }
    defaultFaces
    {
        type            zeroGradient;
    }
    baffle_master
    {
        type            zeroGradient;
    }
    baffle_slave
    {
        type            zeroGradient;
    }
}


// ************************************************************************* //
