/*--------------------------------*- C++ -*----------------------------------*\
| =========                 |                                                 |
| \\      /  F ield         | OpenFOAM: The Open Source CFD Toolbox           |
|  \\    /   O peration     | Version:  2212                                  |
|   \\  /    A nd           | Website:  www.openfoam.com                      |
|    \\/     M anipulation  |                                                 |
\*---------------------------------------------------------------------------*/
FoamFile
{
    version     2.0;
    format      ascii;
    arch        "LSB;label=32;scalar=64";
    class       volScalarField;
    location    "44/fluidRegion";
    object      p_rgh;
}
// * * * * * * * * * * * * * * * * * * * * * * * * * * * * * * * * * * * * * //

dimensions      [1 -1 -2 0 0 0 0];

internalField   nonuniform List<scalar> 
350
(
3.44743e+06
3.44772e+06
3.44802e+06
3.44831e+06
3.44861e+06
3.4489e+06
3.4492e+06
3.4495e+06
3.44979e+06
3.45009e+06
3.45038e+06
3.45068e+06
3.45097e+06
3.45127e+06
3.45157e+06
3.45186e+06
3.45216e+06
3.45245e+06
3.45275e+06
3.45305e+06
3.45334e+06
3.45364e+06
3.45393e+06
3.45422e+06
3.45451e+06
3.44743e+06
3.44772e+06
3.44802e+06
3.44831e+06
3.44861e+06
3.4489e+06
3.4492e+06
3.4495e+06
3.44979e+06
3.45009e+06
3.45038e+06
3.45068e+06
3.45097e+06
3.45127e+06
3.45157e+06
3.45186e+06
3.45216e+06
3.45245e+06
3.45275e+06
3.45305e+06
3.45334e+06
3.45364e+06
3.45393e+06
3.45422e+06
3.45451e+06
3.47376e+06
3.52544e+06
3.57651e+06
3.62668e+06
3.67564e+06
3.72309e+06
3.76879e+06
3.8125e+06
3.85401e+06
3.89312e+06
3.92968e+06
3.96355e+06
3.99463e+06
4.02283e+06
4.0481e+06
4.07044e+06
4.0899e+06
4.10656e+06
4.12057e+06
4.1321e+06
4.14135e+06
4.14854e+06
4.15392e+06
4.15777e+06
4.16044e+06
3.47376e+06
3.52544e+06
3.57651e+06
3.62668e+06
3.67564e+06
3.72309e+06
3.76879e+06
3.8125e+06
3.85401e+06
3.89312e+06
3.92968e+06
3.96355e+06
3.99463e+06
4.02283e+06
4.0481e+06
4.07044e+06
4.0899e+06
4.10656e+06
4.12057e+06
4.1321e+06
4.14135e+06
4.14854e+06
4.15392e+06
4.15777e+06
4.16044e+06
3.47376e+06
3.52544e+06
3.57651e+06
3.62668e+06
3.67564e+06
3.72309e+06
3.76879e+06
3.8125e+06
3.85401e+06
3.89312e+06
3.92968e+06
3.96355e+06
3.99463e+06
4.02283e+06
4.0481e+06
4.07044e+06
4.0899e+06
4.10656e+06
4.12057e+06
4.1321e+06
4.14135e+06
4.14854e+06
4.15392e+06
4.15777e+06
4.16044e+06
3.47376e+06
3.52544e+06
3.57651e+06
3.62668e+06
3.67564e+06
3.72309e+06
3.76879e+06
3.8125e+06
3.85401e+06
3.89312e+06
3.92968e+06
3.96355e+06
3.99463e+06
4.02283e+06
4.0481e+06
4.07044e+06
4.0899e+06
4.10656e+06
4.12057e+06
4.1321e+06
4.14135e+06
4.14854e+06
4.15392e+06
4.15777e+06
4.16044e+06
3.47376e+06
3.52544e+06
3.57651e+06
3.62668e+06
3.67564e+06
3.72309e+06
3.76879e+06
3.8125e+06
3.85401e+06
3.89312e+06
3.92968e+06
3.96355e+06
3.99463e+06
4.02283e+06
4.0481e+06
4.07044e+06
4.0899e+06
4.10656e+06
4.12057e+06
4.1321e+06
4.14135e+06
4.14854e+06
4.15392e+06
4.15777e+06
4.16044e+06
3.47376e+06
3.52544e+06
3.57651e+06
3.62668e+06
3.67564e+06
3.72309e+06
3.76879e+06
3.8125e+06
3.85401e+06
3.89312e+06
3.92968e+06
3.96355e+06
3.99463e+06
4.02283e+06
4.0481e+06
4.07044e+06
4.0899e+06
4.10656e+06
4.12057e+06
4.1321e+06
4.14135e+06
4.14854e+06
4.15392e+06
4.15777e+06
4.16044e+06
3.47376e+06
3.52544e+06
3.57651e+06
3.62668e+06
3.67564e+06
3.72309e+06
3.76879e+06
3.8125e+06
3.85401e+06
3.89312e+06
3.92968e+06
3.96355e+06
3.99463e+06
4.02283e+06
4.0481e+06
4.07044e+06
4.0899e+06
4.10656e+06
4.12057e+06
4.1321e+06
4.14135e+06
4.14854e+06
4.15392e+06
4.15777e+06
4.16044e+06
3.47376e+06
3.52544e+06
3.57651e+06
3.62668e+06
3.67564e+06
3.72309e+06
3.76879e+06
3.8125e+06
3.85401e+06
3.89312e+06
3.92968e+06
3.96355e+06
3.99463e+06
4.02283e+06
4.0481e+06
4.07044e+06
4.0899e+06
4.10656e+06
4.12057e+06
4.1321e+06
4.14135e+06
4.14854e+06
4.15392e+06
4.15777e+06
4.16044e+06
3.47376e+06
3.52544e+06
3.57651e+06
3.62668e+06
3.67564e+06
3.72309e+06
3.76879e+06
3.8125e+06
3.85401e+06
3.89312e+06
3.92968e+06
3.96355e+06
3.99463e+06
4.02283e+06
4.0481e+06
4.07044e+06
4.0899e+06
4.10656e+06
4.12057e+06
4.1321e+06
4.14135e+06
4.14854e+06
4.15392e+06
4.15777e+06
4.16044e+06
3.47376e+06
3.52544e+06
3.57651e+06
3.62668e+06
3.67564e+06
3.72309e+06
3.76879e+06
3.8125e+06
3.85401e+06
3.89312e+06
3.92968e+06
3.96355e+06
3.99463e+06
4.02283e+06
4.0481e+06
4.07044e+06
4.0899e+06
4.10656e+06
4.12057e+06
4.1321e+06
4.14135e+06
4.14854e+06
4.15392e+06
4.15777e+06
4.16044e+06
3.47376e+06
3.52544e+06
3.57651e+06
3.62668e+06
3.67564e+06
3.72309e+06
3.76879e+06
3.8125e+06
3.85401e+06
3.89312e+06
3.92968e+06
3.96355e+06
3.99463e+06
4.02283e+06
4.0481e+06
4.07044e+06
4.0899e+06
4.10656e+06
4.12057e+06
4.1321e+06
4.14135e+06
4.14854e+06
4.15392e+06
4.15777e+06
4.16044e+06
3.47376e+06
3.52544e+06
3.57651e+06
3.62668e+06
3.67564e+06
3.72309e+06
3.76879e+06
3.8125e+06
3.85401e+06
3.89312e+06
3.92968e+06
3.96355e+06
3.99463e+06
4.02283e+06
4.0481e+06
4.07044e+06
4.0899e+06
4.10656e+06
4.12057e+06
4.1321e+06
4.14135e+06
4.14854e+06
4.15392e+06
4.15777e+06
4.16044e+06
)
;

boundaryField
{
    outletCentralUnloaded
    {
        type            fixedValue;
        value           uniform 3.44728e+06;
    }
    inletCentralUnloaded
    {
        type            zeroGradient;
    }
    outletFuelElement
    {
        type            fixedValue;
        value           uniform 3.44728e+06;
    }
    inletFuelElement
    {
        type            zeroGradient;
    }
    defaultFaces
    {
        type            zeroGradient;
    }
    baffle_master
    {
        type            zeroGradient;
    }
    baffle_slave
    {
        type            zeroGradient;
    }
}


// ************************************************************************* //
