/*--------------------------------*- C++ -*----------------------------------*\
| =========                 |                                                 |
| \\      /  F ield         | OpenFOAM: The Open Source CFD Toolbox           |
|  \\    /   O peration     | Version:  2212                                  |
|   \\  /    A nd           | Website:  www.openfoam.com                      |
|    \\/     M anipulation  |                                                 |
\*---------------------------------------------------------------------------*/
FoamFile
{
    version     2.0;
    format      ascii;
    arch        "LSB;label=32;scalar=64";
    class       volScalarField;
    location    "44/fluidRegion";
    object      T;
}
// * * * * * * * * * * * * * * * * * * * * * * * * * * * * * * * * * * * * * //

dimensions      [0 0 0 1 0 0 0];

internalField   nonuniform List<scalar> 
350
(
83.289
83.2894
83.2898
83.2903
83.2908
83.2913
83.2918
83.2923
83.2928
83.2932
83.2937
83.2942
83.2947
83.2951
83.2956
83.296
83.2964
83.2969
83.2973
83.2977
83.2981
83.2986
83.2991
83.2995
83.3
83.289
83.2894
83.2898
83.2903
83.2908
83.2913
83.2918
83.2923
83.2928
83.2932
83.2937
83.2942
83.2947
83.2951
83.2956
83.296
83.2964
83.2969
83.2973
83.2977
83.2981
83.2986
83.2991
83.2995
83.3
1819.43
1813.48
1795.13
1764.58
1722.2
1668.46
1603.99
1529.54
1445.98
1354.33
1255.73
1151.52
1043.2
932.537
821.479
712.124
606.577
506.797
414.493
331.102
257.882
196.019
146.736
111.197
90.0981
1847.56
1841.84
1823.49
1792.73
1749.91
1695.54
1630.23
1554.74
1469.97
1376.92
1276.77
1170.84
1060.68
948.042
834.93
723.491
615.9
514.188
420.123
335.183
260.65
197.724
147.636
111.56
90.1752
1814.85
1808.9
1790.56
1760.07
1717.77
1664.15
1599.83
1525.56
1442.21
1350.8
1252.46
1148.52
1040.51
930.158
819.427
710.401
605.172
505.691
413.657
330.501
257.478
195.772
146.606
111.144
90.0857
1841.24
1835.45
1817.08
1786.36
1743.63
1689.38
1624.25
1548.99
1464.49
1371.75
1271.95
1166.41
1056.66
944.473
831.829
720.867
613.746
512.478
418.819
334.237
260.008
197.328
147.427
111.476
90.1575
1841.24
1835.45
1817.08
1786.36
1743.63
1689.38
1624.25
1548.99
1464.49
1371.75
1271.95
1166.41
1056.66
944.473
831.829
720.867
613.746
512.478
418.819
334.237
260.008
197.328
147.427
111.476
90.1575
1814.85
1808.9
1790.56
1760.07
1717.77
1664.15
1599.83
1525.56
1442.22
1350.8
1252.46
1148.52
1040.51
930.159
819.429
710.402
605.173
505.692
413.657
330.501
257.479
195.773
146.606
111.144
90.0857
1847.56
1841.84
1823.49
1792.73
1749.91
1695.54
1630.23
1554.74
1469.97
1376.92
1276.77
1170.84
1060.68
948.042
834.93
723.491
615.9
514.188
420.123
335.183
260.651
197.724
147.636
111.56
90.1752
1819.42
1813.48
1795.13
1764.58
1722.2
1668.46
1603.99
1529.54
1445.98
1354.33
1255.73
1151.52
1043.2
932.537
821.479
712.124
606.577
506.797
414.493
331.102
257.882
196.019
146.736
111.197
90.0981
1841.24
1835.45
1817.08
1786.36
1743.63
1689.38
1624.25
1548.99
1464.49
1371.75
1271.95
1166.41
1056.66
944.473
831.829
720.867
613.746
512.478
418.819
334.237
260.008
197.328
147.427
111.476
90.1575
1814.85
1808.9
1790.56
1760.07
1717.77
1664.15
1599.83
1525.56
1442.21
1350.8
1252.46
1148.52
1040.51
930.158
819.427
710.401
605.172
505.691
413.657
330.501
257.478
195.772
146.606
111.144
90.0858
1814.85
1808.9
1790.56
1760.07
1717.77
1664.15
1599.83
1525.56
1442.22
1350.8
1252.46
1148.52
1040.51
930.159
819.429
710.402
605.173
505.692
413.657
330.501
257.479
195.773
146.606
111.144
90.0857
1841.24
1835.45
1817.08
1786.36
1743.63
1689.38
1624.25
1548.99
1464.49
1371.75
1271.95
1166.41
1056.66
944.473
831.829
720.867
613.746
512.478
418.819
334.237
260.008
197.328
147.427
111.476
90.1575
)
;

boundaryField
{
    outletCentralUnloaded
    {
        type            zeroGradient;
    }
    inletCentralUnloaded
    {
        type            fixedValue;
        value           uniform 83.3;
    }
    outletFuelElement
    {
        type            zeroGradient;
    }
    inletFuelElement
    {
        type            fixedValue;
        value           uniform 83.3;
    }
    defaultFaces
    {
        type            zeroGradient;
    }
    baffle_master
    {
        type            zeroGradient;
    }
    baffle_slave
    {
        type            zeroGradient;
    }
}


// ************************************************************************* //
