/*--------------------------------*- C++ -*----------------------------------*\
| =========                 |                                                 |
| \\      /  F ield         | OpenFOAM: The Open Source CFD Toolbox           |
|  \\    /   O peration     | Version:  2212                                  |
|   \\  /    A nd           | Website:  www.openfoam.com                      |
|    \\/     M anipulation  |                                                 |
\*---------------------------------------------------------------------------*/
FoamFile
{
    version     2.0;
    format      ascii;
    arch        "LSB;label=32;scalar=64";
    class       volScalarField;
    location    "44/fluidRegion";
    object      Tcav.nuclearFuelPin;
}
// * * * * * * * * * * * * * * * * * * * * * * * * * * * * * * * * * * * * * //

dimensions      [0 0 0 1 0 0 0];

internalField   nonuniform List<scalar> 
350
(
0
0
0
0
0
0
0
0
0
0
0
0
0
0
0
0
0
0
0
0
0
0
0
0
0
0
0
0
0
0
0
0
0
0
0
0
0
0
0
0
0
0
0
0
0
0
0
0
0
0
1840.8
1879.15
1904.55
1917
1916.62
1903.69
1878.63
1842.01
1794.54
1737.07
1670.57
1596.14
1515.01
1428.52
1338.08
1245.18
1151.2
1057.19
963.556
869.459
771.987
664.857
537.376
377.567
187.101
1869.12
1908.09
1933.88
1946.5
1946.06
1932.84
1907.28
1869.95
1821.57
1763.01
1695.26
1619.43
1536.76
1448.6
1356.43
1261.72
1165.92
1070.14
974.838
879.215
780.357
671.897
542.928
381.173
188.32
1836.2
1874.47
1899.82
1912.27
1911.92
1899.05
1874.09
1837.6
1790.29
1733
1666.71
1592.52
1511.64
1425.41
1335.25
1242.64
1148.94
1055.21
961.836
867.979
770.725
663.806
536.559
377.041
186.915
1862.75
1901.56
1927.25
1939.81
1939.37
1926.21
1900.75
1863.57
1815.39
1757.07
1689.6
1614.08
1531.75
1443.98
1352.2
1257.91
1162.52
1067.15
972.229
876.959
778.42
670.267
541.641
380.336
188.038
1862.75
1901.56
1927.25
1939.81
1939.37
1926.21
1900.75
1863.57
1815.39
1757.07
1689.6
1614.08
1531.75
1443.98
1352.2
1257.91
1162.52
1067.15
972.229
876.959
778.42
670.267
541.641
380.336
188.038
1836.2
1874.47
1899.83
1912.27
1911.92
1899.05
1874.09
1837.6
1790.29
1733
1666.71
1592.52
1511.64
1425.41
1335.25
1242.64
1148.94
1055.21
961.837
867.979
770.726
663.807
536.56
377.041
186.915
1869.12
1908.09
1933.88
1946.5
1946.06
1932.84
1907.28
1869.95
1821.57
1763.01
1695.26
1619.43
1536.76
1448.6
1356.43
1261.72
1165.92
1070.14
974.838
879.215
780.357
671.897
542.928
381.173
188.32
1840.8
1879.15
1904.55
1917
1916.62
1903.69
1878.63
1842.01
1794.54
1737.07
1670.57
1596.14
1515.01
1428.52
1338.08
1245.19
1151.2
1057.19
963.556
869.459
771.987
664.857
537.376
377.567
187.101
1862.75
1901.56
1927.25
1939.81
1939.37
1926.21
1900.75
1863.57
1815.39
1757.07
1689.6
1614.08
1531.75
1443.98
1352.2
1257.91
1162.52
1067.15
972.229
876.959
778.42
670.267
541.641
380.336
188.038
1836.2
1874.47
1899.82
1912.27
1911.92
1899.05
1874.09
1837.6
1790.29
1733
1666.71
1592.52
1511.64
1425.41
1335.25
1242.64
1148.94
1055.21
961.836
867.979
770.725
663.806
536.559
377.041
186.915
1836.2
1874.47
1899.83
1912.27
1911.92
1899.05
1874.09
1837.6
1790.29
1733
1666.71
1592.52
1511.64
1425.41
1335.25
1242.64
1148.94
1055.21
961.837
867.979
770.726
663.807
536.56
377.041
186.915
1862.75
1901.56
1927.25
1939.81
1939.37
1926.21
1900.75
1863.57
1815.39
1757.07
1689.6
1614.08
1531.75
1443.98
1352.2
1257.91
1162.52
1067.15
972.229
876.959
778.42
670.267
541.641
380.336
188.038
)
;

boundaryField
{
    outletCentralUnloaded
    {
        type            zeroGradient;
    }
    inletCentralUnloaded
    {
        type            zeroGradient;
    }
    outletFuelElement
    {
        type            zeroGradient;
    }
    inletFuelElement
    {
        type            zeroGradient;
    }
    defaultFaces
    {
        type            zeroGradient;
    }
    baffle_master
    {
        type            zeroGradient;
    }
    baffle_slave
    {
        type            zeroGradient;
    }
}


// ************************************************************************* //
