/*--------------------------------*- C++ -*----------------------------------*\
| =========                 |                                                 |
| \\      /  F ield         | OpenFOAM: The Open Source CFD Toolbox           |
|  \\    /   O peration     | Version:  2212                                  |
|   \\  /    A nd           | Website:  www.openfoam.com                      |
|    \\/     M anipulation  |                                                 |
\*---------------------------------------------------------------------------*/
FoamFile
{
    version     2.0;
    format      ascii;
    arch        "LSB;label=32;scalar=64";
    class       volScalarField;
    location    "44/fluidRegion";
    object      Tci.nuclearFuelPin;
}
// * * * * * * * * * * * * * * * * * * * * * * * * * * * * * * * * * * * * * //

dimensions      [0 0 0 1 0 0 0];

internalField   nonuniform List<scalar> 
350
(
0
0
0
0
0
0
0
0
0
0
0
0
0
0
0
0
0
0
0
0
0
0
0
0
0
0
0
0
0
0
0
0
0
0
0
0
0
0
0
0
0
0
0
0
0
0
0
0
0
0
1846.67
1897.14
1934.38
1958.19
1968.52
1965.48
1949.33
1920.5
1879.59
1827.33
1764.61
1692.49
1612.13
1524.88
1432.17
1335.51
1236.34
1135.8
1034.38
931.393
824.048
706.224
567.398
395.778
193.223
1875.06
1926.29
1964.05
1988.16
1998.55
1995.33
1978.79
1949.34
1907.59
1854.3
1790.38
1716.87
1634.99
1546.07
1451.59
1353.08
1252.03
1149.65
1046.48
941.857
833.013
713.737
573.294
399.592
194.512
1842.06
1892.43
1929.6
1953.38
1963.72
1960.72
1944.66
1915.95
1875.18
1823.09
1760.58
1688.68
1608.58
1521.6
1429.17
1332.8
1233.92
1133.67
1032.53
929.799
822.691
705.098
566.526
395.219
193.027
1868.67
1919.71
1957.34
1981.36
1991.73
1988.54
1972.07
1942.75
1901.19
1848.12
1784.47
1711.27
1629.73
1541.19
1447.11
1349.03
1248.41
1146.45
1043.68
939.438
830.94
711.998
571.928
398.708
194.214
1868.67
1919.71
1957.34
1981.36
1991.73
1988.54
1972.07
1942.75
1901.19
1848.12
1784.47
1711.27
1629.73
1541.19
1447.11
1349.03
1248.41
1146.45
1043.68
939.438
830.94
711.998
571.928
398.708
194.214
1842.06
1892.43
1929.6
1953.38
1963.72
1960.73
1944.66
1915.95
1875.18
1823.1
1760.58
1688.68
1608.58
1521.6
1429.17
1332.8
1233.92
1133.67
1032.53
929.8
822.692
705.099
566.527
395.219
193.027
1875.06
1926.29
1964.05
1988.16
1998.55
1995.33
1978.79
1949.34
1907.59
1854.3
1790.38
1716.87
1634.99
1546.07
1451.59
1353.08
1252.03
1149.65
1046.48
941.857
833.013
713.737
573.294
399.592
194.512
1846.67
1897.14
1934.38
1958.19
1968.52
1965.48
1949.33
1920.5
1879.59
1827.33
1764.61
1692.49
1612.13
1524.88
1432.17
1335.51
1236.34
1135.8
1034.38
931.393
824.048
706.224
567.398
395.778
193.223
1868.67
1919.71
1957.34
1981.36
1991.73
1988.54
1972.07
1942.75
1901.19
1848.12
1784.47
1711.27
1629.73
1541.19
1447.11
1349.03
1248.41
1146.45
1043.68
939.438
830.94
711.999
571.928
398.708
194.214
1842.06
1892.43
1929.6
1953.38
1963.72
1960.72
1944.66
1915.95
1875.18
1823.09
1760.58
1688.68
1608.58
1521.6
1429.17
1332.8
1233.92
1133.67
1032.53
929.799
822.691
705.098
566.526
395.219
193.027
1842.06
1892.43
1929.6
1953.38
1963.72
1960.73
1944.66
1915.95
1875.18
1823.1
1760.58
1688.68
1608.58
1521.6
1429.17
1332.8
1233.92
1133.67
1032.53
929.8
822.692
705.099
566.527
395.219
193.027
1868.67
1919.71
1957.34
1981.36
1991.73
1988.54
1972.07
1942.75
1901.19
1848.12
1784.47
1711.27
1629.73
1541.19
1447.11
1349.03
1248.41
1146.45
1043.68
939.438
830.94
711.998
571.928
398.707
194.214
)
;

boundaryField
{
    outletCentralUnloaded
    {
        type            zeroGradient;
    }
    inletCentralUnloaded
    {
        type            zeroGradient;
    }
    outletFuelElement
    {
        type            zeroGradient;
    }
    inletFuelElement
    {
        type            zeroGradient;
    }
    defaultFaces
    {
        type            zeroGradient;
    }
    baffle_master
    {
        type            zeroGradient;
    }
    baffle_slave
    {
        type            zeroGradient;
    }
}


// ************************************************************************* //
