/*--------------------------------*- C++ -*----------------------------------*\
| =========                 |                                                 |
| \\      /  F ield         | OpenFOAM: The Open Source CFD Toolbox           |
|  \\    /   O peration     | Version:  2212                                  |
|   \\  /    A nd           | Website:  www.openfoam.com                      |
|    \\/     M anipulation  |                                                 |
\*---------------------------------------------------------------------------*/
FoamFile
{
    version     2.0;
    format      ascii;
    arch        "LSB;label=32;scalar=64";
    class       volScalarField;
    location    "44/fluidRegion";
    object      Tco.nuclearFuelPin;
}
// * * * * * * * * * * * * * * * * * * * * * * * * * * * * * * * * * * * * * //

dimensions      [0 0 0 1 0 0 0];

internalField   nonuniform List<scalar> 
350
(
0
0
0
0
0
0
0
0
0
0
0
0
0
0
0
0
0
0
0
0
0
0
0
0
0
0
0
0
0
0
0
0
0
0
0
0
0
0
0
0
0
0
0
0
0
0
0
0
0
0
1835.32
1862.35
1876.7
1878.55
1868.17
1846.01
1812.63
1768.74
1715.15
1652.82
1582.78
1506.21
1424.35
1338.56
1250.25
1160.87
1071.73
983.818
897.439
811.645
723.389
626.241
509.35
360.567
181.386
1863.58
1891.1
1905.72
1907.61
1897.05
1874.5
1840.53
1795.84
1741.28
1677.8
1606.47
1528.46
1445.06
1357.62
1267.59
1176.44
1085.54
995.929
907.965
820.739
731.202
632.839
514.582
363.979
182.54
1830.73
1857.7
1872.03
1873.88
1863.56
1841.47
1808.21
1764.46
1711.04
1648.9
1579.08
1502.74
1421.14
1335.61
1247.58
1158.48
1069.61
981.972
895.84
810.27
722.215
625.261
508.584
360.072
181.21
1857.22
1884.62
1899.16
1901.02
1890.5
1868.02
1834.17
1789.65
1735.3
1672.07
1601.03
1523.35
1440.3
1353.23
1263.59
1172.85
1082.35
993.129
905.53
818.635
729.394
631.311
513.369
363.187
182.273
1857.22
1884.62
1899.16
1901.02
1890.5
1868.02
1834.17
1789.65
1735.3
1672.07
1601.03
1523.35
1440.3
1353.23
1263.59
1172.85
1082.35
993.129
905.53
818.635
729.394
631.311
513.369
363.187
182.273
1830.73
1857.7
1872.03
1873.89
1863.56
1841.48
1808.21
1764.46
1711.04
1648.9
1579.08
1502.75
1421.14
1335.62
1247.58
1158.48
1069.61
981.973
895.841
810.271
722.216
625.262
508.585
360.072
181.21
1863.58
1891.1
1905.72
1907.61
1897.05
1874.5
1840.53
1795.84
1741.28
1677.8
1606.47
1528.46
1445.06
1357.62
1267.59
1176.44
1085.54
995.929
907.965
820.739
731.202
632.839
514.582
363.979
182.54
1835.32
1862.35
1876.7
1878.55
1868.17
1846.01
1812.63
1768.74
1715.15
1652.82
1582.78
1506.21
1424.35
1338.56
1250.25
1160.87
1071.73
983.818
897.439
811.645
723.389
626.241
509.35
360.567
181.386
1857.22
1884.62
1899.16
1901.02
1890.5
1868.02
1834.17
1789.65
1735.3
1672.07
1601.03
1523.35
1440.3
1353.23
1263.59
1172.85
1082.35
993.129
905.53
818.635
729.394
631.311
513.369
363.187
182.273
1830.73
1857.7
1872.03
1873.88
1863.56
1841.47
1808.21
1764.46
1711.04
1648.9
1579.08
1502.74
1421.14
1335.61
1247.58
1158.48
1069.61
981.972
895.84
810.27
722.215
625.261
508.584
360.072
181.21
1830.73
1857.7
1872.03
1873.89
1863.56
1841.48
1808.21
1764.46
1711.04
1648.9
1579.08
1502.75
1421.14
1335.62
1247.58
1158.48
1069.61
981.973
895.841
810.271
722.216
625.262
508.585
360.072
181.21
1857.22
1884.62
1899.16
1901.02
1890.5
1868.02
1834.17
1789.65
1735.3
1672.07
1601.03
1523.35
1440.3
1353.23
1263.59
1172.85
1082.35
993.129
905.53
818.635
729.394
631.311
513.369
363.186
182.273
)
;

boundaryField
{
    outletCentralUnloaded
    {
        type            zeroGradient;
    }
    inletCentralUnloaded
    {
        type            zeroGradient;
    }
    outletFuelElement
    {
        type            zeroGradient;
    }
    inletFuelElement
    {
        type            zeroGradient;
    }
    defaultFaces
    {
        type            zeroGradient;
    }
    baffle_master
    {
        type            zeroGradient;
    }
    baffle_slave
    {
        type            zeroGradient;
    }
}


// ************************************************************************* //
