/*--------------------------------*- C++ -*----------------------------------*\
| =========                 |                                                 |
| \\      /  F ield         | OpenFOAM: The Open Source CFD Toolbox           |
|  \\    /   O peration     | Version:  2212                                  |
|   \\  /    A nd           | Website:  www.openfoam.com                      |
|    \\/     M anipulation  |                                                 |
\*---------------------------------------------------------------------------*/
FoamFile
{
    version     2.0;
    format      ascii;
    arch        "LSB;label=32;scalar=64";
    class       volScalarField;
    location    "44/fluidRegion";
    object      Tfav.nuclearFuelPin;
}
// * * * * * * * * * * * * * * * * * * * * * * * * * * * * * * * * * * * * * //

dimensions      [0 0 0 1 0 0 0];

internalField   nonuniform List<scalar> 
350
(
0
0
0
0
0
0
0
0
0
0
0
0
0
0
0
0
0
0
0
0
0
0
0
0
0
0
0
0
0
0
0
0
0
0
0
0
0
0
0
0
0
0
0
0
0
0
0
0
0
0
2202.61
2989.3
3745.35
4459.24
5120.03
5717.59
6242.7
6687.27
7044.43
7308.65
7475.83
7543.4
7510.34
7377.25
7146.28
6821.13
6406.84
5909.52
5335.89
4692.76
3985.83
3218.55
2390.75
1501.84
565.154
2234.89
3030.78
3795.6
4517.69
5186
5790.27
6321.19
6770.58
7131.47
7398.29
7566.9
7634.7
7600.67
7465.39
7231.08
6901.47
6481.71
5978
5397.21
4746.28
4030.99
3254.82
2417.5
1518.3
570.679
2197.37
2982.62
3737.29
4449.89
5109.51
5706.01
6230.22
6674.04
7030.62
7294.43
7461.4
7528.94
7496.05
7363.3
7132.87
6808.43
6395.01
5898.69
5326.2
4684.31
3978.71
3212.85
2386.55
1499.27
564.282
2227.61
3021.36
3784.15
4504.34
5170.91
5773.62
6303.19
6751.45
7111.48
7377.69
7545.96
7613.7
7579.88
7445.1
7211.55
6882.97
6464.46
5962.22
5383.09
4733.95
4020.58
3246.46
2411.33
1514.5
569.406
2227.61
3021.36
3784.15
4504.34
5170.91
5773.62
6303.19
6751.45
7111.48
7377.69
7545.96
7613.69
7579.88
7445.1
7211.55
6882.97
6464.46
5962.22
5383.09
4733.95
4020.58
3246.46
2411.33
1514.5
569.406
2197.37
2982.62
3737.3
4449.9
5109.51
5706.01
6230.22
6674.04
7030.62
7294.44
7461.4
7528.94
7496.05
7363.3
7132.87
6808.43
6395.01
5898.69
5326.2
4684.31
3978.71
3212.85
2386.55
1499.27
564.283
2234.89
3030.78
3795.6
4517.69
5186
5790.27
6321.19
6770.58
7131.47
7398.29
7566.9
7634.7
7600.66
7465.39
7231.08
6901.47
6481.71
5978
5397.21
4746.28
4030.99
3254.82
2417.5
1518.3
570.679
2202.61
2989.3
3745.35
4459.24
5120.03
5717.59
6242.7
6687.27
7044.43
7308.65
7475.83
7543.4
7510.34
7377.25
7146.28
6821.13
6406.84
5909.52
5335.89
4692.76
3985.83
3218.55
2390.75
1501.84
565.154
2227.61
3021.37
3784.15
4504.34
5170.91
5773.62
6303.19
6751.45
7111.48
7377.69
7545.96
7613.7
7579.88
7445.1
7211.55
6882.97
6464.46
5962.22
5383.09
4733.95
4020.58
3246.46
2411.33
1514.5
569.406
2197.37
2982.62
3737.29
4449.89
5109.51
5706.01
6230.22
6674.04
7030.62
7294.43
7461.4
7528.94
7496.04
7363.3
7132.87
6808.43
6395.01
5898.69
5326.2
4684.31
3978.71
3212.85
2386.55
1499.27
564.282
2197.37
2982.62
3737.29
4449.89
5109.51
5706.01
6230.22
6674.04
7030.62
7294.44
7461.4
7528.94
7496.05
7363.3
7132.87
6808.43
6395.01
5898.69
5326.2
4684.31
3978.71
3212.85
2386.55
1499.27
564.282
2227.61
3021.36
3784.15
4504.34
5170.91
5773.62
6303.19
6751.45
7111.48
7377.69
7545.96
7613.69
7579.88
7445.1
7211.55
6882.97
6464.46
5962.22
5383.09
4733.95
4020.58
3246.46
2411.33
1514.5
569.406
)
;

boundaryField
{
    outletCentralUnloaded
    {
        type            zeroGradient;
    }
    inletCentralUnloaded
    {
        type            zeroGradient;
    }
    outletFuelElement
    {
        type            zeroGradient;
    }
    inletFuelElement
    {
        type            zeroGradient;
    }
    defaultFaces
    {
        type            zeroGradient;
    }
    baffle_master
    {
        type            zeroGradient;
    }
    baffle_slave
    {
        type            zeroGradient;
    }
}


// ************************************************************************* //
