/*--------------------------------*- C++ -*----------------------------------*\
| =========                 |                                                 |
| \\      /  F ield         | OpenFOAM: The Open Source CFD Toolbox           |
|  \\    /   O peration     | Version:  2212                                  |
|   \\  /    A nd           | Website:  www.openfoam.com                      |
|    \\/     M anipulation  |                                                 |
\*---------------------------------------------------------------------------*/
FoamFile
{
    version     2.0;
    format      ascii;
    arch        "LSB;label=32;scalar=64";
    class       volScalarField;
    location    "44/fluidRegion";
    object      Tfo.nuclearFuelPin;
}
// * * * * * * * * * * * * * * * * * * * * * * * * * * * * * * * * * * * * * //

dimensions      [0 0 0 1 0 0 0];

internalField   nonuniform List<scalar> 
350
(
0
0
0
0
0
0
0
0
0
0
0
0
0
0
0
0
0
0
0
0
0
0
0
0
0
0
0
0
0
0
0
0
0
0
0
0
0
0
0
0
0
0
0
0
0
0
0
0
0
0
2010.96
2400.19
2768.18
3109.51
3419.14
3692.44
3925.34
4114.33
4256.56
4349.91
4392.95
4385.08
4326.46
4218.09
4061.74
3859.91
3615.71
3332.57
3013.85
2662.3
2279.04
1862.35
1406.46
904.744
364.322
2041.15
2435.03
2807.33
3152.6
3465.72
3742.02
3977.37
4168.23
4311.74
4405.72
4448.77
4440.26
4380.37
4270.1
4111.24
3906.37
3658.64
3371.56
3048.6
2692.57
2304.66
1883.09
1421.96
914.377
367.561
2006.06
2394.57
2761.89
3102.62
3411.71
3684.55
3917.07
4105.78
4247.82
4341.08
4384.13
4376.37
4317.97
4209.9
4053.94
3852.6
3608.96
3326.44
3008.39
2657.55
2275.03
1859.11
1404.06
903.258
363.815
2034.35
2427.14
2798.44
3142.79
3455.09
3730.68
3965.45
4155.87
4299.08
4392.9
4435.94
4427.57
4367.97
4258.12
4099.84
3895.67
3648.75
3362.58
3040.59
2685.59
2298.75
1878.31
1418.38
912.153
366.814
2034.35
2427.14
2798.44
3142.79
3455.09
3730.68
3965.45
4155.87
4299.08
4392.9
4435.94
4427.57
4367.96
4258.12
4099.84
3895.67
3648.75
3362.58
3040.59
2685.59
2298.75
1878.31
1418.38
912.153
366.814
2006.06
2394.58
2761.89
3102.62
3411.71
3684.55
3917.07
4105.78
4247.83
4341.08
4384.13
4376.37
4317.97
4209.9
4053.95
3852.61
3608.97
3326.44
3008.39
2657.55
2275.03
1859.12
1404.06
903.259
363.815
2041.15
2435.03
2807.33
3152.6
3465.72
3742.02
3977.37
4168.23
4311.74
4405.72
4448.77
4440.26
4380.37
4270.1
4111.24
3906.37
3658.64
3371.56
3048.6
2692.57
2304.66
1883.09
1421.96
914.377
367.561
2010.96
2400.19
2768.18
3109.51
3419.14
3692.44
3925.34
4114.33
4256.56
4349.91
4392.95
4385.08
4326.46
4218.09
4061.74
3859.91
3615.71
3332.57
3013.85
2662.3
2279.04
1862.35
1406.46
904.744
364.322
2034.35
2427.14
2798.44
3142.79
3455.09
3730.68
3965.45
4155.87
4299.08
4392.9
4435.94
4427.57
4367.96
4258.12
4099.84
3895.67
3648.75
3362.58
3040.59
2685.59
2298.75
1878.31
1418.38
912.153
366.814
2006.06
2394.57
2761.89
3102.62
3411.71
3684.55
3917.07
4105.78
4247.82
4341.08
4384.13
4376.37
4317.96
4209.9
4053.94
3852.6
3608.96
3326.44
3008.39
2657.55
2275.03
1859.11
1404.06
903.258
363.815
2006.06
2394.58
2761.89
3102.62
3411.71
3684.55
3917.07
4105.78
4247.83
4341.08
4384.13
4376.37
4317.97
4209.9
4053.95
3852.61
3608.97
3326.44
3008.39
2657.55
2275.03
1859.11
1404.06
903.259
363.815
2034.35
2427.14
2798.44
3142.79
3455.09
3730.68
3965.45
4155.87
4299.08
4392.9
4435.94
4427.57
4367.96
4258.12
4099.84
3895.67
3648.75
3362.58
3040.59
2685.59
2298.75
1878.31
1418.38
912.153
366.814
)
;

boundaryField
{
    outletCentralUnloaded
    {
        type            zeroGradient;
    }
    inletCentralUnloaded
    {
        type            zeroGradient;
    }
    outletFuelElement
    {
        type            zeroGradient;
    }
    inletFuelElement
    {
        type            zeroGradient;
    }
    defaultFaces
    {
        type            zeroGradient;
    }
    baffle_master
    {
        type            zeroGradient;
    }
    baffle_slave
    {
        type            zeroGradient;
    }
}


// ************************************************************************* //
