/*--------------------------------*- C++ -*----------------------------------*\
| =========                 |                                                 |
| \\      /  F ield         | OpenFOAM: The Open Source CFD Toolbox           |
|  \\    /   O peration     | Version:  2212                                  |
|   \\  /    A nd           | Website:  www.openfoam.com                      |
|    \\/     M anipulation  |                                                 |
\*---------------------------------------------------------------------------*/
FoamFile
{
    version     2.0;
    format      ascii;
    arch        "LSB;label=32;scalar=64";
    class       scalarFieldField;
    location    "44/fluidRegion";
    object      Trad.nuclearFuelPin;
}
// * * * * * * * * * * * * * * * * * * * * * * * * * * * * * * * * * * * * * //


350
(
0()
0()
0()
0()
0()
0()
0()
0()
0()
0()
0()
0()
0()
0()
0()
0()
0()
0()
0()
0()
0()
0()
0()
0()
0()
0()
0()
0()
0()
0()
0()
0()
0()
0()
0()
0()
0()
0()
0()
0()
0()
0()
0()
0()
0()
0()
0()
0()
0()
0()

20
(
2394.76
2393.07
2388
2379.55
2367.71
2352.48
2333.85
2311.81
2286.34
2257.44
2225.08
2189.26
2149.95
2107.15
2060.82
2010.96
1846.67
1842.76
1838.98
1835.32
)


20
(
3582.37
3577.13
3561.42
3535.24
3498.57
3451.41
3393.76
3325.6
3246.91
3157.69
3057.92
2947.59
2826.66
2695.14
2552.99
2400.19
1897.14
1885.16
1873.57
1862.35
)


20
(
4729.87
4721.17
4695.07
4651.57
4590.65
4512.33
4416.57
4303.38
4172.73
4024.63
3859.03
3675.94
3475.33
3257.18
3021.47
2768.18
1934.38
1914.52
1895.31
1876.7
)


20
(
5819.56
5807.54
5771.46
5711.34
5627.15
5518.89
5386.56
5230.14
5049.61
4844.96
4616.18
4363.24
4086.12
3784.81
3459.28
3109.51
1958.19
1930.76
1904.24
1878.55
)


20
(
6834.6
6819.44
6773.97
6698.17
6592.04
6455.57
6288.76
6091.58
5864.04
5606.1
5317.75
4998.97
4649.74
4270.04
3859.85
3419.14
1968.52
1933.97
1900.54
1868.17
)


20
(
7759.25
7741.2
7687.04
7596.77
7470.38
7307.87
7109.21
6874.41
6603.45
6296.3
5952.95
5573.38
5157.56
4705.48
4217.12
3692.44
1965.48
1924.34
1884.55
1846.01
)


20
(
8579.16
8558.5
8496.51
8393.2
8248.55
8062.56
7835.21
7566.5
7256.4
6904.91
6511.99
6077.63
5601.81
5084.5
4525.69
3925.34
1949.33
1902.26
1856.73
1812.63
)


20
(
9281.58
9258.64
9189.81
9075.08
8914.46
8707.94
8455.49
8157.12
7812.79
7422.5
6986.23
6503.95
5975.64
5401.29
4780.86
4114.33
1920.5
1868.25
1817.7
1768.74
)


20
(
9855.57
9830.71
9756.12
9631.81
9457.76
9233.96
8960.41
8637.09
8263.98
7841.07
7368.34
6845.76
6273.32
5650.99
4978.74
4256.56
1879.59
1822.97
1768.2
1715.15
)


20
(
10292.2
10265.8
10186.6
10054.7
9869.97
9632.44
9342.11
8998.95
8602.96
8154.11
7652.39
7097.77
6490.24
5829.76
5116.33
4349.91
1827.33
1767.24
1709.11
1652.82
)


20
(
10584.6
10557.1
10474.7
10337.2
10144.7
9897.17
9594.64
9237.07
8824.45
8356.76
7833.97
7256.08
6623.05
5934.87
5191.51
4392.95
1764.61
1702.01
1641.44
1582.78
)


20
(
10728.4
10700.2
10615.7
10474.8
10277.6
10024
9714.09
9347.76
8925.03
8445.88
7910.29
7318.25
6669.73
5964.71
5203.17
4385.08
1692.49
1628.35
1566.3
1506.21
)


20
(
10721.1
10692.7
10607.5
10465.5
10266.7
10011.1
9698.63
9329.32
8903.16
8420.12
7880.19
7283.35
6629.58
5918.86
5151.16
4326.46
1612.13
1547.48
1484.93
1424.35
)


20
(
10563.2
10535
10450.4
10309.5
10112.3
9858.61
9548.56
9182.11
8759.25
8279.96
7744.21
7152
6503.31
5798.1
5036.37
4218.09
1524.88
1460.73
1398.66
1338.56
)


20
(
10257
10229.5
10146.9
10009.4
9816.74
9569.06
9266.33
8908.53
8495.65
8027.67
7504.57
6926.34
6292.97
5604.42
4860.68
4061.74
1432.17
1369.53
1308.94
1250.25
)


20
(
9807.53
9781.11
9701.86
9569.77
9384.85
9147.07
8856.44
8512.94
8116.56
7667.28
7165.09
6609.98
6001.92
5340.91
4626.91
3859.91
1335.51
1275.38
1217.2
1160.87
)


20
(
9221.72
9196.83
9122.13
8997.63
8823.32
8599.2
8325.25
8001.48
7627.86
7204.38
6731.04
6207.81
5634.68
5011.63
4338.65
3615.71
1236.34
1179.66
1124.83
1071.73
)


20
(
8508.42
8485.43
8416.46
8301.51
8140.58
7933.65
7680.72
7381.79
7036.84
6645.86
6208.83
5725.75
5196.6
4621.36
4000.02
3332.57
1135.8
1083.47
1032.84
983.818
)


20
(
7677.72
7657.01
7594.86
7491.28
7346.27
7159.81
6931.9
6662.53
6351.7
5999.39
5605.59
5170.3
4693.49
4175.15
3615.28
3013.85
1034.38
987.231
941.615
897.439
)


20
(
6740.54
6722.43
6668.08
6577.51
6450.7
6287.65
6088.36
5852.82
5581.02
5272.95
4928.6
4547.96
4131.02
3677.77
3188.2
2662.3
931.393
890.162
850.274
811.645
)


20
(
5707.18
5691.96
5646.28
5570.14
5463.55
5326.49
5158.97
4960.97
4732.5
4473.53
4184.08
3864.11
3513.64
3132.64
2721.11
2279.04
824.048
789.389
755.86
723.389
)


20
(
4586.32
4574.22
4537.92
4477.43
4392.73
4283.83
4150.71
3993.39
3811.84
3606.08
3376.08
3121.84
2843.35
2540.62
2213.62
1862.35
706.224
678.684
652.042
626.241
)


20
(
3383.43
3374.65
3348.3
3304.4
3242.92
3163.89
3067.28
2953.1
2821.34
2672
2505.07
2320.55
2118.44
1898.72
1661.4
1406.46
567.398
547.411
528.076
509.35
)


20
(
2104.07
2098.75
2082.76
2056.12
2018.83
1970.87
1912.26
1842.99
1763.05
1672.45
1571.18
1459.24
1336.63
1203.35
1059.39
904.744
395.778
383.654
371.925
360.567
)


20
(
767.825
766.031
760.649
751.68
739.122
722.977
703.245
679.927
653.022
622.531
588.456
550.795
509.551
464.724
416.314
364.322
193.223
189.148
185.204
181.386
)


20
(
2429.13
2427.42
2422.3
2413.76
2401.79
2386.4
2367.56
2345.28
2319.54
2290.32
2257.61
2221.4
2181.67
2138.39
2091.56
2041.15
1875.06
1871.1
1867.28
1863.58
)


20
(
3630.53
3625.24
3609.35
3582.87
3545.79
3498.1
3439.8
3370.87
3291.3
3201.08
3100.18
2988.6
2866.31
2733.3
2589.55
2435.03
1926.29
1914.17
1902.45
1891.1
)


20
(
4791.28
4782.49
4756.09
4712.1
4650.49
4571.28
4474.44
4359.96
4227.84
4078.05
3910.58
3725.41
3522.52
3301.89
3063.5
2807.33
1964.05
1943.97
1924.54
1905.72
)


20
(
5893.49
5881.33
5844.85
5784.04
5698.89
5589.4
5455.57
5297.36
5114.78
4907.81
4676.42
4420.6
4140.33
3835.59
3506.35
3152.6
1988.16
1960.42
1933.59
1907.61
)


20
(
6920.11
6904.78
6858.79
6782.12
6674.78
6536.76
6368.05
6168.63
5938.49
5677.61
5385.97
5063.56
4710.35
4326.32
3911.45
3465.72
1998.55
1963.6
1929.79
1897.05
)


20
(
7855.23
7836.97
7782.19
7690.89
7563.06
7398.69
7197.78
6960.3
6686.24
6375.59
6028.32
5644.42
5223.86
4766.62
4272.68
3742.02
1995.33
1953.73
1913.48
1874.5
)


20
(
8684.32
8663.43
8600.73
8496.24
8349.94
8161.83
7931.89
7660.11
7346.47
6990.96
6593.56
6154.24
5672.98
5149.77
4584.57
3977.37
1978.79
1931.18
1885.13
1840.53
)


20
(
9394.51
9371.3
9301.69
9185.66
9023.2
8814.32
8558.99
8257.21
7908.95
7514.21
7072.95
6585.16
6050.82
5469.9
4842.38
4168.23
1949.34
1896.49
1845.35
1795.84
)


20
(
9974.73
9949.58
9874.14
9748.41
9572.37
9346.02
9069.34
8742.33
8364.96
7937.21
7459.08
6930.53
6351.55
5722.1
5042.18
4311.74
1907.59
1850.33
1794.93
1741.28
)


20
(
10415.9
10389.2
10309.2
10175.7
9988.88
9748.64
9454.99
9107.91
8707.39
8253.42
7745.96
7185
6570.53
5902.5
5180.91
4405.72
1854.3
1793.53
1734.73
1677.8
)


20
(
10711.3
10683.4
10600
10460.9
10266.3
10015.9
9709.93
9348.28
8930.94
8457.9
7929.14
7344.64
6704.38
6008.33
5256.47
4448.77
1790.38
1727.05
1665.79
1606.47
)


20
(
10856.1
10827.6
10742.1
10599.6
10400.2
10143.7
9830.21
9459.69
9032.13
8547.5
8005.79
7406.98
6751.04
6037.96
5267.71
4440.26
1716.87
1652
1589.24
1528.46
)


20
(
10848.2
10819.5
10733.3
10589.7
10388.6
10130
9813.97
9440.44
9009.41
8520.85
7974.74
7371.08
6709.83
5990.98
5214.5
4380.37
1634.99
1569.59
1506.33
1445.06
)


20
(
10687.7
10659.2
10573.7
10431.2
10231.7
9975.13
9661.54
9290.9
8863.2
8378.42
7836.55
7237.57
6581.45
5868.18
5097.74
4270.1
1546.07
1481.18
1418.41
1357.62
)


20
(
10377.4
10349.6
10266.1
10126.9
9932.08
9681.57
9375.38
9013.49
8595.88
8122.55
7593.47
7008.62
6368
5671.58
4919.33
4111.24
1451.59
1388.24
1326.95
1267.59
)


20
(
9922.03
9895.31
9815.15
9681.56
9494.51
9254.02
8960.06
8612.63
8211.72
7757.3
7249.37
6687.9
6072.89
5404.31
4682.14
3906.37
1353.08
1292.26
1233.42
1176.44
)


20
(
9328.79
9303.61
9228.05
9102.13
8925.83
8699.14
8422.06
8094.58
7716.69
7288.37
6809.61
6280.39
5700.71
5070.53
4389.85
3658.64
1252.03
1194.71
1139.25
1085.54
)


20
(
8606.64
8583.38
8513.63
8397.36
8234.59
8025.29
7769.47
7467.12
7118.22
6722.77
6280.74
5792.13
5256.92
4675.1
4046.66
3371.56
1149.65
1096.72
1045.52
995.929
)


20
(
7765.85
7744.89
7682.04
7577.27
7430.6
7242
7011.49
6739.04
6424.65
6068.31
5670
5229.73
4747.46
4223.19
3656.91
3048.6
1046.48
998.784
952.646
907.965
)


20
(
6817.49
6799.17
6744.2
6652.59
6524.34
6359.42
6157.85
5919.61
5644.7
5333.1
4984.81
4599.82
4178.11
3719.67
3224.5
2692.57
941.857
900.154
859.81
820.739
)


20
(
5772.03
5756.63
5710.43
5633.42
5525.61
5386.99
5217.55
5017.29
4786.2
4524.27
4231.5
3907.88
3553.39
3168.03
2751.79
2304.66
833.013
797.958
764.045
731.202
)


20
(
4638.23
4626
4589.28
4528.09
4442.43
4332.28
4197.64
4038.52
3854.9
3646.78
3414.14
3157
2875.33
2569.12
2238.38
1883.09
713.737
685.883
658.936
632.839
)


20
(
3421.53
3412.65
3386.01
3341.6
3279.42
3199.48
3101.77
2986.28
2853.01
2701.97
2533.13
2346.5
2142.08
1919.85
1679.81
1421.96
573.294
553.078
533.521
514.582
)


20
(
2127.41
2122.02
2105.86
2078.91
2041.19
1992.69
1933.41
1863.34
1782.49
1690.86
1588.43
1475.22
1351.2
1216.4
1070.79
914.377
399.592
387.33
375.467
363.979
)


20
(
775.656
773.842
768.399
759.327
746.627
730.298
710.342
686.758
659.547
628.71
594.247
556.158
514.444
469.106
420.145
367.561
194.512
190.39
186.402
182.54
)


20
(
2389.19
2387.51
2382.45
2374.01
2362.2
2346.99
2328.39
2306.39
2280.96
2252.11
2219.81
2184.05
2144.81
2102.08
2055.84
2006.06
1842.06
1838.16
1834.38
1830.73
)


20
(
3574.63
3569.4
3553.72
3527.58
3490.98
3443.91
3386.36
3318.32
3239.77
3150.71
3051.12
2940.98
2820.28
2688.99
2547.09
2394.57
1892.43
1880.47
1868.9
1857.7
)


20
(
4720.03
4711.35
4685.3
4641.87
4581.07
4502.88
4407.3
4294.31
4163.91
4016.06
3850.77
3668.01
3467.76
3250.01
3014.72
2761.89
1929.6
1909.78
1890.6
1872.03
)


20
(
5807.75
5795.75
5759.74
5699.72
5615.69
5507.63
5375.53
5219.39
5039.19
4834.92
4606.55
4354.07
4077.46
3776.69
3451.75
3102.62
1953.38
1926.01
1899.53
1873.88
)


20
(
6820.97
6805.84
6760.44
6684.78
6578.84
6442.62
6276.11
6079.3
5852.16
5594.69
5306.86
4988.66
4640.07
4261.06
3851.61
3411.71
1963.72
1929.23
1895.87
1863.56
)


20
(
7743.97
7725.95
7671.89
7581.78
7455.62
7293.4
7095.11
6860.74
6590.26
6283.67
5940.94
5562.06
5147.01
4695.75
4208.27
3684.55
1960.72
1919.66
1879.94
1841.47
)


20
(
8562.43
8541.81
8479.93
8376.81
8232.42
8046.77
7819.84
7551.61
7242.08
6891.22
6499.02
6065.45
5590.49
5074.12
4516.33
3917.07
1944.66
1897.68
1852.22
1808.21
)


20
(
9263.63
9240.73
9172.02
9057.51
8897.18
8691.03
8439.05
8141.21
7797.51
7407.93
6972.45
6491.05
5963.71
5390.39
4771.09
4105.78
1915.95
1863.79
1813.33
1764.46
)


20
(
9836.64
9811.83
9737.38
9613.29
9439.55
9216.16
8943.11
8620.38
8247.95
7825.81
7353.94
6832.31
6260.91
5639.71
4968.69
4247.82
1875.18
1818.66
1763.99
1711.04
)


20
(
10272.5
10246.2
10167.2
10035.5
9851.09
9614
9324.19
8981.66
8586.38
8138.35
7637.55
7083.94
6477.51
5818.24
5106.1
4341.08
1823.09
1763.12
1705.09
1648.9
)


20
(
10564.5
10537.1
10454.8
10317.5
10125.4
9878.33
9576.35
9219.43
8807.56
8340.72
7818.89
7242.04
6610.17
5923.24
5181.24
4384.13
1760.58
1698.09
1637.63
1579.08
)


20
(
10708.1
10680
10595.6
10455
10258.2
10005.1
9695.67
9330.01
8908.05
8429.77
7895.16
7304.2
6656.86
5953.12
5192.97
4376.37
1688.68
1624.66
1562.73
1502.74
)


20
(
10701
10672.6
10587.6
10445.9
10247.4
9992.24
9680.34
9311.71
8886.32
8404.16
7865.22
7269.47
6616.89
5907.46
5141.16
4317.97
1608.58
1544.04
1481.61
1421.14
)


20
(
10543.4
10515.3
10430.9
10290.3
10093.3
9840.14
9530.66
9164.88
8742.79
8264.36
7729.6
7138.47
6490.95
5787.03
5026.69
4209.9
1521.6
1457.56
1395.61
1335.61
)


20
(
10237.9
10210.5
10128.1
9990.73
9798.46
9551.24
9249.06
8891.91
8479.78
8012.65
7490.51
6913.33
6281.11
5593.81
4851.43
4053.94
1429.17
1366.65
1306.16
1247.58
)


20
(
9789.38
9763.01
9683.91
9552.06
9367.47
9130.13
8840.03
8497.15
8101.49
7653.03
7151.76
6597.66
5990.71
5330.9
4618.2
3852.6
1332.8
1272.78
1214.71
1158.48
)


20
(
9204.76
9179.91
9105.34
8981.07
8807.08
8583.37
8309.92
7986.73
7613.8
7191.09
6718.61
6196.33
5624.25
5002.34
4330.58
3608.96
1233.92
1177.35
1122.62
1069.61
)


20
(
8492.86
8469.91
8401.07
8286.33
8125.69
7919.14
7666.67
7368.28
7023.96
6633.69
6197.46
5715.26
5187.07
4612.89
3992.68
3326.44
1133.67
1081.44
1030.91
981.972
)


20
(
7663.77
7643.09
7581.06
7477.67
7332.91
7146.79
6919.3
6650.42
6340.16
5988.49
5595.41
5160.91
4684.97
4167.58
3608.72
3008.39
1032.53
985.468
939.936
895.84
)


20
(
6728.36
6710.28
6656.03
6565.62
6439.05
6276.3
6077.37
5842.25
5570.95
5263.44
4919.72
4539.77
4123.6
3671.17
3182.49
2657.55
929.799
888.643
848.828
810.27
)


20
(
5696.92
5681.72
5636.13
5560.13
5453.73
5316.93
5149.71
4952.07
4724.01
4465.52
4176.59
3857.22
3507.38
3127.08
2716.29
2275.03
822.691
788.095
754.627
722.215
)


20
(
4578.12
4566.04
4529.81
4469.43
4384.88
4276.18
4143.31
3986.27
3805.06
3599.66
3370.08
3116.31
2838.33
2536.15
2209.74
1859.11
705.098
677.608
651.015
625.261
)


20
(
3377.42
3368.66
3342.36
3298.54
3237.18
3158.28
3061.85
2947.88
2816.36
2667.29
2500.67
2316.49
2114.74
1895.42
1658.53
1404.06
566.526
546.576
527.276
508.584
)


20
(
2100.4
2095.09
2079.13
2052.54
2015.31
1967.45
1908.94
1839.79
1760
1669.57
1568.48
1456.75
1334.36
1201.32
1057.62
903.258
395.219
383.117
371.41
360.072
)


20
(
766.587
764.796
759.424
750.47
737.935
721.82
702.124
678.847
651.991
621.556
587.542
549.95
508.78
464.034
415.712
363.815
193.027
188.958
185.022
181.21
)


20
(
2421.37
2419.66
2414.55
2406.03
2394.1
2378.74
2359.95
2337.72
2312.04
2282.9
2250.27
2214.15
2174.52
2131.35
2084.63
2034.35
1868.67
1864.73
1860.92
1857.22
)


20
(
3619.58
3614.3
3598.45
3572.04
3535.05
3487.49
3429.34
3360.58
3281.22
3191.22
3090.59
2979.29
2857.32
2724.65
2581.27
2427.14
1919.71
1907.63
1895.94
1884.62
)


20
(
4777.27
4768.49
4742.16
4698.28
4636.84
4557.82
4461.23
4347.05
4215.27
4065.87
3898.83
3714.14
3511.77
3291.72
3053.94
2798.44
1957.34
1937.31
1917.93
1899.16
)


20
(
5876.58
5864.45
5828.06
5767.4
5682.48
5573.28
5439.78
5281.99
5099.88
4893.45
4662.66
4407.5
4127.96
3824.01
3495.62
3142.79
1981.36
1953.7
1926.94
1901.02
)


20
(
6900.52
6885.23
6839.35
6762.88
6655.83
6518.16
6349.89
6150.98
5921.44
5661.24
5370.36
5048.78
4696.49
4313.46
3899.67
3455.09
1991.73
1956.87
1923.15
1890.5
)


20
(
7833.21
7815
7760.36
7669.3
7541.8
7377.86
7177.47
6940.6
6667.26
6357.41
6011.05
5628.14
5208.68
4752.63
4259.97
3730.68
1988.54
1947.04
1906.9
1868.02
)


20
(
8660.18
8639.34
8576.81
8472.58
8326.67
8139.04
7909.7
7638.62
7325.8
6971.21
6574.84
6136.67
5656.66
5134.81
4571.08
3965.45
1972.07
1924.59
1878.65
1834.17
)


20
(
9368.56
9345.42
9275.98
9160.25
8998.22
8789.88
8535.22
8234.22
7886.87
7493.15
7053.04
6566.52
6033.56
5454.16
4828.27
4155.87
1942.75
1890.04
1839.04
1789.65
)


20
(
9947.34
9922.26
9847.02
9721.61
9546.03
9320.26
9044.3
8718.14
8341.75
7915.12
7438.23
6911.06
6333.58
5705.77
5027.61
4299.08
1901.19
1844.07
1788.81
1735.3
)


20
(
10387.5
10360.9
10281
10147.9
9961.54
9721.92
9429.03
9082.86
8683.38
8230.59
7724.45
7164.95
6552.07
5885.79
5166.07
4392.9
1848.12
1787.51
1728.86
1672.07
)


20
(
10682.1
10654.4
10571.2
10432.5
10238.3
9988.6
9683.41
9322.7
8906.45
8434.64
7907.25
7324.27
6685.68
5991.44
5241.53
4435.94
1784.47
1721.31
1660.21
1601.03
)


20
(
10826.7
10798.3
10713
10570.9
10372
10116.2
9803.49
9433.94
9007.48
8524.12
7983.82
7386.56
6732.33
6021.11
5252.86
4427.57
1711.27
1646.57
1583.97
1523.35
)


20
(
10818.9
10790.3
10704.3
10561.1
10360.5
10102.6
9787.42
9414.87
8984.95
8497.66
7952.98
7350.89
6691.36
5974.38
5199.92
4367.97
1629.73
1564.5
1501.4
1440.3
)


20
(
10659.1
10630.6
10545.4
10403.2
10204.2
9948.3
9635.53
9265.86
8839.27
8355.76
7815.3
7217.87
6563.46
5852.05
5083.61
4258.12
1541.19
1476.47
1413.86
1353.23
)


20
(
10349.7
10321.9
10238.6
10099.8
9905.52
9655.67
9350.27
8989.32
8572.8
8100.7
7573
6989.68
6350.72
5656.11
4905.82
4099.84
1447.11
1383.92
1322.79
1263.59
)


20
(
9895.66
9869.01
9789.06
9655.82
9469.26
9229.39
8936.2
8589.67
8189.8
7736.57
7229.96
6669.96
6056.54
5389.7
4669.42
3895.67
1349.03
1288.36
1229.68
1172.85
)


20
(
9304.13
9279.02
9203.66
9078.06
8902.22
8676.12
8399.77
8073.14
7696.23
7269.03
6791.51
6263.67
5685.49
5056.96
4378.05
3648.75
1248.41
1191.23
1135.92
1082.35
)


20
(
8584.01
8560.82
8491.25
8375.29
8212.93
8004.19
7749.03
7447.47
7099.48
6705.05
6264.17
5776.84
5243.03
4662.72
4035.91
3362.58
1146.45
1093.66
1042.59
993.129
)


20
(
7745.55
7724.65
7661.96
7557.47
7411.17
7223.07
6993.15
6721.42
6407.84
6052.43
5655.17
5216.03
4735.02
4212.12
3647.31
3040.59
1043.68
996.113
950.095
905.53
)


20
(
6799.77
6781.49
6726.67
6635.3
6507.37
6342.89
6141.84
5904.23
5630.03
5319.24
4971.86
4587.87
4167.26
3710.02
3216.13
2685.59
939.438
897.843
857.604
818.635
)


20
(
5757.1
5741.74
5695.65
5618.85
5511.31
5373.05
5204.05
5004.31
4773.82
4512.58
4220.57
3897.79
3544.23
3159.88
2744.72
2298.75
830.94
795.976
762.151
729.394
)


20
(
4626.27
4614.07
4577.45
4516.42
4430.98
4321.12
4186.83
4028.12
3844.98
3637.4
3405.37
3148.89
2867.96
2562.55
2232.67
1878.31
711.998
684.216
657.34
631.311
)


20
(
3412.75
3403.89
3377.32
3333.03
3271.01
3191.28
3093.82
2978.63
2845.71
2695.06
2526.66
2340.52
2136.63
1914.98
1675.56
1418.38
571.928
551.765
532.259
513.369
)


20
(
2122.03
2116.66
2100.53
2073.66
2036.04
1987.66
1928.53
1858.65
1778.01
1686.61
1584.45
1471.53
1347.84
1213.39
1068.16
912.153
398.708
386.477
374.645
363.187
)


20
(
773.852
772.043
766.614
757.565
744.898
728.612
708.707
685.184
658.044
627.286
592.912
554.922
513.316
468.096
419.262
366.814
194.214
190.103
186.125
182.273
)


20
(
2421.37
2419.66
2414.55
2406.03
2394.1
2378.74
2359.95
2337.72
2312.04
2282.9
2250.27
2214.15
2174.52
2131.35
2084.63
2034.35
1868.67
1864.73
1860.92
1857.22
)


20
(
3619.58
3614.3
3598.45
3572.04
3535.05
3487.49
3429.34
3360.58
3281.22
3191.22
3090.59
2979.29
2857.32
2724.65
2581.27
2427.14
1919.71
1907.63
1895.94
1884.62
)


20
(
4777.27
4768.49
4742.16
4698.28
4636.84
4557.83
4461.24
4347.06
4215.27
4065.87
3898.83
3714.14
3511.77
3291.72
3053.94
2798.44
1957.34
1937.31
1917.93
1899.16
)


20
(
5876.58
5864.45
5828.06
5767.4
5682.48
5573.28
5439.79
5281.99
5099.88
4893.45
4662.66
4407.5
4127.96
3824.01
3495.62
3142.79
1981.36
1953.7
1926.94
1901.02
)


20
(
6900.52
6885.22
6839.35
6762.88
6655.82
6518.16
6349.89
6150.98
5921.44
5661.24
5370.36
5048.78
4696.49
4313.46
3899.66
3455.09
1991.73
1956.87
1923.15
1890.5
)


20
(
7833.21
7815
7760.36
7669.3
7541.8
7377.86
7177.47
6940.6
6667.26
6357.41
6011.05
5628.14
5208.68
4752.63
4259.97
3730.68
1988.54
1947.04
1906.9
1868.02
)


20
(
8660.18
8639.34
8576.81
8472.58
8326.67
8139.04
7909.7
7638.62
7325.8
6971.21
6574.84
6136.67
5656.66
5134.81
4571.08
3965.45
1972.07
1924.59
1878.65
1834.17
)


20
(
9368.56
9345.42
9275.98
9160.25
8998.22
8789.88
8535.22
8234.22
7886.87
7493.15
7053.04
6566.52
6033.56
5454.16
4828.27
4155.87
1942.75
1890.04
1839.04
1789.65
)


20
(
9947.34
9922.26
9847.01
9721.61
9546.02
9320.26
9044.3
8718.14
8341.75
7915.12
7438.23
6911.06
6333.58
5705.77
5027.61
4299.08
1901.19
1844.07
1788.81
1735.3
)


20
(
10387.5
10360.9
10281
10147.9
9961.54
9721.92
9429.03
9082.86
8683.38
8230.59
7724.45
7164.95
6552.07
5885.79
5166.07
4392.9
1848.12
1787.51
1728.86
1672.07
)


20
(
10682.1
10654.4
10571.2
10432.5
10238.3
9988.6
9683.41
9322.7
8906.44
8434.64
7907.25
7324.27
6685.67
5991.44
5241.53
4435.94
1784.47
1721.31
1660.21
1601.03
)


20
(
10826.7
10798.3
10713
10570.9
10372
10116.2
9803.49
9433.93
9007.48
8524.12
7983.82
7386.56
6732.33
6021.11
5252.86
4427.57
1711.27
1646.57
1583.97
1523.35
)


20
(
10818.9
10790.3
10704.3
10561.1
10360.5
10102.6
9787.42
9414.87
8984.95
8497.66
7952.98
7350.89
6691.36
5974.38
5199.92
4367.96
1629.73
1564.5
1501.4
1440.3
)


20
(
10659.1
10630.6
10545.4
10403.2
10204.2
9948.3
9635.53
9265.85
8839.27
8355.75
7815.29
7217.87
6563.46
5852.05
5083.61
4258.12
1541.19
1476.47
1413.86
1353.23
)


20
(
10349.7
10321.9
10238.6
10099.8
9905.52
9655.67
9350.27
8989.32
8572.8
8100.7
7573
6989.68
6350.72
5656.11
4905.82
4099.84
1447.11
1383.92
1322.79
1263.59
)


20
(
9895.66
9869.01
9789.06
9655.82
9469.26
9229.39
8936.2
8589.67
8189.8
7736.57
7229.96
6669.96
6056.54
5389.7
4669.42
3895.67
1349.03
1288.36
1229.68
1172.85
)


20
(
9304.13
9279.02
9203.66
9078.06
8902.22
8676.12
8399.77
8073.14
7696.23
7269.03
6791.51
6263.67
5685.49
5056.96
4378.05
3648.75
1248.41
1191.23
1135.92
1082.35
)


20
(
8584.01
8560.82
8491.25
8375.29
8212.93
8004.18
7749.03
7447.46
7099.47
6705.05
6264.17
5776.84
5243.03
4662.72
4035.91
3362.58
1146.45
1093.66
1042.59
993.129
)


20
(
7745.55
7724.65
7661.96
7557.47
7411.17
7223.07
6993.15
6721.42
6407.84
6052.43
5655.17
5216.03
4735.02
4212.12
3647.31
3040.59
1043.68
996.113
950.095
905.53
)


20
(
6799.77
6781.49
6726.67
6635.3
6507.37
6342.89
6141.84
5904.23
5630.03
5319.24
4971.86
4587.87
4167.26
3710.02
3216.13
2685.59
939.438
897.843
857.604
818.635
)


20
(
5757.1
5741.73
5695.65
5618.85
5511.31
5373.05
5204.05
5004.31
4773.82
4512.58
4220.57
3897.79
3544.23
3159.88
2744.72
2298.75
830.94
795.976
762.151
729.394
)


20
(
4626.27
4614.07
4577.45
4516.42
4430.98
4321.12
4186.83
4028.12
3844.98
3637.4
3405.37
3148.89
2867.96
2562.55
2232.67
1878.31
711.998
684.216
657.34
631.311
)


20
(
3412.75
3403.9
3377.32
3333.03
3271.01
3191.28
3093.82
2978.63
2845.71
2695.06
2526.66
2340.52
2136.63
1914.98
1675.56
1418.38
571.928
551.765
532.259
513.369
)


20
(
2122.03
2116.66
2100.53
2073.66
2036.04
1987.66
1928.53
1858.65
1778.01
1686.61
1584.45
1471.53
1347.84
1213.39
1068.16
912.153
398.708
386.477
374.645
363.187
)


20
(
773.852
772.043
766.614
757.565
744.898
728.612
708.707
685.184
658.044
627.286
592.912
554.922
513.316
468.096
419.262
366.814
194.214
190.103
186.125
182.273
)


20
(
2389.19
2387.51
2382.45
2374.01
2362.2
2346.99
2328.39
2306.39
2280.96
2252.11
2219.81
2184.05
2144.81
2102.08
2055.84
2006.06
1842.06
1838.16
1834.38
1830.73
)


20
(
3574.63
3569.4
3553.72
3527.58
3490.98
3443.91
3386.36
3318.32
3239.77
3150.72
3051.12
2940.98
2820.28
2688.99
2547.09
2394.58
1892.43
1880.47
1868.91
1857.7
)


20
(
4720.04
4711.35
4685.3
4641.88
4581.07
4502.89
4407.3
4294.32
4163.91
4016.07
3850.77
3668.01
3467.76
3250.01
3014.72
2761.89
1929.6
1909.78
1890.6
1872.03
)


20
(
5807.76
5795.75
5759.74
5699.72
5615.69
5507.63
5375.54
5219.4
5039.2
4834.92
4606.55
4354.07
4077.46
3776.69
3451.75
3102.62
1953.38
1926.01
1899.53
1873.89
)


20
(
6820.97
6805.84
6760.44
6684.78
6578.84
6442.62
6276.11
6079.3
5852.16
5594.69
5306.87
4988.67
4640.07
4261.06
3851.62
3411.71
1963.72
1929.23
1895.87
1863.56
)


20
(
7743.97
7725.95
7671.89
7581.78
7455.62
7293.4
7095.11
6860.74
6590.26
6283.67
5940.95
5562.06
5147.01
4695.75
4208.27
3684.55
1960.73
1919.67
1879.94
1841.48
)


20
(
8562.43
8541.81
8479.94
8376.81
8232.43
8046.77
7819.84
7551.61
7242.08
6891.22
6499.02
6065.45
5590.49
5074.13
4516.33
3917.07
1944.66
1897.68
1852.23
1808.21
)


20
(
9263.63
9240.73
9172.02
9057.51
8897.18
8691.03
8439.05
8141.21
7797.51
7407.94
6972.46
6491.05
5963.71
5390.4
4771.09
4105.78
1915.95
1863.79
1813.33
1764.46
)


20
(
9836.65
9811.83
9737.38
9613.29
9439.55
9216.17
8943.11
8620.38
8247.95
7825.81
7353.94
6832.31
6260.91
5639.71
4968.69
4247.83
1875.18
1818.66
1763.99
1711.04
)


20
(
10272.6
10246.2
10167.2
10035.5
9851.09
9614
9324.19
8981.66
8586.39
8138.36
7637.55
7083.94
6477.51
5818.24
5106.11
4341.08
1823.1
1763.12
1705.09
1648.9
)


20
(
10564.5
10537.1
10454.8
10317.5
10125.4
9878.33
9576.35
9219.43
8807.56
8340.72
7818.89
7242.05
6610.17
5923.24
5181.24
4384.13
1760.58
1698.09
1637.63
1579.08
)


20
(
10708.1
10680
10595.6
10455
10258.2
10005.1
9695.67
9330.01
8908.05
8429.77
7895.16
7304.2
6656.86
5953.12
5192.97
4376.37
1688.68
1624.66
1562.73
1502.75
)


20
(
10701
10672.6
10587.6
10445.9
10247.4
9992.24
9680.34
9311.71
8886.32
8404.16
7865.22
7269.47
6616.89
5907.46
5141.16
4317.97
1608.58
1544.04
1481.61
1421.14
)


20
(
10543.4
10515.3
10430.9
10290.3
10093.3
9840.14
9530.66
9164.88
8742.79
8264.36
7729.6
7138.47
6490.95
5787.03
5026.69
4209.9
1521.6
1457.56
1395.61
1335.62
)


20
(
10237.9
10210.5
10128.1
9990.73
9798.46
9551.24
9249.06
8891.91
8479.78
8012.65
7490.51
6913.33
6281.11
5593.82
4851.43
4053.95
1429.17
1366.65
1306.16
1247.58
)


20
(
9789.38
9763.01
9683.91
9552.06
9367.47
9130.13
8840.03
8497.15
8101.49
7653.03
7151.76
6597.66
5990.71
5330.9
4618.2
3852.61
1332.8
1272.78
1214.71
1158.48
)


20
(
9204.76
9179.91
9105.34
8981.07
8807.08
8583.37
8309.92
7986.74
7613.8
7191.09
6718.61
6196.34
5624.25
5002.34
4330.58
3608.97
1233.92
1177.35
1122.62
1069.61
)


20
(
8492.86
8469.91
8401.07
8286.33
8125.69
7919.14
7666.67
7368.28
7023.96
6633.69
6197.46
5715.26
5187.07
4612.89
3992.68
3326.44
1133.67
1081.44
1030.91
981.973
)


20
(
7663.77
7643.09
7581.06
7477.67
7332.91
7146.79
6919.3
6650.42
6340.16
5988.49
5595.41
5160.91
4684.97
4167.58
3608.72
3008.39
1032.53
985.469
939.936
895.841
)


20
(
6728.36
6710.28
6656.03
6565.62
6439.05
6276.3
6077.37
5842.25
5570.95
5263.44
4919.72
4539.77
4123.6
3671.17
3182.49
2657.55
929.8
888.644
848.829
810.271
)


20
(
5696.92
5681.72
5636.13
5560.13
5453.73
5316.93
5149.71
4952.07
4724.01
4465.52
4176.59
3857.22
3507.38
3127.08
2716.3
2275.03
822.692
788.096
754.628
722.216
)


20
(
4578.12
4566.05
4529.81
4469.43
4384.88
4276.18
4143.31
3986.27
3805.06
3599.67
3370.09
3116.31
2838.33
2536.15
2209.74
1859.12
705.099
677.609
651.016
625.262
)


20
(
3377.43
3368.66
3342.37
3298.54
3237.18
3158.28
3061.85
2947.88
2816.36
2667.29
2500.67
2316.49
2114.74
1895.43
1658.54
1404.06
566.527
546.577
527.276
508.585
)


20
(
2100.4
2095.09
2079.13
2052.54
2015.31
1967.45
1908.94
1839.79
1760
1669.57
1568.48
1456.75
1334.36
1201.32
1057.62
903.259
395.219
383.118
371.41
360.072
)


20
(
766.587
764.796
759.424
750.47
737.936
721.82
702.124
678.847
651.991
621.556
587.542
549.95
508.781
464.035
415.713
363.815
193.027
188.958
185.022
181.21
)


20
(
2429.13
2427.42
2422.3
2413.76
2401.79
2386.4
2367.56
2345.28
2319.54
2290.32
2257.61
2221.4
2181.67
2138.39
2091.56
2041.15
1875.06
1871.1
1867.28
1863.58
)


20
(
3630.53
3625.24
3609.35
3582.87
3545.79
3498.1
3439.8
3370.87
3291.3
3201.08
3100.18
2988.6
2866.31
2733.3
2589.55
2435.03
1926.29
1914.17
1902.45
1891.1
)


20
(
4791.29
4782.49
4756.09
4712.1
4650.49
4571.28
4474.44
4359.96
4227.84
4078.05
3910.58
3725.41
3522.52
3301.89
3063.5
2807.33
1964.05
1943.97
1924.54
1905.72
)


20
(
5893.49
5881.33
5844.85
5784.04
5698.89
5589.4
5455.57
5297.36
5114.78
4907.81
4676.42
4420.6
4140.33
3835.59
3506.35
3152.6
1988.16
1960.42
1933.59
1907.61
)


20
(
6920.11
6904.78
6858.78
6782.12
6674.78
6536.76
6368.05
6168.63
5938.49
5677.61
5385.97
5063.56
4710.35
4326.32
3911.45
3465.72
1998.55
1963.6
1929.79
1897.05
)


20
(
7855.23
7836.97
7782.19
7690.89
7563.06
7398.69
7197.78
6960.3
6686.24
6375.59
6028.32
5644.42
5223.86
4766.62
4272.68
3742.02
1995.33
1953.73
1913.48
1874.5
)


20
(
8684.32
8663.43
8600.73
8496.24
8349.94
8161.83
7931.89
7660.11
7346.47
6990.96
6593.56
6154.24
5672.98
5149.77
4584.57
3977.37
1978.79
1931.18
1885.13
1840.53
)


20
(
9394.51
9371.3
9301.69
9185.66
9023.2
8814.32
8558.99
8257.21
7908.95
7514.21
7072.95
6585.16
6050.82
5469.9
4842.38
4168.23
1949.34
1896.49
1845.35
1795.84
)


20
(
9974.73
9949.58
9874.14
9748.41
9572.37
9346.02
9069.34
8742.33
8364.96
7937.21
7459.08
6930.53
6351.55
5722.1
5042.18
4311.74
1907.59
1850.33
1794.93
1741.28
)


20
(
10415.9
10389.2
10309.2
10175.7
9988.88
9748.64
9454.99
9107.91
8707.39
8253.42
7745.96
7185
6570.53
5902.5
5180.91
4405.72
1854.3
1793.53
1734.73
1677.8
)


20
(
10711.3
10683.4
10600
10460.9
10266.3
10015.9
9709.93
9348.28
8930.94
8457.9
7929.14
7344.64
6704.38
6008.33
5256.47
4448.77
1790.38
1727.05
1665.79
1606.47
)


20
(
10856.1
10827.6
10742.1
10599.6
10400.2
10143.7
9830.21
9459.69
9032.13
8547.5
8005.79
7406.98
6751.04
6037.96
5267.71
4440.26
1716.87
1652
1589.24
1528.46
)


20
(
10848.2
10819.5
10733.3
10589.7
10388.6
10130
9813.97
9440.44
9009.41
8520.85
7974.74
7371.08
6709.83
5990.98
5214.5
4380.37
1634.99
1569.59
1506.33
1445.06
)


20
(
10687.7
10659.2
10573.7
10431.2
10231.7
9975.13
9661.54
9290.9
8863.2
8378.42
7836.55
7237.57
6581.45
5868.18
5097.74
4270.1
1546.07
1481.18
1418.41
1357.62
)


20
(
10377.4
10349.6
10266.1
10126.9
9932.08
9681.57
9375.38
9013.49
8595.88
8122.55
7593.47
7008.62
6368
5671.58
4919.33
4111.24
1451.59
1388.24
1326.95
1267.59
)


20
(
9922.03
9895.31
9815.15
9681.56
9494.51
9254.02
8960.06
8612.63
8211.72
7757.3
7249.37
6687.9
6072.89
5404.31
4682.14
3906.37
1353.08
1292.26
1233.42
1176.44
)


20
(
9328.79
9303.61
9228.05
9102.13
8925.83
8699.14
8422.06
8094.58
7716.69
7288.37
6809.61
6280.39
5700.71
5070.53
4389.85
3658.64
1252.03
1194.71
1139.25
1085.54
)


20
(
8606.63
8583.38
8513.63
8397.36
8234.59
8025.29
7769.47
7467.12
7118.22
6722.76
6280.74
5792.13
5256.92
4675.1
4046.66
3371.56
1149.65
1096.72
1045.52
995.929
)


20
(
7765.85
7744.89
7682.04
7577.27
7430.6
7242
7011.49
6739.04
6424.65
6068.31
5670
5229.73
4747.46
4223.19
3656.91
3048.6
1046.48
998.784
952.646
907.965
)


20
(
6817.49
6799.17
6744.2
6652.59
6524.34
6359.42
6157.85
5919.61
5644.7
5333.1
4984.81
4599.82
4178.11
3719.67
3224.5
2692.57
941.857
900.154
859.81
820.739
)


20
(
5772.03
5756.63
5710.43
5633.42
5525.61
5386.99
5217.55
5017.29
4786.2
4524.27
4231.5
3907.88
3553.39
3168.03
2751.79
2304.66
833.013
797.958
764.045
731.202
)


20
(
4638.23
4626
4589.28
4528.1
4442.43
4332.28
4197.65
4038.52
3854.9
3646.78
3414.14
3157
2875.33
2569.12
2238.38
1883.09
713.737
685.883
658.936
632.839
)


20
(
3421.53
3412.65
3386.01
3341.6
3279.43
3199.48
3101.77
2986.28
2853.02
2701.97
2533.13
2346.5
2142.08
1919.85
1679.81
1421.96
573.294
553.078
533.522
514.582
)


20
(
2127.41
2122.02
2105.86
2078.91
2041.19
1992.69
1933.41
1863.34
1782.49
1690.86
1588.43