/*--------------------------------*- C++ -*----------------------------------*\
| =========                 |                                                 |
| \\      /  F ield         | OpenFOAM: The Open Source CFD Toolbox           |
|  \\    /   O peration     | Version:  2212                                  |
|   \\  /    A nd           | Website:  www.openfoam.com                      |
|    \\/     M anipulation  |                                                 |
\*---------------------------------------------------------------------------*/
FoamFile
{
    version     2.0;
    format      ascii;
    arch        "LSB;label=32;scalar=64";
    class       surfaceScalarField;
    location    "59/fluidRegion";
    object      alphaPhi;
}
// * * * * * * * * * * * * * * * * * * * * * * * * * * * * * * * * * * * * * //

dimensions      [0 3 -1 0 0 0 0];

oriented        oriented;

internalField   nonuniform List<scalar> 
661
(
-0.00053901
-1.03667e-12
-0.000538945
-7.80765e-13
-0.000538878
8.76114e-14
-0.000538816
9.63628e-13
-0.000538764
1.44852e-12
-0.000538724
1.38452e-12
-0.000538693
7.89511e-13
-0.000538667
-1.32987e-13
-0.000538638
-1.05198e-12
-0.0005386
-1.6505e-12
-0.000538552
-1.69965e-12
-0.000538493
-1.17952e-12
-0.000538429
-2.67538e-13
-0.000538365
7.49011e-13
-0.000538307
1.5473e-12
-0.000538258
1.89223e-12
-0.000538218
1.71471e-12
-0.000538184
1.08341e-12
-0.000538153
2.19983e-13
-0.000538119
-6.2518e-13
-0.000538081
-1.2263e-12
-0.000538039
-1.44569e-12
-0.000537992
-1.22386e-12
-0.000537945
-4.11125e-13
7.00836e-13
-0.00053901
-0.000538945
-0.000538878
-0.000538816
-0.000538764
-0.000538724
-0.000538693
-0.000538667
-0.000538638
-0.0005386
-0.000538552
-0.000538493
-0.000538429
-0.000538365
-0.000538307
-0.000538258
-0.000538218
-0.000538184
-0.000538153
-0.000538119
-0.000538081
-0.000538039
-0.000537992
-0.000537945
-0.0202272
1.41343e-06
-0.0197993
6.714e-07
-0.019255
7.2754e-07
-0.0186033
6.54645e-07
-0.0178537
5.92559e-07
-0.0170163
5.35057e-07
-0.0161011
4.81818e-07
-0.0151188
4.30229e-07
-0.0140799
3.7455e-07
-0.0129958
3.05346e-07
-0.0118782
2.10765e-07
-0.01074
7.91788e-08
-0.00959548
-9.28707e-08
-0.0084603
-2.91447e-07
-0.00735135
-4.94012e-07
-0.00628581
-6.66399e-07
-0.00527987
-7.81923e-07
-0.00434769
-8.33506e-07
-0.00350085
-8.35083e-07
-0.00274909
-8.11139e-07
-0.00210111
-7.84056e-07
-0.00156629
-7.5896e-07
-0.00115534
-7.24762e-07
-0.000879351
-6.3025e-07
-6.00701e-07
-0.0203572
-4.4358e-08
-3.37799e-08
-0.0199283
-1.80523e-07
-1.73305e-07
-0.0193818
-1.71919e-07
-1.63784e-07
-0.0187271
-1.49799e-07
-1.41198e-07
-0.0179738
-1.30777e-07
-1.21587e-07
-0.0171317
-1.13267e-07
-1.03459e-07
-0.0162113
-9.72809e-08
-8.6791e-08
-0.0152231
-8.21701e-08
-7.08375e-08
-0.0141777
-6.63817e-08
-5.4137e-08
-0.0130865
-4.72406e-08
-3.40177e-08
-0.0119613
-2.10761e-08
-6.68268e-09
-0.010815
1.56265e-08
3.11492e-08
-0.00966195
6.30963e-08
8.03986e-08
-0.00851799
1.22802e-07
1.41761e-07
-0.00740019
1.84524e-07
2.05313e-07
-0.00632599
2.38451e-07
2.61232e-07
-0.00531186
2.7558e-07
3.00484e-07
-0.00437217
2.92957e-07
3.20004e-07
-0.00351867
2.94433e-07
3.23499e-07
-0.0027612
2.87674e-07
3.18024e-07
-0.00210855
2.79252e-07
3.09557e-07
-0.00157015
2.69667e-07
2.97806e-07
-0.00115679
2.51649e-07
2.75914e-07
-0.000879546
1.99227e-07
2.17137e-07
1.5247e-07
1.62577e-07
-0.0202059
6.88821e-07
-0.0197784
6.4929e-07
-0.0192345
6.24683e-07
-0.0185833
5.55441e-07
-0.0178344
4.93506e-07
-0.0169978
4.36569e-07
-0.0160835
3.83845e-07
-0.0151021
3.32347e-07
-0.0140644
2.75629e-07
-0.0129814
2.03471e-07
-0.0118651
1.03123e-07
-0.0107282
-3.62027e-08
-0.00958502
-2.16821e-07
-0.00845123
-4.25531e-07
-0.00734367
-6.35477e-07
-0.00627947
-8.10659e-07
-0.0052748
-9.23884e-07
-0.00434377
-9.69361e-07
-0.00349796
-9.63124e-07
-0.00274706
-9.31178e-07
-0.00209978
-8.94977e-07
-0.00156549
-8.58321e-07
-0.0011549
-7.98287e-07
-0.000879133
-6.61599e-07
-5.39071e-07
-0.0203282
7.75401e-10
-0.0198995
-3.01326e-09
-0.0193535
-2.80227e-09
-0.0186994
-2.78684e-09
-0.0179468
-2.59654e-09
-0.0171058
-2.3723e-09
-0.0161865
-2.15505e-09
-0.0151995
-1.79294e-09
-0.0141556
-1.36776e-09
-0.0130659
-8.77317e-10
-0.0119424
-2.01403e-10
-0.010798
6.54963e-10
-0.00964682
1.60915e-09
-0.00850484
2.66508e-09
-0.00738905
3.77001e-09
-0.00631681
4.87998e-09
-0.00530455
5.98682e-09
-0.00436657
7.02755e-09
-0.0035146
7.76687e-09
-0.00275844
8.12346e-09
-0.00210686
7.98554e-09
-0.00156929
7.16867e-09
-0.00115648
5.80262e-09
-0.000879528
4.06077e-09
2.14045e-09
-0.0203283
-6.8747e-07
-0.0198995
-6.56022e-07
-0.0193535
-6.30788e-07
-0.0186994
-5.61582e-07
-0.0179468
-4.99405e-07
-0.0171058
-4.42204e-07
-0.0161865
-3.89198e-07
-0.0151995
-3.3721e-07
-0.0141556
-2.79908e-07
-0.013066
-2.07042e-07
-0.0119424
-1.05679e-07
-0.010798
3.47297e-08
-0.00964684
2.16763e-07
-0.00850485
4.26972e-07
-0.00738906
6.38498e-07
-0.00631682
8.15319e-07
-0.00530455
9.30305e-07
-0.00436658
9.77617e-07
-0.00351461
9.73066e-07
-0.00275845
9.42559e-07
-0.00210687
9.0743e-07
-0.00156929
8.70984e-07
-0.00115648
8.10288e-07
-0.000879529
6.7133e-07
5.45635e-07
-0.0202059
3.82139e-08
-0.0197784
1.78409e-07
-0.0192345
1.69062e-07
-0.0185833
1.46621e-07
-0.0178345
1.27275e-07
-0.0169978
1.09354e-07
-0.0160835
9.28546e-08
-0.0151022
7.71591e-08
-0.0140644
6.06491e-08
-0.0129814
4.06749e-08
-0.0118651
1.36123e-08
-0.0107282
-2.39995e-08
-0.00958503
-7.27171e-08
-0.00845124
-1.33646e-07
-0.00734368
-1.9664e-07
-0.00627947
-2.51771e-07
-0.0052748
-2.89886e-07
-0.00434378
-3.07814e-07
-0.00349796
-3.0936e-07
-0.00274706
-3.019e-07
-0.00209978
-2.9211e-07
-0.00156549
-2.80294e-07
-0.0011549
-2.59689e-07
-0.000879131
-2.0416e-07
-1.53063e-07
-0.0203572
-1.41401e-06
-3.72498e-08
-0.0199283
-6.72265e-07
-1.72022e-07
-0.0193818
-7.28527e-07
-1.62955e-07
-0.0187271
-6.55689e-07
-1.4049e-07
-0.0179738
-5.93574e-07
-1.21183e-07
-0.0171317
-5.36073e-07
-1.034e-07
-0.0162113
-4.82855e-07
-8.71157e-08
-0.0152231
-4.31242e-07
-7.17133e-08
-0.0141777
-3.75569e-07
-5.56635e-08
-0.0130865
-3.06356e-07
-3.6322e-08
-0.0119613
-2.1166e-07
-1.00335e-08
-0.010815
-7.98634e-08
2.68272e-08
-0.00966195
9.25653e-08
7.43735e-08
-0.00851799
2.9158e-07
1.33893e-07
-0.00740019
4.94852e-07
1.95219e-07
-0.00632599
6.68351e-07
2.48397e-07
-0.00531186
7.85623e-07
2.84163e-07
-0.00437217
8.39865e-07
2.99294e-07
-0.00351867
8.45252e-07
2.97422e-07
-0.0027612
8.26517e-07
2.85904e-07
-0.00210855
8.0641e-07
2.70607e-07
-0.00157015
7.88543e-07
2.53747e-07
-0.00115679
7.60913e-07
2.29635e-07
-0.000879546
6.67099e-07
1.75602e-07
6.33457e-07
1.33178e-07
-0.0202272
-0.0197993
-0.019255
-0.0186033
-0.0178537
-0.0170163
-0.0161011
-0.0151188
-0.0140799
-0.0129958
-0.0118782
-0.01074
-0.00959548
-0.0084603
-0.00735135
-0.0062858
-0.00527987
-0.00434769
-0.00350085
-0.00274909
-0.00210111
-0.00156629
-0.00115534
-0.000879351
-0.0203282
-6.98018e-07
6.58738e-09
-0.0198995
-6.59907e-07
3.78061e-09
-0.0193535
-6.35831e-07
4.39702e-09
-0.0186994
-5.66985e-07
4.74061e-09
-0.0179468
-5.0531e-07
5.05417e-09
-0.0171058
-4.48664e-07
5.43761e-09
-0.0161865
-3.96295e-07
5.92923e-09
-0.0151995
-3.4509e-07
6.4714e-09
-0.0141556
-2.88654e-07
7.15157e-09
-0.0130659
-2.16728e-07
7.98596e-09
-0.0119424
-1.16477e-07
8.95087e-09
-0.010798
2.26131e-08
9.59405e-09
-0.00964682
2.02964e-07
1.114e-08
-0.00850484
4.11413e-07
1.27039e-08
-0.00738905
6.20847e-07
1.46556e-08
-0.00631682
7.95154e-07
1.70943e-08
-0.00530455
9.06927e-07
2.01221e-08
-0.00436657
9.50112e-07
2.38464e-08
-0.0035146
9.40073e-07
2.85973e-08
-0.00275844
9.0292e-07
3.40804e-08
-0.00210686
8.59148e-07
4.02874e-08
-0.00156929
8.14773e-07
4.48771e-08
-0.00115648
7.4849e-07
4.69773e-08
-0.000879528
6.12528e-07
4.16907e-08
5.01276e-07
2.92691e-08
-0.0202059
-0.0197784
-0.0192345
-0.0185833
-0.0178344
-0.0169978
-0.0160835
-0.0151021
-0.0140644
-0.0129814
-0.0118651
-0.0107282
-0.00958502
-0.00845123
-0.00734367
-0.00627947
-0.0052748
-0.00434377
-0.00349796
-0.00274706
-0.00209978
-0.00156549
-0.0011549
-0.000879133
-0.0202059
6.84265e-07
-0.0197784
6.52609e-07
-0.0192345
6.27161e-07
-0.0185833
5.57798e-07
-0.0178345
4.95621e-07
-0.0169978
4.38347e-07
-0.0160835
3.85187e-07
-0.0151022
3.33122e-07
-0.0140644
2.75674e-07
-0.0129814
2.0264e-07
-0.0118651
1.0123e-07
-0.0107282
-3.8888e-08
-0.00958503
-2.21168e-07
-0.00845124
-4.315e-07
-0.00734367
-6.43136e-07
-0.00627947
-8.19964e-07
-0.0052748
-9.34627e-07
-0.00434378
-9.80923e-07
-0.00349796
-9.74472e-07
-0.00274706
-9.40616e-07
-0.00209978
-9.01061e-07
-0.00156549
-8.58797e-07
-0.0011549
-7.91892e-07
-0.000879131
-6.49292e-07
-5.21208e-07
-0.0203283
-0.0198995
-0.0193535
-0.0186994
-0.0179468
-0.0171058
-0.0161865
-0.0151995
-0.0141556
-0.013066
-0.0119424
-0.010798
-0.00964683
-0.00850485
-0.00738906
-0.00631682
-0.00530455
-0.00436658
-0.00351461
-0.00275844
-0.00210686
-0.00156929
-0.00115648
-0.000879529
)
;

boundaryField
{
    outletCentralUnloaded
    {
        type            calculated;
        value           nonuniform List<scalar> 2(0.000539063 0.000539063);
    }
    inletCentralUnloaded
    {
        type            calculated;
        value           uniform -0.000540134;
    }
    outletFuelElement
    {
        type            calculated;
        value           nonuniform List<scalar> 
12
(
0.0205679
0.020701
0.0205471
0.0206712
0.0206713
0.0205471
0.020701
0.0205679
0.0206712
0.0205471
0.0205471
0.0206713
)
;
    }
    inletFuelElement
    {
        type            calculated;
        value           nonuniform List<scalar> 
12
(
-0.000722059
-0.00072206
-0.000722059
-0.000722059
-0.00072206
-0.000722059
-0.00072206
-0.000722059
-0.000722059
-0.000722059
-0.000722059
-0.00072206
)
;
    }
    defaultFaces
    {
        type            calculated;
        value           nonuniform List<scalar> 
450
(
2.8499e-23
-6.91006e-24
0
1.40817e-23
-6.24092e-24
0
1.2404e-23
1.5627e-23
0
-5.27799e-23
-8.96527e-24
0
-1.99155e-23
-4.5191e-23
0
-2.41178e-23
-1.30168e-23
0
-2.87761e-23
-2.15859e-23
0
-3.07117e-23
-1.67666e-23
0
-2.50239e-23
-5.758e-24
0
-2.28983e-23
-8.02754e-24
0
-1.15354e-23
-1.08933e-24
0
-4.78588e-24
-1.55168e-24
0
7.52244e-24
4.70846e-24
0
2.09971e-23
1.08963e-23
0
3.87003e-23
8.32687e-24
0
5.08192e-23
2.01262e-23
0
5.80322e-23
-1.23825e-23
0
5.32306e-23
4.86353e-23
0
4.03943e-23
-6.87168e-23
0
-2.81033e-23
-1.00934e-23
0
-2.35727e-23
-1.40951e-23
0
3.71498e-23
-3.0349e-25
0
-1.82195e-23
-6.02737e-24
0
-2.50041e-23
-2.73264e-23
0
-1.34896e-23
-1.95599e-23
0
2.60738e-23
0
3.20908e-23
0
-8.0227e-24
0
2.40681e-23
0
-1.2034e-23
0
8.0227e-24
0
1.2034e-23
0
4.01135e-24
0
-2.00567e-24
0
6.01702e-24
0
2.00567e-24
0
-1.00284e-24
0
-4.01135e-24
0
-1.60454e-23
0
-1.60454e-23
0
-4.01135e-23
0
6.41816e-23
0
-1.60454e-23
0
1.60454e-23
0
-3.20908e-23
0
-3.20908e-23
0
4.81362e-23
0
2.40681e-23
0
-2.40681e-23
0
-1.60454e-23
0
0
-8.0227e-24
0
-8.0227e-24
8.0227e-24
-8.0227e-24
0
-4.01135e-24
4.01135e-24
-4.01135e-24
-2.00567e-24
1.00284e-24
4.01135e-24
0
2.40681e-23
0
-3.20908e-23
1.60454e-23
-4.81362e-23
-1.60454e-23
1.60454e-23
-3.20908e-23
-3.20908e-23
8.0227e-24
0
0
0
0
0
0
0
0
0
0
0
0
0
0
0
0
0
0
0
0
0
0
0
0
0
0
-2.60738e-23
2.40681e-23
0
2.40681e-23
2.40681e-23
4.81362e-23
-1.60454e-23
-1.2034e-23
1.60454e-23
-8.0227e-24
-1.2034e-23
-8.0227e-24
-1.2034e-23
-4.01135e-24
-8.0227e-24
-1.2034e-23
1.80511e-23
-8.0227e-24
-2.00567e-24
-4.01135e-24
-2.50709e-24
-2.00567e-24
1.00284e-24
2.00567e-24
8.0227e-24
2.00567e-24
8.0227e-24
1.60454e-23
1.60454e-23
1.60454e-23
1.60454e-23
2.40681e-23
-3.20908e-23
5.61589e-23
3.20908e-23
2.40681e-23
-6.41816e-23
5.61589e-23
-4.81362e-23
-3.20908e-23
-1.60454e-23
-2.40681e-23
-4.01135e-23
3.20908e-23
-2.40681e-23
-2.40681e-23
0
-2.00567e-23
-2.40681e-23
-8.0227e-24
4.28858e-23
0
-3.20908e-23
1.56853e-23
0
0
1.24783e-23
0
-6.41816e-23
-6.27078e-23
0
1.60454e-23
9.47205e-24
0
0
-4.76319e-23
0
8.0227e-24
-4.63966e-23
0
8.0227e-24
-3.62227e-23
0
8.0227e-24
-2.43189e-23
0
-1.60454e-23
-2.57849e-23
0
0
-1.59288e-23
0
0
-6.7627e-24
0
1.00284e-24
8.40347e-24
-0
-2.00567e-24
2.57404e-23
-0
0
5.09644e-23
-0
0
5.18858e-23
-0
-2.40681e-23
5.67885e-23
-0
0
7.27255e-23
-0
-3.20908e-23
5.06037e-23
-0
-1.60454e-23
-4.66589e-23
-0
1.60454e-23
1.17026e-24
-0
0
3.30925e-23
-0
0
-2.37103e-23
-0
-1.60454e-23
-9.9438e-24
-0
1.60454e-23
-8.07046e-24
-0
0
-1.60454e-23
-1.60454e-23
8.0227e-24
-1.60454e-23
1.60454e-23
-8.0227e-24
-1.60454e-23
-8.0227e-24
0
0
-4.01135e-24
2.50709e-25
4.01135e-24
8.0227e-24
8.0227e-24
1.60454e-23
-3.20908e-23
0
-3.20908e-23
1.60454e-23
0
-3.20908e-23
-3.20908e-23
0
8.0227e-24
2.40681e-23
0
1.60454e-23
0
0
0
2.00567e-23
0
-1.2034e-23
0
1.2034e-23
0
1.2034e-23
0
1.00284e-23
0
2.00567e-24
0
8.0227e-24
0
5.01419e-24
0
-2.00567e-24
0
0
-0
-1.2034e-23
-0
-2.40681e-23
-0
-1.60454e-23
-0
4.81362e-23
-0
-3.20908e-23
-0
4.81362e-23
-0
-2.40681e-23
-0
-4.01135e-23
-0
3.20908e-23
-0
0
-0
-3.20908e-23
-0
-1.60454e-23
-0
-3.00851e-23
1.60454e-23
-1.60454e-23
2.40681e-23
-1.60454e-23
2.40681e-23
-1.2034e-23
-4.01135e-23
-4.01135e-24
1.60454e-23
-1.2034e-23
-3.20908e-23
-8.0227e-24
-3.20908e-23
-8.0227e-24
-2.00567e-23
2.00567e-24
-1.2034e-23
-8.0227e-24
-1.40397e-23
-3.76064e-24
-4.01135e-24
1.00284e-24
6.76915e-24
0
1.80511e-23
1.60454e-23
4.01135e-23
8.0227e-24
6.41816e-23
2.40681e-23
7.22043e-23
0
4.01135e-23
1.60454e-23
8.82497e-23
0
3.20908e-23
0
-4.81362e-23
0
-4.01135e-23
-1.60454e-23
4.01135e-23
2.40681e-23
-2.40681e-23
0
-1.60454e-23
8.0227e-24
-1.60454e-23
-0
-0
-0
-0
-0
-0
-0
-0
-0
-0
-0
0
0
0
0
0
0
0
0
0
0
0
0
0
0
)
;
    }
    baffle_master
    {
        type            calculated;
        value           nonuniform List<scalar> 
150
(
1.91147e-29
0
2.28934e-29
7.0062e-30
0
1.14467e-29
-1.12555e-30
0
1.43084e-30
-1.73401e-29
0
0
8.91253e-29
0
6.86801e-29
-1.74732e-30
0
0
-7.59634e-30
0
0
-6.60083e-31
0
0
2.67887e-29
0
-2.28934e-29
4.09549e-30
0
0
1.21783e-30
0
0
5.42659e-30
0
0
-1.58865e-30
0
0
-8.45446e-30
0
-1.14467e-29
-1.08409e-29
0
-2.28934e-29
-1.62712e-29
0
2.28934e-29
-1.69391e-28
0
-6.86801e-29
-5.52366e-30
0
2.28934e-29
-1.22533e-29
0
-5.72334e-30
7.38596e-30
0
1.14467e-29
1.04882e-29
0
0
-9.01091e-29
0
-2.28934e-29
1.13464e-29
0
0
-1.18113e-30
0
5.72334e-30
-1.33792e-30
0
-1.14467e-29
0
-4.58852e-29
0
1.14467e-29
-3.46069e-29
0
-1.43084e-30
3.02117e-30
-0
-2.28934e-29
2.76674e-29
-0
2.28934e-29
-9.05545e-30
-0
-2.28934e-29
4.6455e-29
-0
0
2.16743e-29
-0
0
-4.50051e-30
0
-2.28934e-29
-3.93273e-29
0
2.28934e-29
-6.97262e-29
0
4.57867e-29
-7.44486e-29
0
2.28934e-29
-2.7718e-29
0
5.72334e-30
-8.54693e-30
0
0
3.61889e-29
-0
-2.28934e-29
5.7599e-29
-0
-4.57867e-29
5.22753e-29
-0
9.15735e-29
5.50039e-29
-0
2.28934e-29
4.50578e-29
-0
0
1.31146e-30
-0
0
2.54115e-29
0
0
3.29253e-29
0
-4.57867e-29
8.11494e-29
0
-4.57867e-29
-2.77676e-29
0
0
1.0694e-29
0
0
-2.14538e-29
-0
)
;
    }
    baffle_slave
    {
        type            calculated;
        value           nonuniform List<scalar> 
150
(
1.35383e-23
-0
0
-1.00284e-24
-0
0
3.00851e-24
-0
0
-1.25355e-24
-0
8.0227e-24
-2.70766e-23
-0
-2.40681e-23
-2.00567e-24
-0
0
-1.50426e-24
-0
0
-1.00284e-24
-0
-4.01135e-24
3.50993e-24
-0
4.01135e-24
-2.00567e-24
-0
4.01135e-24
0
-0
-2.00567e-24
-1.00284e-24
0
1.00284e-24
-5.01419e-25
0
-8.0227e-24
0
0
0
4.01135e-24
0
8.0227e-24
-3.00851e-24
0
-1.60454e-23
-5.31504e-23
0
-4.81362e-23
-3.00851e-24
0
0
-3.20908e-23
0
-3.20908e-23
-4.01135e-24
0
-1.60454e-23
4.01135e-24
0
0
2.80794e-23
0
4.81362e-23
-4.01135e-24
0
1.60454e-23
4.01135e-24
0
0
0
0
-8.0227e-24
-7.71646e-24
4.37174e-23
0
-7.93573e-24
1.10312e-23
0
8.14322e-24
1.62961e-23
0
-6.3372e-24
1.10312e-23
0
-7.15061e-24
-2.63245e-23
0
-1.01266e-23
1.70482e-23
0
-3.61055e-24
2.05582e-23
0
-5.24652e-24
1.50426e-23
0
1.02354e-23
1.07805e-23
0
3.62989e-24
9.52696e-24
0
-2.84528e-25
5.13954e-24
0
2.75062e-25
5.13954e-24
0
3.94028e-24
-6.26773e-25
0
-3.18867e-24
-4.64596e-24
0
1.3734e-23
-1.1846e-23
0
2.55762e-23
-1.51679e-23
0
-3.62414e-23
-1.93046e-23
0
8.25094e-24
-1.10312e-23
0
-3.9035e-23
-5.01419e-25
0
1.68851e-23
9.52696e-24
0
2.30893e-24
1.50426e-23
0
-1.78218e-23
3.81078e-23
0
-1.60535e-23
-1.40397e-23
0
-4.24971e-24
8.0227e-24
0
1.34762e-23
1.50426e-23
0
)
;
    }
}


// ************************************************************************* //
