/*--------------------------------*- C++ -*----------------------------------*\
| =========                 |                                                 |
| \\      /  F ield         | OpenFOAM: The Open Source CFD Toolbox           |
|  \\    /   O peration     | Version:  2212                                  |
|   \\  /    A nd           | Website:  www.openfoam.com                      |
|    \\/     M anipulation  |                                                 |
\*---------------------------------------------------------------------------*/
FoamFile
{
    version     2.0;
    format      ascii;
    arch        "LSB;label=32;scalar=64";
    class       volScalarField;
    location    "59/fluidRegion";
    object      heatFlux.structure;
}
// * * * * * * * * * * * * * * * * * * * * * * * * * * * * * * * * * * * * * //

dimensions      [1 0 -3 0 0 0 0];

internalField   nonuniform List<scalar> 
350
(
-258328
-258325
-258320
-258315
-258313
-258315
-258322
-258331
-258340
-258347
-258351
-258350
-258347
-258342
-258338
-258338
-258341
-258346
-258353
-258361
-258367
-258371
-258374
-258375
-258806
-258328
-258325
-258320
-258315
-258313
-258315
-258322
-258331
-258340
-258347
-258351
-258350
-258347
-258342
-258338
-258338
-258341
-258346
-258353
-258361
-258367
-258371
-258374
-258375
-258806
448720
1.34252e+06
2.21512e+06
3.05276e+06
3.84223e+06
4.57109e+06
5.22784e+06
5.80212e+06
6.28489e+06
6.66851e+06
6.94696e+06
7.11583e+06
7.17247e+06
7.11599e+06
6.94726e+06
6.66897e+06
6.28548e+06
5.80286e+06
5.22868e+06
4.57208e+06
3.84334e+06
3.054e+06
2.21646e+06
1.34401e+06
450515
453837
1.35787e+06
2.24047e+06
3.08771e+06
3.88623e+06
4.62344e+06
5.28771e+06
5.86857e+06
6.35686e+06
6.74489e+06
7.02653e+06
7.19733e+06
7.25462e+06
7.19749e+06
7.02683e+06
6.74535e+06
6.35748e+06
5.86933e+06
5.28857e+06
4.62445e+06
3.88736e+06
3.08898e+06
2.24184e+06
1.35941e+06
455673
447905
1.34007e+06
2.21108e+06
3.04719e+06
3.83523e+06
4.56276e+06
5.21831e+06
5.79154e+06
6.27342e+06
6.65635e+06
6.93429e+06
7.10286e+06
7.15939e+06
7.10301e+06
6.93459e+06
6.6568e+06
6.27402e+06
5.79228e+06
5.21915e+06
4.56374e+06
3.83633e+06
3.04843e+06
2.21241e+06
1.34156e+06
449694
452659
1.35434e+06
2.23463e+06
3.07966e+06
3.8761e+06
4.61139e+06
5.27393e+06
5.85328e+06
6.3403e+06
6.72731e+06
7.00821e+06
7.17857e+06
7.23571e+06
7.17873e+06
7.00852e+06
6.72777e+06
6.3409e+06
5.85403e+06
5.27479e+06
4.6124e+06
3.87723e+06
3.08093e+06
2.236e+06
1.35586e+06
454486
452659
1.35434e+06
2.23463e+06
3.07966e+06
3.8761e+06
4.61139e+06
5.27393e+06
5.85328e+06
6.3403e+06
6.72731e+06
7.00821e+06
7.17857e+06
7.23571e+06
7.17873e+06
7.00852e+06
6.72777e+06
6.3409e+06
5.85403e+06
5.27479e+06
4.6124e+06
3.87723e+06
3.08093e+06
2.236e+06
1.35586e+06
454486
447905
1.34007e+06
2.21108e+06
3.04719e+06
3.83523e+06
4.56276e+06
5.21831e+06
5.79154e+06
6.27343e+06
6.65635e+06
6.93429e+06
7.10286e+06
7.15939e+06
7.10301e+06
6.93459e+06
6.6568e+06
6.27402e+06
5.79228e+06
5.21915e+06
4.56374e+06
3.83633e+06
3.04843e+06
2.21242e+06
1.34156e+06
449694
453837
1.35787e+06
2.24047e+06
3.08771e+06
3.88623e+06
4.62344e+06
5.28771e+06
5.86857e+06
6.35686e+06
6.74489e+06
7.02652e+06
7.19733e+06
7.25462e+06
7.19749e+06
7.02683e+06
6.74535e+06
6.35748e+06
5.86933e+06
5.28857e+06
4.62445e+06
3.88736e+06
3.08898e+06
2.24184e+06
1.35941e+06
455673
448720
1.34252e+06
2.21512e+06
3.05276e+06
3.84223e+06
4.57109e+06
5.22784e+06
5.80212e+06
6.28489e+06
6.66851e+06
6.94696e+06
7.11583e+06
7.17247e+06
7.11599e+06
6.94726e+06
6.66897e+06
6.28548e+06
5.80286e+06
5.22868e+06
4.57208e+06
3.84334e+06
3.054e+06
2.21646e+06
1.34401e+06
450515
452658
1.35434e+06
2.23463e+06
3.07966e+06
3.8761e+06
4.61139e+06
5.27393e+06
5.85328e+06
6.3403e+06
6.72731e+06
7.00821e+06
7.17857e+06
7.23571e+06
7.17873e+06
7.00852e+06
6.72777e+06
6.3409e+06
5.85403e+06
5.27479e+06
4.6124e+06
3.87723e+06
3.08093e+06
2.236e+06
1.35586e+06
454486
447905
1.34007e+06
2.21108e+06
3.04719e+06
3.83523e+06
4.56276e+06
5.21831e+06
5.79154e+06
6.27342e+06
6.65635e+06
6.93429e+06
7.10286e+06
7.15939e+06
7.10301e+06
6.93459e+06
6.6568e+06
6.27402e+06
5.79228e+06
5.21915e+06
4.56374e+06
3.83633e+06
3.04843e+06
2.21242e+06
1.34156e+06
449694
447905
1.34007e+06
2.21108e+06
3.04719e+06
3.83523e+06
4.56276e+06
5.21831e+06
5.79154e+06
6.27343e+06
6.65635e+06
6.93429e+06
7.10286e+06
7.15939e+06
7.10301e+06
6.93459e+06
6.6568e+06
6.27402e+06
5.79228e+06
5.21915e+06
4.56374e+06
3.83633e+06
3.04843e+06
2.21241e+06
1.34156e+06
449694
452658
1.35434e+06
2.23463e+06
3.07966e+06
3.8761e+06
4.61139e+06
5.27393e+06
5.85328e+06
6.3403e+06
6.72731e+06
7.00821e+06
7.17857e+06
7.23571e+06
7.17873e+06
7.00852e+06
6.72777e+06
6.3409e+06
5.85402e+06
5.27479e+06
4.6124e+06
3.87723e+06
3.08093e+06
2.236e+06
1.35586e+06
454486
)
;

boundaryField
{
    outletCentralUnloaded
    {
        type            zeroGradient;
    }
    inletCentralUnloaded
    {
        type            zeroGradient;
    }
    outletFuelElement
    {
        type            zeroGradient;
    }
    inletFuelElement
    {
        type            zeroGradient;
    }
    defaultFaces
    {
        type            zeroGradient;
    }
    baffle_master
    {
        type            zeroGradient;
    }
    baffle_slave
    {
        type            zeroGradient;
    }
}


// ************************************************************************* //
