/*--------------------------------*- C++ -*----------------------------------*\
| =========                 |                                                 |
| \\      /  F ield         | OpenFOAM: The Open Source CFD Toolbox           |
|  \\    /   O peration     | Version:  2212                                  |
|   \\  /    A nd           | Website:  www.openfoam.com                      |
|    \\/     M anipulation  |                                                 |
\*---------------------------------------------------------------------------*/
FoamFile
{
    version     2.0;
    format      ascii;
    arch        "LSB;label=32;scalar=64";
    class       volScalarField;
    location    "59/fluidRegion";
    object      k;
}
// * * * * * * * * * * * * * * * * * * * * * * * * * * * * * * * * * * * * * //

dimensions      [0 2 -2 0 0 0 0];

internalField   nonuniform List<scalar> 
350
(
0.421092
0.42102
0.420949
0.420879
0.420809
0.42074
0.42067
0.420602
0.420535
0.42047
0.420408
0.420349
0.420295
0.420245
0.420204
0.420175
0.420164
0.420181
0.420244
0.420377
0.420618
0.421025
0.421685
0.422734
0.424374
0.421092
0.42102
0.420949
0.420879
0.420809
0.42074
0.42067
0.420602
0.420535
0.42047
0.420408
0.420349
0.420295
0.420245
0.420204
0.420175
0.420164
0.420181
0.420244
0.420377
0.420618
0.421025
0.421685
0.422734
0.424374
406.759
384.17
358.479
330.196
300.106
268.986
237.584
206.601
176.674
148.367
122.156
98.4221
77.4379
59.3596
44.2191
31.9238
22.2686
14.9599
9.64869
5.96535
3.54983
2.07265
1.25012
0.853305
0.713272
412.48
389.626
363.631
334.994
304.511
272.972
241.136
209.714
179.353
150.625
124.017
99.9162
78.6023
60.237
44.8554
32.3656
22.5606
15.1422
9.75491
6.02217
3.57702
2.08385
1.25389
0.854334
0.713659
405.812
383.265
357.628
329.407
299.384
268.335
237.006
206.096
176.242
148.004
121.858
98.1833
77.2523
59.2201
44.118
31.8536
22.2221
14.9307
9.6315
5.95594
3.54511
2.07052
1.24924
0.852968
0.713143
411.224
388.425
362.494
333.932
303.534
272.086
240.345
209.019
178.753
150.119
123.599
99.5795
78.3392
60.0383
44.711
32.2652
22.4942
15.1006
9.7307
6.00923
3.57083
2.08132
1.25305
0.854118
0.713582
411.224
388.425
362.494
333.932
303.534
272.086
240.345
209.019
178.753
150.119
123.599
99.5795
78.3392
60.0383
44.711
32.2652
22.4942
15.1006
9.7307
6.00922
3.57083
2.08132
1.25305
0.854119
0.713583
405.812
383.265
357.629
329.407
299.384
268.335
237.006
206.096
176.242
148.004
121.858
98.1834
77.2523
59.2201
44.1181
31.8536
22.2221
14.9307
9.63149
5.95593
3.5451
2.07051
1.24924
0.852962
0.713139
412.48
389.626
363.631
334.994
304.511
272.972
241.136
209.714
179.353
150.625
124.017
99.9162
78.6023
60.237
44.8554
32.3656
22.5606
15.1422
9.75491
6.02217
3.57702
2.08385
1.25389
0.854335
0.713661
406.759
384.17
358.479
330.196
300.106
268.986
237.584
206.601
176.674
148.367
122.156
98.4221
77.4378
59.3596
44.2191
31.9238
22.2686
14.9599
9.64868
5.96534
3.54981
2.07264
1.25011
0.853293
0.71326
411.224
388.425
362.494
333.932
303.534
272.086
240.345
209.019
178.753
150.119
123.599
99.5795
78.3392
60.0383
44.711
32.2652
22.4942
15.1006
9.7307
6.00922
3.57083
2.08131
1.25305
0.854114
0.713578
405.812
383.265
357.628
329.407
299.384
268.335
237.006
206.096
176.242
148.004
121.858
98.1833
77.2523
59.2201
44.1181
31.8537
22.2221
14.9308
9.63152
5.95597
3.54514
2.07054
1.24927
0.852992
0.713166
405.812
383.265
357.629
329.407
299.384
268.335
237.006
206.096
176.242
148.004
121.858
98.1834
77.2523
59.2201
44.118
31.8536
22.2221
14.9307
9.63148
5.95592
3.5451
2.07051
1.24924
0.852966
0.713144
411.224
388.425
362.494
333.932
303.534
272.086
240.345
209.019
178.753
150.119
123.599
99.5794
78.3392
60.0383
44.711
32.2652
22.4942
15.1006
9.73068
6.0092
3.57081
2.0813
1.25303
0.854099
0.713564
)
;

boundaryField
{
    outletCentralUnloaded
    {
        type            zeroGradient;
    }
    inletCentralUnloaded
    {
        type            zeroGradient;
    }
    outletFuelElement
    {
        type            zeroGradient;
    }
    inletFuelElement
    {
        type            zeroGradient;
    }
    defaultFaces
    {
        type            zeroGradient;
    }
    baffle_master
    {
        type            zeroGradient;
    }
    baffle_slave
    {
        type            zeroGradient;
    }
}


// ************************************************************************* //
