/*--------------------------------*- C++ -*----------------------------------*\
| =========                 |                                                 |
| \\      /  F ield         | OpenFOAM: The Open Source CFD Toolbox           |
|  \\    /   O peration     | Version:  2212                                  |
|   \\  /    A nd           | Website:  www.openfoam.com                      |
|    \\/     M anipulation  |                                                 |
\*---------------------------------------------------------------------------*/
FoamFile
{
    version     2.0;
    format      ascii;
    arch        "LSB;label=32;scalar=64";
    class       volScalarField;
    location    "59/fluidRegion";
    object      p_rgh;
}
// * * * * * * * * * * * * * * * * * * * * * * * * * * * * * * * * * * * * * //

dimensions      [1 -1 -2 0 0 0 0];

internalField   nonuniform List<scalar> 
350
(
3.44743e+06
3.44772e+06
3.44802e+06
3.44831e+06
3.44861e+06
3.44891e+06
3.44921e+06
3.4495e+06
3.4498e+06
3.45009e+06
3.45039e+06
3.45068e+06
3.45097e+06
3.45127e+06
3.45157e+06
3.45186e+06
3.45216e+06
3.45245e+06
3.45275e+06
3.45304e+06
3.45334e+06
3.45363e+06
3.45393e+06
3.45422e+06
3.45451e+06
3.44743e+06
3.44772e+06
3.44802e+06
3.44831e+06
3.44861e+06
3.44891e+06
3.44921e+06
3.4495e+06
3.4498e+06
3.45009e+06
3.45039e+06
3.45068e+06
3.45097e+06
3.45127e+06
3.45157e+06
3.45186e+06
3.45216e+06
3.45245e+06
3.45275e+06
3.45304e+06
3.45334e+06
3.45363e+06
3.45393e+06
3.45422e+06
3.45451e+06
3.47385e+06
3.52568e+06
3.5769e+06
3.62721e+06
3.67629e+06
3.72387e+06
3.76968e+06
3.81348e+06
3.85508e+06
3.89428e+06
3.93091e+06
3.96485e+06
3.99599e+06
4.02424e+06
4.04955e+06
4.07194e+06
4.09143e+06
4.10812e+06
4.12216e+06
4.13371e+06
4.14297e+06
4.15017e+06
4.15555e+06
4.15941e+06
4.16208e+06
3.47385e+06
3.52568e+06
3.5769e+06
3.62721e+06
3.67629e+06
3.72387e+06
3.76968e+06
3.81348e+06
3.85508e+06
3.89428e+06
3.93091e+06
3.96485e+06
3.99599e+06
4.02424e+06
4.04955e+06
4.07194e+06
4.09143e+06
4.10812e+06
4.12216e+06
4.13371e+06
4.14297e+06
4.15017e+06
4.15555e+06
4.15941e+06
4.16208e+06
3.47385e+06
3.52568e+06
3.5769e+06
3.62721e+06
3.67629e+06
3.72387e+06
3.76968e+06
3.81348e+06
3.85508e+06
3.89428e+06
3.93091e+06
3.96485e+06
3.99599e+06
4.02424e+06
4.04955e+06
4.07194e+06
4.09143e+06
4.10812e+06
4.12216e+06
4.13371e+06
4.14297e+06
4.15017e+06
4.15555e+06
4.15941e+06
4.16208e+06
3.47385e+06
3.52568e+06
3.5769e+06
3.62721e+06
3.67629e+06
3.72387e+06
3.76968e+06
3.81348e+06
3.85508e+06
3.89428e+06
3.93091e+06
3.96485e+06
3.99599e+06
4.02424e+06
4.04955e+06
4.07194e+06
4.09143e+06
4.10812e+06
4.12216e+06
4.13371e+06
4.14297e+06
4.15017e+06
4.15555e+06
4.15941e+06
4.16208e+06
3.47385e+06
3.52568e+06
3.5769e+06
3.62721e+06
3.67629e+06
3.72387e+06
3.76968e+06
3.81348e+06
3.85508e+06
3.89428e+06
3.93091e+06
3.96485e+06
3.99599e+06
4.02424e+06
4.04955e+06
4.07194e+06
4.09143e+06
4.10812e+06
4.12216e+06
4.13371e+06
4.14297e+06
4.15017e+06
4.15555e+06
4.15941e+06
4.16208e+06
3.47385e+06
3.52568e+06
3.5769e+06
3.62721e+06
3.67629e+06
3.72387e+06
3.76968e+06
3.81348e+06
3.85508e+06
3.89428e+06
3.93091e+06
3.96485e+06
3.99599e+06
4.02424e+06
4.04955e+06
4.07194e+06
4.09143e+06
4.10812e+06
4.12216e+06
4.13371e+06
4.14297e+06
4.15017e+06
4.15555e+06
4.15941e+06
4.16208e+06
3.47385e+06
3.52568e+06
3.5769e+06
3.62721e+06
3.67629e+06
3.72387e+06
3.76968e+06
3.81348e+06
3.85508e+06
3.89428e+06
3.93091e+06
3.96485e+06
3.99599e+06
4.02424e+06
4.04955e+06
4.07194e+06
4.09143e+06
4.10812e+06
4.12216e+06
4.13371e+06
4.14297e+06
4.15017e+06
4.15555e+06
4.15941e+06
4.16208e+06
3.47385e+06
3.52568e+06
3.5769e+06
3.62721e+06
3.67629e+06
3.72387e+06
3.76968e+06
3.81348e+06
3.85508e+06
3.89428e+06
3.93091e+06
3.96485e+06
3.99599e+06
4.02424e+06
4.04955e+06
4.07194e+06
4.09143e+06
4.10812e+06
4.12216e+06
4.13371e+06
4.14297e+06
4.15017e+06
4.15555e+06
4.15941e+06
4.16208e+06
3.47385e+06
3.52568e+06
3.5769e+06
3.62721e+06
3.67629e+06
3.72387e+06
3.76968e+06
3.81348e+06
3.85508e+06
3.89428e+06
3.93091e+06
3.96485e+06
3.99599e+06
4.02424e+06
4.04955e+06
4.07194e+06
4.09143e+06
4.10812e+06
4.12216e+06
4.13371e+06
4.14297e+06
4.15017e+06
4.15555e+06
4.15941e+06
4.16208e+06
3.47385e+06
3.52568e+06
3.5769e+06
3.62721e+06
3.67629e+06
3.72387e+06
3.76968e+06
3.81348e+06
3.85508e+06
3.89428e+06
3.93091e+06
3.96485e+06
3.99599e+06
4.02424e+06
4.04955e+06
4.07194e+06
4.09143e+06
4.10812e+06
4.12216e+06
4.13371e+06
4.14297e+06
4.15017e+06
4.15555e+06
4.15941e+06
4.16208e+06
3.47385e+06
3.52568e+06
3.5769e+06
3.62721e+06
3.67629e+06
3.72387e+06
3.76968e+06
3.81348e+06
3.85508e+06
3.89428e+06
3.93091e+06
3.96485e+06
3.99599e+06
4.02424e+06
4.04955e+06
4.07194e+06
4.09143e+06
4.10812e+06
4.12216e+06
4.13371e+06
4.14297e+06
4.15017e+06
4.15555e+06
4.15941e+06
4.16208e+06
3.47385e+06
3.52568e+06
3.5769e+06
3.62721e+06
3.67629e+06
3.72387e+06
3.76968e+06
3.81348e+06
3.85508e+06
3.89428e+06
3.93091e+06
3.96485e+06
3.99599e+06
4.02424e+06
4.04955e+06
4.07194e+06
4.09143e+06
4.10812e+06
4.12216e+06
4.13371e+06
4.14297e+06
4.15017e+06
4.15555e+06
4.15941e+06
4.16208e+06
)
;

boundaryField
{
    outletCentralUnloaded
    {
        type            fixedValue;
        value           uniform 3.44728e+06;
    }
    inletCentralUnloaded
    {
        type            zeroGradient;
    }
    outletFuelElement
    {
        type            fixedValue;
        value           uniform 3.44728e+06;
    }
    inletFuelElement
    {
        type            zeroGradient;
    }
    defaultFaces
    {
        type            zeroGradient;
    }
    baffle_master
    {
        type            zeroGradient;
    }
    baffle_slave
    {
        type            zeroGradient;
    }
}


// ************************************************************************* //
