/*--------------------------------*- C++ -*----------------------------------*\
| =========                 |                                                 |
| \\      /  F ield         | OpenFOAM: The Open Source CFD Toolbox           |
|  \\    /   O peration     | Version:  2212                                  |
|   \\  /    A nd           | Website:  www.openfoam.com                      |
|    \\/     M anipulation  |                                                 |
\*---------------------------------------------------------------------------*/
FoamFile
{
    version     2.0;
    format      ascii;
    arch        "LSB;label=32;scalar=64";
    class       volScalarField;
    location    "59/fluidRegion";
    object      Re;
}
// * * * * * * * * * * * * * * * * * * * * * * * * * * * * * * * * * * * * * //

dimensions      [0 0 0 0 0 0 0];

internalField   nonuniform List<scalar> 
350
(
174047
174042
174035
174029
174025
174024
174027
174032
174038
174042
174042
174039
174034
174027
174022
174019
174018
174021
174025
174029
174032
174034
174034
174033
174394
174047
174042
174035
174029
174025
174024
174027
174032
174038
174042
174042
174039
174034
174027
174022
174019
174018
174021
174025
174029
174032
174034
174034
174033
174394
55430.4
55381.2
55382.4
55382.7
55381.6
55379.3
55375.4
55369.8
55362.3
55352.6
55340.7
55326.5
55310
55291.3
55270
55245.2
55215
55177.4
55131.8
55083.9
55053.2
55099.3
55366.4
56112.5
56603.2
54939.4
54882.6
54879.7
54875.7
54870.8
54864.9
54857.7
54849
54838.6
54826.4
54812.3
54796.8
54780.7
54764.9
54750.1
54736.4
54722.5
54706.6
54688.1
54673.2
54682.8
54779.7
55114.4
55950.7
56550.4
55512.5
55462.9
55464.6
55465.1
55464.3
55462.1
55458.4
55452.9
55445.4
55435.7
55423.6
55409.1
55391.9
55372.1
55349
55321.6
55287.9
55246
55195
55140.7
55102.2
55138.5
55393.2
56124.6
56605
55049.2
54994.6
54992.8
54990
54986.2
54981.3
54975
54967.2
54957.7
54946.2
54932.8
54917.8
54901.8
54885.5
54869.4
54853.4
54835.9
54815.3
54790.8
54768.5
54769
54854.5
55173.9
55989.7
56563.5
55049.2
54994.6
54992.8
54990
54986.2
54981.3
54975
54967.2
54957.7
54946.2
54932.8
54917.8
54901.8
54885.5
54869.4
54853.4
54835.9
54815.3
54790.8
54768.5
54769
54854.5
55173.9
55989.7
56563.5
55512.5
55462.9
55464.6
55465.1
55464.3
55462.1
55458.4
55452.9
55445.4
55435.7
55423.6
55409
55391.9
55372
55349
55321.6
55287.9
55245.9
55194.9
55140.6
55102.1
55138.3
55393
56124.5
56605
54939.4
54882.6
54879.7
54875.7
54870.8
54864.9
54857.7
54849
54838.6
54826.4
54812.3
54796.8
54780.7
54764.9
54750.1
54736.4
54722.5
54706.6
54688.1
54673.2
54682.8
54779.7
55114.4
55950.7
56550.4
55430.4
55381.2
55382.4
55382.7
55381.6
55379.3
55375.4
55369.8
55362.3
55352.6
55340.7
55326.5
55310
55291.3
55270
55245.2
55215
55177.4
55131.8
55083.9
55053.2
55099.3
55366.4
56112.5
56603.2
55049.2
54994.6
54992.8
54990
54986.2
54981.3
54975
54967.2
54957.7
54946.2
54932.8
54917.8
54901.8
54885.5
54869.4
54853.4
54835.9
54815.3
54790.8
54768.5
54769
54854.5
55173.9
55989.7
56563.5
55512.5
55462.9
55464.6
55465.1
55464.3
55462.1
55458.4
55452.9
55445.4
55435.7
55423.6
55409.1
55391.9
55372.1
55349
55321.6
55287.9
55246
55195
55140.7
55102.2
55138.5
55393.2
56124.6
56605
55512.5
55462.9
55464.6
55465.1
55464.3
55462.1
55458.4
55452.9
55445.4
55435.7
55423.6
55409
55391.9
55372
55349
55321.6
55287.9
55245.9
55194.9
55140.6
55102.1
55138.3
55393
56124.5
56605
55049.2
54994.6
54992.8
54990
54986.2
54981.3
54975
54967.2
54957.7
54946.2
54932.8
54917.8
54901.8
54885.5
54869.4
54853.4
54835.9
54815.3
54790.8
54768.5
54769
54854.5
55173.9
55989.7
56563.5
)
;

boundaryField
{
    outletCentralUnloaded
    {
        type            zeroGradient;
    }
    inletCentralUnloaded
    {
        type            zeroGradient;
    }
    outletFuelElement
    {
        type            zeroGradient;
    }
    inletFuelElement
    {
        type            zeroGradient;
    }
    defaultFaces
    {
        type            zeroGradient;
    }
    baffle_master
    {
        type            zeroGradient;
    }
    baffle_slave
    {
        type            zeroGradient;
    }
}


// ************************************************************************* //
