/*--------------------------------*- C++ -*----------------------------------*\
| =========                 |                                                 |
| \\      /  F ield         | OpenFOAM: The Open Source CFD Toolbox           |
|  \\    /   O peration     | Version:  2212                                  |
|   \\  /    A nd           | Website:  www.openfoam.com                      |
|    \\/     M anipulation  |                                                 |
\*---------------------------------------------------------------------------*/
FoamFile
{
    version     2.0;
    format      ascii;
    arch        "LSB;label=32;scalar=64";
    class       volScalarField;
    location    "59/fluidRegion";
    object      Tcav.nuclearFuelPin;
}
// * * * * * * * * * * * * * * * * * * * * * * * * * * * * * * * * * * * * * //

dimensions      [0 0 0 1 0 0 0];

internalField   nonuniform List<scalar> 
350
(
0
0
0
0
0
0
0
0
0
0
0
0
0
0
0
0
0
0
0
0
0
0
0
0
0
0
0
0
0
0
0
0
0
0
0
0
0
0
0
0
0
0
0
0
0
0
0
0
0
0
1845.48
1883.58
1908.75
1920.96
1920.36
1907.2
1881.92
1845.09
1797.41
1739.72
1673.02
1598.39
1517.06
1430.37
1339.75
1246.67
1152.51
1058.35
964.574
870.364
772.804
665.597
537.997
377.9
186.916
1873.92
1912.64
1938.19
1950.57
1949.9
1936.45
1910.66
1873.11
1824.51
1765.74
1697.77
1621.73
1538.86
1450.5
1358.13
1263.24
1167.27
1071.33
975.88
880.14
781.19
672.653
543.564
381.518
188.139
1840.86
1878.88
1904.01
1916.22
1915.64
1902.55
1877.37
1840.66
1793.14
1735.64
1669.15
1594.75
1513.67
1427.25
1336.91
1244.12
1150.25
1056.36
962.851
868.88
771.539
664.544
537.178
377.373
186.73
1867.52
1906.09
1931.54
1943.86
1943.19
1929.79
1904.11
1866.71
1818.31
1759.78
1692.09
1616.37
1533.84
1445.87
1353.89
1259.42
1163.86
1068.33
973.266
877.879
779.25
671.019
542.274
380.678
187.856
1867.52
1906.09
1931.54
1943.86
1943.19
1929.79
1904.11
1866.71
1818.31
1759.78
1692.09
1616.37
1533.84
1445.87
1353.89
1259.42
1163.86
1068.33
973.266
877.879
779.25
671.019
542.274
380.678
187.856
1840.86
1878.89
1904.01
1916.22
1915.64
1902.55
1877.37
1840.66
1793.14
1735.64
1669.15
1594.75
1513.67
1427.25
1336.91
1244.12
1150.25
1056.37
962.852
868.881
771.54
664.545
537.179
377.373
186.73
1873.92
1912.64
1938.19
1950.57
1949.9
1936.45
1910.66
1873.11
1824.51
1765.74
1697.77
1621.73
1538.86
1450.5
1358.13
1263.24
1167.27
1071.33
975.88
880.14
781.19
672.653
543.565
381.518
188.139
1845.48
1883.58
1908.75
1920.96
1920.36
1907.2
1881.92
1845.09
1797.41
1739.72
1673.02
1598.39
1517.06
1430.37
1339.75
1246.67
1152.51
1058.35
964.574
870.364
772.803
665.597
537.998
377.9
186.916
1867.52
1906.09
1931.54
1943.86
1943.19
1929.79
1904.11
1866.71
1818.31
1759.78
1692.09
1616.37
1533.84
1445.87
1353.89
1259.42
1163.86
1068.33
973.266
877.879
779.25
671.019
542.274
380.678
187.856
1840.86
1878.88
1904.01
1916.22
1915.64
1902.55
1877.37
1840.66
1793.14
1735.64
1669.15
1594.75
1513.67
1427.25
1336.91
1244.12
1150.25
1056.36
962.851
868.881
771.539
664.545
537.179
377.373
186.73
1840.86
1878.88
1904.01
1916.22
1915.64
1902.55
1877.37
1840.66
1793.14
1735.64
1669.15
1594.75
1513.67
1427.25
1336.91
1244.12
1150.25
1056.37
962.852
868.881
771.54
664.545
537.179
377.373
186.73
1867.52
1906.09
1931.54
1943.86
1943.19
1929.79
1904.11
1866.71
1818.31
1759.78
1692.09
1616.37
1533.84
1445.87
1353.89
1259.42
1163.86
1068.33
973.266
877.879
779.25
671.019
542.274
380.678
187.856
)
;

boundaryField
{
    outletCentralUnloaded
    {
        type            zeroGradient;
    }
    inletCentralUnloaded
    {
        type            zeroGradient;
    }
    outletFuelElement
    {
        type            zeroGradient;
    }
    inletFuelElement
    {
        type            zeroGradient;
    }
    defaultFaces
    {
        type            zeroGradient;
    }
    baffle_master
    {
        type            zeroGradient;
    }
    baffle_slave
    {
        type            zeroGradient;
    }
}


// ************************************************************************* //
