/*--------------------------------*- C++ -*----------------------------------*\
| =========                 |                                                 |
| \\      /  F ield         | OpenFOAM: The Open Source CFD Toolbox           |
|  \\    /   O peration     | Version:  2212                                  |
|   \\  /    A nd           | Website:  www.openfoam.com                      |
|    \\/     M anipulation  |                                                 |
\*---------------------------------------------------------------------------*/
FoamFile
{
    version     2.0;
    format      ascii;
    arch        "LSB;label=32;scalar=64";
    class       volScalarField;
    location    "59/fluidRegion";
    object      Tci.nuclearFuelPin;
}
// * * * * * * * * * * * * * * * * * * * * * * * * * * * * * * * * * * * * * //

dimensions      [0 0 0 1 0 0 0];

internalField   nonuniform List<scalar> 
350
(
0
0
0
0
0
0
0
0
0
0
0
0
0
0
0
0
0
0
0
0
0
0
0
0
0
0
0
0
0
0
0
0
0
0
0
0
0
0
0
0
0
0
0
0
0
0
0
0
0
0
1851.57
1901.8
1938.81
1962.39
1972.5
1969.24
1952.87
1923.83
1882.7
1830.23
1767.3
1694.96
1614.4
1526.94
1434.03
1337.18
1237.82
1137.1
1035.53
932.414
824.964
707.045
568.078
396.14
193.03
1880.08
1931.07
1968.6
1992.47
2002.64
1999.2
1982.42
1952.75
1910.79
1857.28
1793.13
1719.41
1637.31
1548.19
1453.5
1354.79
1253.55
1150.98
1047.65
942.901
833.948
714.575
573.99
399.967
194.323
1846.93
1897.07
1934.01
1957.57
1967.69
1964.47
1948.19
1919.26
1878.28
1825.98
1763.26
1691.15
1610.84
1523.65
1431.02
1334.46
1235.4
1134.97
1033.68
930.818
823.604
705.916
567.204
395.58
192.833
1873.67
1924.47
1961.86
1985.66
1995.79
1992.38
1975.68
1946.15
1904.36
1851.08
1787.2
1713.79
1632.04
1543.29
1449.01
1350.72
1249.91
1147.78
1044.85
940.476
831.87
712.832
572.62
399.079
194.024
1873.67
1924.47
1961.86
1985.66
1995.79
1992.38
1975.68
1946.15
1904.36
1851.08
1787.2
1713.79
1632.04
1543.29
1449.01
1350.72
1249.91
1147.78
1044.85
940.476
831.87
712.832
572.62
399.079
194.024
1846.94
1897.07
1934.01
1957.57
1967.69
1964.47
1948.19
1919.26
1878.28
1825.98
1763.26
1691.15
1610.84
1523.65
1431.02
1334.46
1235.4
1134.98
1033.68
930.818
823.605
705.917
567.205
395.58
192.833
1880.08
1931.07
1968.6
1992.47
2002.64
1999.2
1982.42
1952.75
1910.79
1857.28
1793.13
1719.41
1637.31
1548.19
1453.5
1354.79
1253.55
1150.98
1047.65
942.901
833.947
714.575
573.99
399.967
194.323
1851.57
1901.8
1938.81
1962.39
1972.5
1969.24
1952.87
1923.83
1882.7
1830.23
1767.3
1694.96
1614.4
1526.94
1434.03
1337.18
1237.82
1137.1
1035.53
932.414
824.964
707.045
568.078
396.14
193.03
1873.67
1924.47
1961.86
1985.66
1995.79
1992.38
1975.68
1946.15
1904.36
1851.08
1787.2
1713.79
1632.04
1543.29
1449.01
1350.72
1249.91
1147.78
1044.85
940.476
831.87
712.832
572.62
399.079
194.024
1846.93
1897.07
1934.01
1957.57
1967.69
1964.47
1948.19
1919.26
1878.28
1825.98
1763.26
1691.15
1610.84
1523.65
1431.02
1334.46
1235.4
1134.97
1033.68
930.818
823.604
705.917
567.204
395.58
192.833
1846.94
1897.07
1934.01
1957.57
1967.69
1964.47
1948.19
1919.26
1878.28
1825.98
1763.26
1691.15
1610.84
1523.65
1431.02
1334.46
1235.4
1134.98
1033.68
930.818
823.604
705.917
567.205
395.58
192.833
1873.67
1924.47
1961.86
1985.66
1995.79
1992.38
1975.68
1946.15
1904.36
1851.08
1787.2
1713.79
1632.04
1543.29
1449.01
1350.72
1249.91
1147.78
1044.85
940.476
831.87
712.832
572.62
399.079
194.024
)
;

boundaryField
{
    outletCentralUnloaded
    {
        type            zeroGradient;
    }
    inletCentralUnloaded
    {
        type            zeroGradient;
    }
    outletFuelElement
    {
        type            zeroGradient;
    }
    inletFuelElement
    {
        type            zeroGradient;
    }
    defaultFaces
    {
        type            zeroGradient;
    }
    baffle_master
    {
        type            zeroGradient;
    }
    baffle_slave
    {
        type            zeroGradient;
    }
}


// ************************************************************************* //
