/*--------------------------------*- C++ -*----------------------------------*\
| =========                 |                                                 |
| \\      /  F ield         | OpenFOAM: The Open Source CFD Toolbox           |
|  \\    /   O peration     | Version:  2212                                  |
|   \\  /    A nd           | Website:  www.openfoam.com                      |
|    \\/     M anipulation  |                                                 |
\*---------------------------------------------------------------------------*/
FoamFile
{
    version     2.0;
    format      ascii;
    arch        "LSB;label=32;scalar=64";
    class       volScalarField;
    location    "59/fluidRegion";
    object      Tco.nuclearFuelPin;
}
// * * * * * * * * * * * * * * * * * * * * * * * * * * * * * * * * * * * * * //

dimensions      [0 0 0 1 0 0 0];

internalField   nonuniform List<scalar> 
350
(
0
0
0
0
0
0
0
0
0
0
0
0
0
0
0
0
0
0
0
0
0
0
0
0
0
0
0
0
0
0
0
0
0
0
0
0
0
0
0
0
0
0
0
0
0
0
0
0
0
0
1839.79
1866.57
1880.68
1882.29
1871.68
1849.29
1815.69
1771.58
1717.78
1655.24
1585.01
1508.24
1426.19
1340.21
1251.73
1162.18
1072.88
984.832
898.332
812.44
724.112
626.906
509.917
360.873
181.209
1868.17
1895.44
1909.81
1911.45
1900.66
1877.88
1843.67
1798.76
1743.98
1680.29
1608.75
1530.55
1446.95
1359.32
1269.11
1177.79
1086.72
996.97
908.879
821.553
731.941
633.519
515.163
364.295
182.366
1835.18
1861.91
1875.99
1877.61
1867.05
1844.74
1811.26
1767.29
1713.66
1651.31
1581.3
1504.76
1422.97
1337.26
1249.06
1159.78
1070.76
982.982
896.73
811.063
722.937
625.924
509.149
360.376
181.033
1861.79
1888.93
1903.22
1904.84
1894.08
1871.37
1837.29
1792.55
1737.99
1674.55
1603.3
1525.42
1442.17
1354.92
1265.1
1174.18
1083.53
994.164
906.44
819.444
730.129
631.987
513.946
363.501
182.098
1861.79
1888.93
1903.22
1904.84
1894.08
1871.37
1837.29
1792.55
1737.99
1674.55
1603.3
1525.42
1442.17
1354.92
1265.1
1174.18
1083.53
994.163
906.44
819.444
730.129
631.987
513.946
363.501
182.098
1835.18
1861.91
1875.99
1877.61
1867.05
1844.75
1811.26
1767.29
1713.66
1651.31
1581.3
1504.77
1422.97
1337.26
1249.06
1159.78
1070.77
982.983
896.731
811.063
722.937
625.925
509.15
360.377
181.033
1868.17
1895.44
1909.81
1911.45
1900.66
1877.88
1843.67
1798.76
1743.98
1680.29
1608.75
1530.55
1446.95
1359.32
1269.11
1177.79
1086.72
996.97
908.879
821.553
731.941
633.519
515.163
364.295
182.366
1839.79
1866.57
1880.68
1882.29
1871.68
1849.29
1815.69
1771.58
1717.78
1655.24
1585.01
1508.24
1426.19
1340.21
1251.73
1162.18
1072.88
984.832
898.332
812.44
724.112
626.906
509.917
360.873
181.209
1861.79
1888.93
1903.22
1904.84
1894.08
1871.37
1837.29
1792.55
1737.99
1674.55
1603.3
1525.42
1442.17
1354.92
1265.1
1174.18
1083.53
994.163
906.44
819.445
730.129
631.987
513.946
363.501
182.098
1835.18
1861.91
1875.99
1877.61
1867.05
1844.74
1811.26
1767.29
1713.66
1651.31
1581.3
1504.76
1422.97
1337.26
1249.06
1159.78
1070.76
982.982
896.73
811.063
722.937
625.924
509.15
360.376
181.033
1835.18
1861.91
1875.99
1877.61
1867.05
1844.75
1811.26
1767.29
1713.66
1651.31
1581.3
1504.77
1422.97
1337.26
1249.06
1159.78
1070.76
982.983
896.731
811.063
722.937
625.925
509.15
360.377
181.033
1861.79
1888.93
1903.22
1904.84
1894.08
1871.37
1837.29
1792.55
1737.99
1674.55
1603.3
1525.42
1442.17
1354.92
1265.1
1174.18
1083.53
994.163
906.44
819.444
730.129
631.987
513.946
363.501
182.098
)
;

boundaryField
{
    outletCentralUnloaded
    {
        type            zeroGradient;
    }
    inletCentralUnloaded
    {
        type            zeroGradient;
    }
    outletFuelElement
    {
        type            zeroGradient;
    }
    inletFuelElement
    {
        type            zeroGradient;
    }
    defaultFaces
    {
        type            zeroGradient;
    }
    baffle_master
    {
        type            zeroGradient;
    }
    baffle_slave
    {
        type            zeroGradient;
    }
}


// ************************************************************************* //
