/*--------------------------------*- C++ -*----------------------------------*\
| =========                 |                                                 |
| \\      /  F ield         | OpenFOAM: The Open Source CFD Toolbox           |
|  \\    /   O peration     | Version:  2212                                  |
|   \\  /    A nd           | Website:  www.openfoam.com                      |
|    \\/     M anipulation  |                                                 |
\*---------------------------------------------------------------------------*/
FoamFile
{
    version     2.0;
    format      ascii;
    arch        "LSB;label=32;scalar=64";
    class       volScalarField;
    location    "59/fluidRegion";
    object      Tfi.nuclearFuelPin;
}
// * * * * * * * * * * * * * * * * * * * * * * * * * * * * * * * * * * * * * //

dimensions      [0 0 0 1 0 0 0];

internalField   nonuniform List<scalar> 
350
(
0
0
0
0
0
0
0
0
0
0
0
0
0
0
0
0
0
0
0
0
0
0
0
0
0
0
0
0
0
0
0
0
0
0
0
0
0
0
0
0
0
0
0
0
0
0
0
0
0
0
2422.63
3611.08
4759.29
5849.57
6865.04
7789.95
8609.92
9312.21
9885.86
10321.9
10613.6
10756.3
10747.9
10588.5
10280.8
9829.55
9241.87
8526.58
7693.85
6754.6
5719.15
4596.07
3390.56
2107.64
766.751
2457.65
3659.89
4821.36
5924.15
6951.19
7886.56
8715.71
9425.74
10005.6
10446.2
10740.7
10884.6
10875.4
10713.6
10401.6
9944.43
9349.28
8625.1
7782.23
6831.78
5784.19
4648.15
3428.8
2131.07
774.612
2416.97
3603.23
4749.36
5837.66
6851.31
7774.57
8593.1
9294.17
9866.84
10302.2
10593.4
10736
10727.7
10568.7
10261.6
9811.35
9224.85
8510.97
7679.85
6742.38
5708.86
4587.85
3384.54
2103.96
765.508
2449.74
3648.79
4807.19
5907.09
6931.45
7864.39
8691.42
9399.66
9978.08
10417.6
10711.5
10855.1
10846.1
10684.8
10373.8
9917.98
9324.54
8602.41
7761.88
6814
5769.21
4636.15
3419.99
2125.67
772.801
2449.74
3648.79
4807.19
5907.09
6931.45
7864.39
8691.42
9399.66
9978.08
10417.6
10711.5
10855.1
10846.1
10684.8
10373.8
9917.98
9324.54
8602.41
7761.88
6814
5769.21
4636.15
3419.99
2125.67
772.801
2416.97
3603.23
4749.36
5837.67
6851.31
7774.57
8593.1
9294.17
9866.85
10302.2
10593.4
10736
10727.7
10568.7
10261.6
9811.35
9224.85
8510.97
7679.85
6742.39
5708.86
4587.85
3384.54
2103.96
765.508
2457.65
3659.89
4821.36
5924.15
6951.19
7886.56
8715.71
9425.74
10005.6
10446.2
10740.7
10884.6
10875.4
10713.6
10401.6
9944.43
9349.28
8625.1
7782.23
6831.78
5784.19
4648.15
3428.8
2131.07
774.612
2422.63
3611.07
4759.29
5849.57
6865.04
7789.95
8609.92
9312.21
9885.86
10321.9
10613.6
10756.3
10747.9
10588.5
10280.8
9829.55
9241.87
8526.58
7693.85
6754.6
5719.15
4596.07
3390.56
2107.64
766.751
2449.74
3648.79
4807.19
5907.09
6931.45
7864.39
8691.42
9399.66
9978.08
10417.6
10711.5
10855.1
10846.1
10684.8
10373.8
9917.98
9324.54
8602.41
7761.88
6814
5769.21
4636.15
3419.99
2125.67
772.801
2416.97
3603.23
4749.36
5837.66
6851.31
7774.57
8593.1
9294.17
9866.84
10302.2
10593.4
10736
10727.7
10568.7
10261.6
9811.35
9224.85
8510.97
7679.85
6742.38
5708.86
4587.85
3384.54
2103.96
765.508
2416.97
3603.23
4749.36
5837.67
6851.31
7774.57
8593.1
9294.17
9866.84
10302.2
10593.4
10736
10727.7
10568.7
10261.6
9811.35
9224.85
8510.97
7679.85
6742.39
5708.86
4587.85
3384.54
2103.96
765.508
2449.74
3648.79
4807.19
5907.09
6931.45
7864.39
8691.42
9399.66
9978.08
10417.6
10711.5
10855.1
10846.1
10684.8
10373.8
9917.98
9324.54
8602.41
7761.88
6814
5769.21
4636.15
3419.99
2125.67
772.801
)
;

boundaryField
{
    outletCentralUnloaded
    {
        type            zeroGradient;
    }
    inletCentralUnloaded
    {
        type            zeroGradient;
    }
    outletFuelElement
    {
        type            zeroGradient;
    }
    inletFuelElement
    {
        type            zeroGradient;
    }
    defaultFaces
    {
        type            zeroGradient;
    }
    baffle_master
    {
        type            zeroGradient;
    }
    baffle_slave
    {
        type            zeroGradient;
    }
}


// ************************************************************************* //
