/*--------------------------------*- C++ -*----------------------------------*\
| =========                 |                                                 |
| \\      /  F ield         | OpenFOAM: The Open Source CFD Toolbox           |
|  \\    /   O peration     | Version:  2212                                  |
|   \\  /    A nd           | Website:  www.openfoam.com                      |
|    \\/     M anipulation  |                                                 |
\*---------------------------------------------------------------------------*/
FoamFile
{
    version     2.0;
    format      ascii;
    arch        "LSB;label=32;scalar=64";
    class       volScalarField;
    location    "59/fluidRegion";
    object      Tfo.nuclearFuelPin;
}
// * * * * * * * * * * * * * * * * * * * * * * * * * * * * * * * * * * * * * //

dimensions      [0 0 0 1 0 0 0];

internalField   nonuniform List<scalar> 
350
(
0
0
0
0
0
0
0
0
0
0
0
0
0
0
0
0
0
0
0
0
0
0
0
0
0
0
0
0
0
0
0
0
0
0
0
0
0
0
0
0
0
0
0
0
0
0
0
0
0
0
2021.77
2411.01
2778.98
3120.27
3429.82
3703
3935.73
4124.5
4266.48
4359.51
4402.19
4393.9
4334.82
4225.94
4069.04
3866.63
3621.82
3338.05
3018.71
2666.55
2282.69
1865.39
1408.75
905.908
363.903
2052.22
2446.1
2818.39
3163.61
3476.64
3752.81
3987.98
4178.63
4321.86
4415.52
4458.2
4449.26
4388.9
4278.1
4118.68
3913.21
3664.86
3377.14
3053.54
2696.9
2308.37
1886.19
1424.29
915.573
367.153
2016.83
2405.35
2772.65
3113.34
3422.35
3695.07
3927.43
4115.92
4257.71
4350.65
4393.34
4385.17
4326.3
4217.73
4061.22
3859.3
3615.05
3331.91
3013.24
2661.79
2278.67
1862.15
1406.35
904.418
363.394
2045.36
2438.16
2809.44
3153.74
3465.95
3741.42
3976.02
4166.22
4309.15
4402.66
4445.33
4436.53
4376.45
4266.09
4107.25
3902.48
3654.94
3368.13
3045.51
2689.9
2302.45
1881.39
1420.71
913.341
366.403
2045.36
2438.16
2809.44
3153.74
3465.95
3741.42
3976.02
4166.22
4309.15
4402.66
4445.33
4436.53
4376.45
4266.09
4107.25
3902.48
3654.94
3368.13
3045.51
2689.9
2302.45
1881.39
1420.71
913.341
366.403
2016.83
2405.35
2772.65
3113.34
3422.35
3695.07
3927.43
4115.92
4257.71
4350.65
4393.34
4385.17
4326.3
4217.73
4061.22
3859.3
3615.05
3331.91
3013.24
2661.79
2278.67
1862.15
1406.35
904.418
363.395
2052.22
2446.1
2818.39
3163.61
3476.64
3752.81
3987.98
4178.63
4321.86
4415.52
4458.2
4449.26
4388.9
4278.1
4118.68
3913.21
3664.86
3377.14
3053.54
2696.9
2308.37
1886.19
1424.29
915.573
367.153
2021.77
2411.01
2778.98
3120.27
3429.81
3703
3935.73
4124.5
4266.48
4359.51
4402.19
4393.9
4334.82
4225.94
4069.04
3866.63
3621.82
3338.05
3018.71
2666.55
2282.69
1865.39
1408.75
905.908
363.903
2045.36
2438.16
2809.44
3153.74
3465.95
3741.42
3976.02
4166.22
4309.15
4402.66
4445.33
4436.53
4376.45
4266.09
4107.25
3902.48
3654.94
3368.13
3045.51
2689.9
2302.45
1881.39
1420.71
913.341
366.403
2016.83
2405.35
2772.65
3113.34
3422.34
3695.07
3927.43
4115.92
4257.71
4350.65
4393.34
4385.17
4326.3
4217.73
4061.22
3859.3
3615.05
3331.91
3013.24
2661.79
2278.67
1862.15
1406.35
904.418
363.394
2016.83
2405.35
2772.65
3113.34
3422.35
3695.07
3927.43
4115.92
4257.71
4350.65
4393.34
4385.17
4326.3
4217.73
4061.22
3859.3
3615.05
3331.91
3013.24
2661.79
2278.67
1862.15
1406.35
904.418
363.395
2045.36
2438.16
2809.44
3153.74
3465.95
3741.42
3976.02
4166.22
4309.15
4402.66
4445.33
4436.53
4376.45
4266.09
4107.25
3902.48
3654.94
3368.13
3045.51
2689.9
2302.45
1881.39
1420.71
913.341
366.403
)
;

boundaryField
{
    outletCentralUnloaded
    {
        type            zeroGradient;
    }
    inletCentralUnloaded
    {
        type            zeroGradient;
    }
    outletFuelElement
    {
        type            zeroGradient;
    }
    inletFuelElement
    {
        type            zeroGradient;
    }
    defaultFaces
    {
        type            zeroGradient;
    }
    baffle_master
    {
        type            zeroGradient;
    }
    baffle_slave
    {
        type            zeroGradient;
    }
}


// ************************************************************************* //
