/*--------------------------------*- C++ -*----------------------------------*\
| =========                 |                                                 |
| \\      /  F ield         | OpenFOAM: The Open Source CFD Toolbox           |
|  \\    /   O peration     | Version:  2212                                  |
|   \\  /    A nd           | Website:  www.openfoam.com                      |
|    \\/     M anipulation  |                                                 |
\*---------------------------------------------------------------------------*/
FoamFile
{
    version     2.0;
    format      ascii;
    arch        "LSB;label=32;scalar=64";
    class       scalarFieldField;
    location    "59/fluidRegion";
    object      Trad.nuclearFuelPin;
}
// * * * * * * * * * * * * * * * * * * * * * * * * * * * * * * * * * * * * * //


350
(
0()
0()
0()
0()
0()
0()
0()
0()
0()
0()
0()
0()
0()
0()
0()
0()
0()
0()
0()
0()
0()
0()
0()
0()
0()
0()
0()
0()
0()
0()
0()
0()
0()
0()
0()
0()
0()
0()
0()
0()
0()
0()
0()
0()
0()
0()
0()
0()
0()
0()

20
(
2422.63
2420.85
2415.51
2406.61
2394.15
2378.13
2358.55
2335.4
2308.69
2278.41
2244.57
2207.15
2166.17
2121.61
2073.48
2021.77
1851.57
1847.51
1843.59
1839.79
)


20
(
3611.08
3605.74
3589.75
3563.09
3525.76
3477.77
3419.12
3349.8
3269.8
3179.14
3077.81
2965.8
2843.12
2709.76
2565.73
2411.01
1901.8
1889.67
1877.94
1866.57
)


20
(
4759.29
4750.49
4724.09
4680.1
4618.5
4539.3
4442.5
4328.09
4196.09
4046.47
3879.25
3694.42
3491.98
3271.93
3034.26
2778.98
1938.81
1918.79
1899.43
1880.68
)


20
(
5849.57
5837.44
5801.06
5740.42
5655.52
5546.36
5412.94
5255.26
5073.32
4867.12
4636.65
4381.91
4102.91
3799.64
3472.09
3120.27
1962.39
1934.81
1908.13
1882.29
)


20
(
6865.04
6849.78
6803.98
6727.65
6620.79
6483.39
6315.46
6117
5887.99
5628.45
5338.37
5017.75
4666.59
4284.88
3872.62
3429.82
1972.5
1937.79
1904.2
1871.68
)


20
(
7789.95
7771.79
7717.3
7626.49
7499.35
7335.88
7136.09
6899.97
6627.52
6318.74
5973.63
5592.18
5174.39
4720.27
4229.8
3703
1969.24
1927.94
1887.99
1849.29
)


20
(
8609.92
8589.15
8526.84
8422.97
8277.56
8090.61
7862.11
7592.06
7280.46
6927.31
6532.6
6096.34
5618.53
5099.16
4538.22
3935.73
1952.87
1905.64
1859.94
1815.69
)


20
(
9312.21
9289.15
9219.99
9104.72
8943.33
8735.84
8482.23
8182.51
7836.68
7444.73
7006.66
6522.47
5992.17
5415.74
4793.18
4124.5
1923.83
1871.41
1820.69
1771.58
)


20
(
9885.86
9860.89
9785.97
9661.1
9486.29
9261.52
8986.81
8662.15
8287.54
7862.97
7388.45
6863.98
6289.54
5665.15
4990.79
4266.48
1882.7
1825.92
1770.98
1717.78
)


20
(
10321.9
10295.4
10215.9
10083.4
9897.96
9659.47
9367.99
9023.51
8626.03
8175.54
7672.05
7115.56
6506.06
5843.55
5128.04
4359.51
1830.23
1769.98
1711.69
1655.24
)


20
(
10613.6
10586
10503.2
10365.2
10171.9
9923.48
9619.82
9260.95
8846.87
8377.58
7853.06
7273.33
6638.38
5948.21
5202.81
4402.19
1767.3
1704.53
1643.81
1585.01
)


20
(
10756.3
10728.1
10643.2
10501.8
10303.9
10049.4
9738.39
9370.79
8946.64
8465.94
7928.67
7334.84
6684.45
5977.5
5213.99
4393.9
1694.96
1630.67
1568.47
1508.24
)


20
(
10747.9
10719.4
10633.9
10491.4
10291.9
10035.4
9721.86
9351.34
8923.81
8439.28
7897.73
7299.18
6643.61
5931.03
5161.44
4334.82
1614.4
1549.6
1486.9
1426.19
)


20
(
10588.5
10560.3
10475.4
10334
10136.1
9881.61
9570.56
9202.96
8778.8
8298.07
7760.79
7166.95
6516.55
5809.58
5046.04
4225.94
1526.94
1462.65
1400.45
1340.21
)


20
(
10280.8
10253.2
10170.4
10032.3
9839.08
9590.62
9286.95
8928.05
8513.95
8044.62
7520.08
6940.32
6305.33
5615.12
4869.69
4069.04
1434.03
1371.26
1310.54
1251.73
)


20
(
9829.55
9803.05
9723.55
9591.04
9405.54
9167.03
8875.52
8531.01
8133.49
7682.96
7179.43
6622.89
6013.34
5350.78
4635.21
3866.63
1337.18
1276.92
1218.63
1162.18
)


20
(
9241.87
9216.89
9141.96
9017.07
8842.23
8617.44
8342.69
8017.99
7643.32
7218.7
6744.13
6219.59
5645.09
5020.63
4346.2
3621.82
1237.82
1181.03
1126.09
1072.88
)


20
(
8526.58
8503.52
8434.34
8319.05
8157.63
7950.1
7696.44
7396.67
7050.78
6658.76
6220.62
5736.36
5205.97
4629.46
4006.82
3338.05
1137.1
1084.67
1033.95
984.832
)


20
(
7693.85
7673.07
7610.74
7506.85
7361.41
7174.41
6945.85
6675.74
6364.07
6010.84
5616.06
5179.71
4701.8
4182.33
3621.3
3018.71
1035.53
988.294
942.592
898.332
)


20
(
6754.6
6736.43
6681.93
6591.09
6463.91
6300.39
6100.54
5864.34
5591.81
5282.94
4937.73
4556.18
4138.28
3684.05
3193.47
2666.55
932.414
891.105
851.142
812.44
)


20
(
5719.15
5703.88
5658.06
5581.7
5474.79
5337.34
5169.34
4970.79
4741.7
4482.06
4191.87
3871.14
3519.85
3138.01
2725.63
2282.69
824.964
790.239
756.646
724.112
)


20
(
4596.07
4583.94
4547.53
4486.85
4401.9
4292.68
4159.18
4001.41
3819.37
3613.06
3382.47
3127.6
2848.46
2545.05
2217.36
1865.39
707.045
679.452
652.758
626.906
)


20
(
3390.56
3381.75
3355.33
3311.29
3249.64
3170.37
3073.48
2958.98
2826.86
2677.13
2509.78
2324.81
2122.22
1902.02
1664.2
1408.75
568.078
548.052
528.679
509.917
)


20
(
2107.64
2102.3
2086.28
2059.57
2022.19
1974.12
1915.37
1845.94
1765.82
1675.03
1573.55
1461.39
1338.54
1205.01
1060.8
905.908
396.14
383.997
372.25
360.873
)


20
(
766.751
764.96
759.589
750.636
738.103
721.988
702.293
679.017
652.16
621.722
587.704
550.105
508.925
464.165
415.824
363.903
193.03
188.96
185.022
181.209
)


20
(
2457.65
2455.85
2450.45
2441.45
2428.85
2412.65
2392.84
2369.43
2342.41
2311.79
2277.56
2239.72
2198.27
2153.2
2104.52
2052.22
1880.08
1875.98
1872.01
1868.17
)


20
(
3659.89
3654.5
3638.32
3611.35
3573.6
3525.07
3465.74
3395.62
3314.72
3223.02
3120.53
3007.24
2883.16
2748.27
2602.59
2446.1
1931.07
1918.8
1906.93
1895.44
)


20
(
4821.36
4812.46
4785.76
4741.26
4678.95
4598.85
4500.94
4385.23
4251.71
4100.38
3931.25
3744.31
3539.55
3316.98
3076.59
2818.39
1968.6
1948.36
1928.77
1909.81
)


20
(
5924.15
5911.88
5875.08
5813.75
5727.87
5617.47
5482.52
5323.04
5139.01
4930.45
4697.34
4439.69
4157.5
3850.75
3519.45
3163.61
1992.47
1964.58
1937.59
1911.45
)


20
(
6951.19
6935.75
6889.43
6812.23
6704.14
6565.17
6395.32
6194.58
5962.96
5700.45
5407.05
5082.75
4727.57
4341.49
3924.51
3476.64
2002.64
1967.53
1933.56
1900.66
)


20
(
7886.56
7868.19
7813.07
7721.22
7592.63
7427.29
7225.21
6986.39
6710.82
6398.5
6049.44
5663.62
5241.05
4781.73
4285.65
3752.81
1999.2
1957.42
1917.01
1877.88
)


20
(
8715.71
8694.7
8631.66
8526.61
8379.54
8190.44
7959.33
7686.18
7371.02
7013.82
6614.6
6173.34
5690.06
5164.74
4597.38
3987.98
1982.42
1934.65
1888.43
1843.67
)


20
(
9425.74
9402.42
9332.47
9215.87
9052.64
8842.77
8586.26
8283.11
7933.31
7536.87
7093.79
6604.06
6067.68
5484.65
4854.97
4178.63
1952.75
1899.73
1848.44
1798.76
)


20
(
10005.6
9980.34
9904.56
9778.27
9601.45
9374.11
9096.26
8767.88
8388.97
7959.55
7479.59
6949.11
6368.1
5736.55
5054.48
4321.86
1910.79
1853.35
1797.79
1743.98
)


20
(
10446.2
10419.4
10339
10205
10017.4
9776.19
9481.37
9132.94
8730.91
8275.26
7766.01
7203.14
6586.66
5916.57
5192.86
4415.52
1857.28
1796.34
1737.38
1680.29
)


20
(
10740.7
10712.8
10629.1
10489.5
10294
10042.7
9735.59
9372.61
8953.79
8479.12
7948.59
7362.22
6720
6021.92
5267.99
4458.2
1793.13
1729.65
1668.23
1608.75
)


20
(
10884.6
10856
10770.2
10627.2
10427
10169.6
9854.96
9483.16
9054.15
8567.93
8024.51
7423.89
6766.05
6051
5278.74
4449.26
1719.41
1654.38
1591.47
1530.55
)


20
(
10875.4
10846.6
10760.1
10616
10414.2
10154.7
9837.63
9462.87
9030.44
8540.36
7992.61
7387.2
6724.13
6003.38
5224.97
4388.9
1637.31
1571.77
1508.36
1446.95
)


20
(
10713.6
10685
10599.2
10456.2
10256
9998.55
9683.94
9312.12
8883.1
8396.87
7853.44
7252.79
6594.94
5879.87
5107.59
4278.1
1548.19
1483.16
1420.25
1359.32
)


20
(
10401.6
10373.7
10289.9
10150.3
9954.82
9703.51
9396.36
9033.36
8614.51
8139.81
7609.25
7022.85
6380.59
5682.48
4928.51
4118.68
1453.5
1390.01
1328.59
1269.11
)


20
(
9944.43
9917.63
9837.22
9703.2
9515.57
9274.33
8979.48
8631.02
8228.94
7773.26
7263.96
6701.04
6084.51
5414.37
4690.6
3913.21
1354.79
1293.84
1234.89
1177.79
)


20
(
9349.28
9324.01
9248.22
9121.91
8945.07
8717.7
8439.8
8111.38
7732.42
7302.94
6822.93
6292.38
5711.3
5079.69
4397.54
3664.86
1253.55
1196.11
1140.54
1086.72
)


20
(
8625.1
8601.78
8531.81
8415.19
8251.93
8042.01
7785.46
7482.25
7132.39
6735.89
6292.73
5802.92
5266.46
4683.34
4053.57
3377.14
1150.98
1097.95
1046.65
996.97
)


20
(
7782.23
7761.22
7698.17
7593.09
7445.98
7256.84
7025.67
6752.46
6437.22
6079.95
5680.64
5239.3
4755.91
4230.5
3663.04
3053.54
1047.65
999.872
953.646
908.879
)


20
(
6831.78
6813.4
6758.27
6666.39
6537.75
6372.36
6170.22
5931.32
5655.67
5343.26
4994.09
4608.17
4185.49
3726.05
3229.85
2696.9
942.901
901.119
860.698
821.553
)


20
(
5784.19
5768.75
5722.4
5645.17
5537.03
5398.01
5228.08
5027.26
4795.55
4532.93
4239.42
3915.01
3559.7
3173.49
2756.38
2308.37
833.948
798.825
764.847
731.941
)


20
(
4648.15
4635.87
4599.05
4537.68
4451.75
4341.28
4206.25
4046.68
3862.55
3653.87
3420.64
3162.86
2880.52
2573.63
2242.19
1886.19
714.575
686.666
659.666
633.519
)


20
(
3428.8
3419.89
3393.16
3348.62
3286.26
3206.08
3108.09
2992.28
2858.65
2707.2
2537.93
2350.84
2145.94
1923.21
1682.66
1424.29
573.99
553.735
534.139
515.163
)


20
(
2131.07
2125.67
2109.46
2082.45
2044.64
1996.02
1936.6
1866.37
1785.34
1693.5
1590.86
1477.41
1353.16
1218.1
1072.24
915.573
399.967
387.685
375.803
364.295
)


20
(
774.612
772.801
767.368
758.313
745.636
729.337
709.416
685.874
658.709
627.923
593.515
555.486
513.835
468.562
419.668
367.153
194.323
190.206
186.223
182.366
)


20
(
2416.97
2415.19
2409.86
2400.98
2388.54
2372.54
2353
2329.89
2303.23
2273.01
2239.22
2201.87
2160.96
2116.49
2068.44
2016.83
1846.93
1842.89
1838.97
1835.18
)


20
(
3603.23
3597.91
3581.94
3555.33
3518.07
3470.17
3411.62
3342.43
3262.58
3172.08
3070.94
2959.13
2836.68
2703.56
2559.79
2405.35
1897.07
1884.96
1873.25
1861.91
)


20
(
4749.36
4740.57
4714.22
4670.3
4608.82
4529.76
4433.14
4318.94
4187.18
4037.83
3870.92
3686.43
3484.36
3264.7
3027.47
2772.65
1934.01
1914.04
1894.71
1875.99
)


20
(
5837.66
5825.56
5789.24
5728.71
5643.96
5535
5401.83
5244.44
5062.83
4857
4626.95
4372.68
4094.18
3791.46
3464.51
3113.34
1957.57
1930.04
1903.41
1877.61
)


20
(
6851.31
6836.07
6790.36
6714.17
6607.5
6470.35
6302.73
6104.63
5876.04
5616.97
5327.42
5007.39
4656.86
4275.85
3864.34
3422.35
1967.69
1933.04
1899.52
1867.05
)


20
(
7774.57
7756.44
7702.05
7611.4
7484.5
7321.33
7121.9
6886.21
6614.26
6306.04
5961.56
5580.8
5163.78
4710.48
4220.92
3695.07
1964.47
1923.25
1883.37
1844.74
)


20
(
8593.1
8572.37
8510.16
8406.49
8261.35
8074.73
7846.65
7577.09
7266.06
6913.55
6519.56
6084.1
5607.16
5088.73
4528.82
3927.43
1948.19
1901.04
1855.43
1811.26
)


20
(
9294.17
9271.15
9202.12
9087.05
8925.96
8718.85
8465.7
8166.53
7821.32
7430.09
6992.82
6509.52
5980.18
5404.8
4783.38
4115.92
1919.26
1866.93
1816.31
1767.29
)


20
(
9866.84
9841.92
9767.13
9642.49
9468
9243.64
8969.43
8645.36
8271.43
7847.64
7373.99
6850.47
6277.08
5653.83
4980.7
4257.71
1878.28
1821.6
1766.76
1713.66
)


20
(
10302.2
10275.7
10196.4
10064.1
9879
9640.95
9350
9006.14
8609.39
8159.72
7657.15
7101.68
6493.29
5831.99
5117.78
4350.65
1825.98
1765.84
1707.66
1651.31
)


20
(
10593.4
10565.9
10483.2
10345.4
10152.6
9904.56
9601.46
9243.25
8829.92
8361.48
7837.92
7259.25
6625.45
5936.54
5192.5
4393.34
1763.26
1700.6
1639.99
1581.3
)


20
(
10736
10707.8
10623.1
10482
10284.4
10030.4
9719.91
9352.98
8929.61
8449.77
7913.49
7320.74
6671.54
5965.88
5203.75
4385.17
1691.15
1626.97
1564.89
1504.76
)


20
(
10727.7
10699.2
10613.9
10471.6
10272.5
10016.5
9703.51
9333.67
8906.92
8423.27
7882.71
7285.25
6630.88
5919.6
5151.4
4326.3
1610.84
1546.15
1483.57
1422.97
)


20
(
10568.7
10540.5
10455.8
10314.7
10117.1
9863.08
9552.6
9185.67
8762.28
8282.43
7746.13
7153.37
6504.15
5798.47
5036.33
4217.73
1523.65
1459.47
1397.39
1337.26
)


20
(
10261.6
10234.1
10151.4
10013.6
9820.74
9572.74
9269.61
8911.38
8498.03
8029.56
7505.97
6927.26
6293.44
5604.49
4860.42
4061.22
1431.02
1368.37
1307.76
1249.06
)


20
(
9811.35
9784.9
9705.54
9573.28
9388.11
9150.04
8859.06
8515.17
8118.38
7668.67
7166.06
6610.53
6002.1
5340.75
4626.48
3859.3
1334.46
1274.32
1216.13
1159.78
)


20
(
9224.85
9199.92
9125.12
9000.47
8825.95
8601.56
8327.32
8003.2
7629.22
7205.38
6731.67
6208.08
5634.63
5011.31
4338.12
3615.05
1235.4
1178.71
1123.87
1070.76
)


20
(
8510.97
8487.96
8418.91
8303.82
8142.7
7935.54
7682.35
7383.13
7037.86
6646.56
6209.22
5725.84
5196.42
4620.96
3999.46
3331.91
1134.97
1082.64
1032.01
982.982
)


20
(
7679.85
7659.11
7596.89
7493.2
7348.02
7161.36
6933.22
6663.6
6352.5
5999.92
5605.85
5170.3
4693.26
4174.74
3614.73
3013.24
1033.68
986.528
940.909
896.73
)


20
(
6742.38
6724.25
6669.84
6579.17
6452.22
6289
6089.51
5853.75
5581.72
5273.41
4928.83
4547.97
4130.84
3677.43
3187.75
2661.79
930.818
889.584
849.694
811.063
)


20
(
5708.86
5693.62
5647.88
5571.66
5464.95
5327.75
5160.05
4961.87
4733.19
4474.03
4184.37
3864.22
3513.57
3132.44
2720.8
2278.67
823.604
788.942
755.411
722.937
)


20
(
4587.85
4575.74
4539.4
4478.83
4394.03
4285.01
4151.76
3994.27
3812.56
3606.63
3376.46
3122.06
2843.43
2540.57
2213.47
1862.15
705.916
678.374
651.728
625.924
)


20
(
3384.54
3375.75
3349.37
3305.41
3243.87
3164.75
3068.04
2953.75
2821.87
2672.41
2505.36
2320.73
2118.51
1898.71
1661.32
1406.35
567.204
547.215
527.877
509.149
)


20
(
2103.96
2098.63
2082.64
2055.98
2018.66
1970.68
1912.04
1842.73
1762.77
1672.14
1570.84
1458.88
1336.26
1202.98
1059.03
904.418
395.58
383.459
371.732
360.376
)


20
(
765.508
763.72
758.359
749.422
736.912
720.827
701.167
677.934
651.126
620.743
586.787
549.256
508.152
463.473
415.221
363.394
192.833
188.77
184.839
181.033
)


20
(
2449.74
2447.95
2442.56
2433.58
2421.01
2404.85
2385.1
2361.75
2334.8
2304.26
2270.12
2232.37
2191.03
2146.08
2097.53
2045.36
1873.67
1869.58
1865.62
1861.79
)


20
(
3648.79
3643.41
3627.27
3600.38
3562.73
3514.31
3455.14
3385.21
3304.51
3213.05
3110.83
2997.84
2874.08
2739.54
2594.24
2438.16
1924.47
1912.23
1900.39
1888.93
)


20
(
4807.19
4798.32
4771.69
4727.3
4665.16
4585.26
4487.61
4372.2
4239.03
4088.09
3919.4
3732.94
3528.72
3306.73
3066.97
2809.44
1961.86
1941.67
1922.14
1903.22
)


20
(
5907.09
5894.85
5858.15
5796.97
5711.32
5601.2
5466.61
5307.54
5124
4915.98
4683.48
4426.5
4145.04
3839.09
3508.66
3153.74
1985.66
1957.83
1930.91
1904.84
)


20
(
6931.45
6916.05
6869.85
6792.85
6685.04
6546.44
6377.03
6176.81
5945.79
5683.97
5391.33
5067.88
4713.62
4328.55
3912.66
3465.95
1995.79
1960.77
1926.89
1894.08
)


20
(
7864.39
7846.07
7791.1
7699.49
7571.23
7406.33
7204.77
6966.57
6691.72
6380.22
6032.06
5647.25
5225.78
4767.66
4272.87
3741.42
1992.38
1950.71
1910.41
1871.37
)


20
(
8691.42
8670.46
8607.6
8502.82
8356.13
8167.53
7937.01
7664.58
7350.23
6993.97
6595.78
6155.68
5673.65
5149.7
4583.83
3976.02
1975.68
1928.03
1881.94
1837.29
)


20
(
9399.66
9376.4
9306.63
9190.34
9027.53
8818.21
8562.36
8260
7911.12
7515.71
7073.78
6585.33
6050.35
5468.84
4840.79
4166.22
1946.15
1893.26
1842.1
1792.55
)


20
(
9978.08
9952.88
9877.3
9751.33
9574.98
9348.24
9071.1
8743.58
8365.66
7937.35
7458.65
6929.55
6350.05
5720.16
5039.86
4309.15
1904.36
1847.08
1791.66
1737.99
)


20
(
10417.6
10390.9
10310.7
10177.1
9989.94
9749.35
9455.3
9107.78
8706.79
8252.34
7744.41
7183.01
6568.14
5899.79
5177.96
4402.66
1851.08
1790.3
1731.5
1674.55
)


20
(
10711.5
10683.6
10600.1
10460.9
10265.9
10015.3
9708.96
9346.93
8929.19
8455.76
7926.62
7341.78
6701.23
6004.97
5253
4445.33
1787.2
1723.88
1662.63
1603.3
)


20
(
10855.1
10826.5
10741
10598.3
10398.6
10141.9
9828.14
9457.3
9029.41
8544.46
8002.46
7403.4
6747.28
6034.09
5263.84
4436.53
1713.79
1648.93
1586.19
1525.42
)


20
(
10846.1
10817.3
10731.1
10587.3
10386
10127.3
9810.99
9437.2
9005.9
8517.09
7970.77
7366.94
6705.59
5986.73
5210.35
4376.45
1632.04
1566.67
1503.42
1442.17
)


20
(
10684.8
10656.3
10570.7
10428
10228.4
9971.63
9657.84
9286.99
8859.09
8374.13
7832.11
7233.03
6576.89
5863.69
5093.42
4266.09
1543.29
1478.43
1415.69
1354.92
)


20
(
10373.8
10345.9
10262.4
10123.1
9928.17
9677.52
9371.16
9009.11
8591.35
8117.89
7588.72
7003.84
6363.26
5666.97
4914.96
4107.25
1449.01
1385.69
1324.43
1265.1
)


20
(
9917.98
9891.24
9811.04
9677.37
9490.23
9249.62
8955.54
8607.98
8206.96
7752.46
7244.49
6683.04
6068.12
5399.72
4677.84
3902.48
1350.72
1289.94
1231.13
1174.18
)


20
(
9324.54
9299.34
9223.75
9097.76
8921.38
8694.61
8417.44
8089.87
7711.9
7283.54
6804.78
6275.61
5696.05
5066.08
4385.71
3654.94
1249.91
1192.62
1137.2
1083.53
)


20
(
8602.41
8579.15
8509.36
8393.05
8230.21
8020.84
7764.95
7462.54
7113.59
6718.12
6276.12
5787.58
5252.52
4670.92
4042.8
3368.13
1147.78
1094.88
1043.72
994.164
)


20
(
7761.88
7740.91
7678.03
7573.23
7426.5
7237.86
7007.28
6734.79
6420.37
6064.03
5665.76
5225.57
4743.45
4219.4
3653.42
3045.51
1044.85
997.195
951.09
906.44
)


20
(
6814
6795.67
6740.68
6649.04
6520.74
6355.78
6154.17
5915.89
5640.96
5329.36
4981.11
4596.19
4174.61
3716.37
3221.47
2689.9
940.476
898.803
858.488
819.444
)


20
(
5769.21
5753.8
5707.58
5630.55
5522.69
5384.03
5214.55
5014.25
4783.14
4521.21
4228.46
3904.9
3550.52
3165.32
2749.29
2302.45
831.87
796.839
762.949
730.129
)


20
(
4636.15
4623.91
4587.18
4525.97
4440.27
4330.08
4195.41
4036.25
3852.6
3644.47
3411.84
3154.73
2873.13
2567.04
2236.46
1881.39
712.832
684.996
658.067
631.987
)


20
(
3419.99
3411.1
3384.45
3340.02
3277.82
3197.85
3100.11
2984.6
2851.32
2700.27
2531.44
2344.84
2140.47
1918.32
1678.4
1420.71
572.62
552.418
532.874
513.946
)


20
(
2125.67
2120.28
2104.12
2077.18
2039.46
1990.97
1931.7
1861.66
1780.84
1689.24
1586.87
1473.72
1349.79
1215.08
1069.6
913.341
399.079
386.829
374.978
363.501
)


20
(
772.801
770.995
765.576
756.545
743.901
727.644
707.775
684.294
657.2
626.494
592.176
554.246
512.703
467.549
418.782
366.403
194.024
189.918
185.945
182.098
)


20
(
2449.74
2447.95
2442.56
2433.58
2421.01
2404.85
2385.1
2361.75
2334.8
2304.26
2270.12
2232.37
2191.03
2146.08
2097.53
2045.36
1873.67
1869.58
1865.62
1861.79
)


20
(
3648.79
3643.41
3627.27
3600.38
3562.73
3514.31
3455.14
3385.21
3304.51
3213.05
3110.83
2997.84
2874.08
2739.54
2594.24
2438.16
1924.47
1912.23
1900.39
1888.93
)


20
(
4807.19
4798.32
4771.69
4727.3
4665.16
4585.26
4487.61
4372.2
4239.03
4088.09
3919.4
3732.94
3528.72
3306.73
3066.97
2809.44
1961.86
1941.67
1922.14
1903.22
)


20
(
5907.09
5894.85
5858.15
5796.97
5711.32
5601.2
5466.61
5307.54
5124
4915.98
4683.48
4426.5
4145.04
3839.09
3508.66
3153.74
1985.66
1957.83
1930.91
1904.84
)


20
(
6931.45
6916.05
6869.85
6792.85
6685.04
6546.44
6377.03
6176.81
5945.79
5683.97
5391.33
5067.88
4713.62
4328.55
3912.66
3465.95
1995.79
1960.77
1926.89
1894.08
)


20
(
7864.39
7846.07
7791.1
7699.49
7571.23
7406.33
7204.77
6966.57
6691.72
6380.22
6032.06
5647.25
5225.78
4767.66
4272.87
3741.42
1992.38
1950.71
1910.41
1871.37
)


20
(
8691.42
8670.46
8607.6
8502.82
8356.13
8167.53
7937.01
7664.58
7350.23
6993.97
6595.78
6155.68
5673.65
5149.7
4583.83
3976.02
1975.68
1928.03
1881.94
1837.29
)


20
(
9399.66
9376.4
9306.63
9190.34
9027.53
8818.2
8562.36
8260
7911.12
7515.71
7073.78
6585.33
6050.35
5468.84
4840.79
4166.22
1946.15
1893.26
1842.1
1792.55
)


20
(
9978.08
9952.88
9877.3
9751.33
9574.98
9348.24
9071.1
8743.58
8365.66
7937.35
7458.65
6929.55
6350.05
5720.16
5039.86
4309.15
1904.36
1847.08
1791.66
1737.99
)


20
(
10417.6
10390.9
10310.7
10177.1
9989.94
9749.35
9455.3
9107.78
8706.79
8252.34
7744.41
7183.01
6568.14
5899.79
5177.96
4402.66
1851.08
1790.3
1731.5
1674.55
)


20
(
10711.5
10683.6
10600.1
10460.9
10265.9
10015.3
9708.96
9346.93
8929.19
8455.76
7926.62
7341.78
6701.23
6004.97
5253
4445.33
1787.2
1723.88
1662.63
1603.3
)


20
(
10855.1
10826.5
10740.9
10598.3
10398.6
10141.9
9828.14
9457.3
9029.41
8544.46
8002.46
7403.4
6747.28
6034.09
5263.84
4436.53
1713.79
1648.93
1586.19
1525.42
)


20
(
10846.1
10817.3
10731.1
10587.3
10386
10127.3
9810.99
9437.2
9005.9
8517.09
7970.77
7366.94
6705.59
5986.73
5210.35
4376.45
1632.04
1566.67
1503.42
1442.17
)


20
(
10684.8
10656.3
10570.7
10428
10228.4
9971.63
9657.84
9286.99
8859.09
8374.13
7832.11
7233.03
6576.89
5863.69
5093.42
4266.09
1543.29
1478.43
1415.69
1354.92
)


20
(
10373.8
10345.9
10262.4
10123.1
9928.17
9677.52
9371.16
9009.11
8591.35
8117.89
7588.72
7003.84
6363.26
5666.97
4914.96
4107.25
1449.01
1385.69
1324.43
1265.1
)


20
(
9917.98
9891.24
9811.04
9677.37
9490.23
9249.62
8955.54
8607.98
8206.96
7752.46
7244.49
6683.04
6068.12
5399.72
4677.84
3902.48
1350.72
1289.94
1231.13
1174.18
)


20
(
9324.54
9299.34
9223.75
9097.76
8921.38
8694.61
8417.44
8089.87
7711.9
7283.54
6804.78
6275.61
5696.05
5066.08
4385.71
3654.94
1249.91
1192.62
1137.2
1083.53
)


20
(
8602.41
8579.14
8509.36
8393.04
8230.21
8020.84
7764.95
7462.54
7113.59
6718.12
6276.12
5787.58
5252.52
4670.92
4042.79
3368.13
1147.78
1094.88
1043.72
994.163
)


20
(
7761.88
7740.91
7678.03
7573.23
7426.5
7237.86
7007.28
6734.79
6420.37
6064.03
5665.76
5225.57
4743.45
4219.4
3653.42
3045.51
1044.85
997.195
951.09
906.44
)


20
(
6814
6795.67
6740.68
6649.04
6520.74
6355.78
6154.17
5915.89
5640.96
5329.36
4981.11
4596.19
4174.61
3716.37
3221.47
2689.9
940.476
898.803
858.488
819.444
)


20
(
5769.21
5753.8
5707.58
5630.54
5522.69
5384.03
5214.55
5014.25
4783.14
4521.21
4228.46
3904.9
3550.52
3165.32
2749.29
2302.45
831.87
796.839
762.949
730.129
)


20
(
4636.15
4623.91
4587.18
4525.97
4440.27
4330.08
4195.41
4036.25
3852.6
3644.47
3411.84
3154.73
2873.13
2567.04
2236.46
1881.39
712.832
684.996
658.067
631.987
)


20
(
3419.99
3411.1
3384.45
3340.02
3277.82
3197.85
3100.11
2984.6
2851.32
2700.27
2531.44
2344.84
2140.47
1918.32
1678.4
1420.71
572.62
552.418
532.874
513.946
)


20
(
2125.67
2120.28
2104.12
2077.18
2039.46
1990.97
1931.7
1861.66
1780.84
1689.24
1586.87
1473.72
1349.79
1215.08
1069.6
913.341
399.079
386.829
374.978
363.501
)


20
(
772.801
770.995
765.576
756.545
743.901
727.644
707.775
684.294
657.201
626.495
592.176
554.246
512.703
467.549
418.782
366.403
194.024
189.918
185.945
182.098
)


20
(
2416.97
2415.19
2409.86
2400.98
2388.54
2372.55
2353
2329.89
2303.23
2273.01
2239.22
2201.88
2160.97
2116.49
2068.44
2016.83
1846.94
1842.89
1838.97
1835.18
)


20
(
3603.23
3597.91
3581.94
3555.33
3518.08
3470.17
3411.62
3342.43
3262.58
3172.09
3070.94
2959.13
2836.68
2703.56
2559.79
2405.35
1897.07
1884.96
1873.25
1861.91
)


20
(
4749.36
4740.58
4714.23
4670.31
4608.82
4529.77
4433.14
4318.95
4187.18
4037.84
3870.92
3686.43
3484.36
3264.71
3027.47
2772.65
1934.01
1914.04
1894.71
1875.99
)


20
(
5837.67
5825.56
5789.24
5728.71
5643.96
5535
5401.83
5244.44
5062.83
4857
4626.95
4372.68
4094.19
3791.47
3464.52
3113.34
1957.57
1930.04
1903.41
1877.61
)


20
(
6851.31
6836.07
6790.36
6714.17
6607.5
6470.35
6302.73
6104.63
5876.04
5616.98
5327.42
5007.39
4656.86
4275.85
3864.34
3422.35
1967.69
1933.04
1899.52
1867.05
)


20
(
7774.57
7756.44
7702.05
7611.41
7484.5
7321.33
7121.91
6886.22
6614.26
6306.04
5961.56
5580.8
5163.78
4710.49
4220.92
3695.07
1964.47
1923.25
1883.37
1844.75
)


20
(
8593.1
8572.37
8510.16
8406.49
8261.35
8074.73
7846.65
7577.09
7266.06
6913.55
6519.57
6084.1
5607.16
5088.73
4528.82
3927.43
1948.19
1901.04
1855.43
1811.26
)


20
(
9294.17
9271.15
9202.12
9087.05
8925.96
8718.85
8465.7
8166.53
7821.32
7430.09
6992.82
6509.52
5980.18
5404.8
4783.38
4115.92
1919.26
1866.94
1816.31
1767.29
)


20
(
9866.85
9841.92
9767.13
9642.49
9468
9243.65
8969.44
8645.37
8271.44
7847.64
7373.99
6850.47
6277.08
5653.83
4980.71
4257.71
1878.28
1821.6
1766.77
1713.66
)


20
(
10302.2
10275.7
10196.4
10064.1
9879
9640.95
9350
9006.15
8609.39
8159.73
7657.16
7101.68
6493.29
5831.99
5117.78
4350.65
1825.98
1765.84
1707.66
1651.31
)


20
(
10593.4
10565.9
10483.2
10345.4
10152.6
9904.56
9601.46
9243.25
8829.92
8361.48
7837.92
7259.25
6625.45
5936.54
5192.5
4393.34
1763.26
1700.61
1640
1581.3
)


20
(
10736
10707.8
10623.1
10482
10284.4
10030.4
9719.91
9352.98
8929.61
8449.77
7913.49
7320.74
6671.54
5965.88
5203.76
4385.17
1691.15
1626.97
1564.89
1504.77
)


20
(
10727.7
10699.2
10613.9
10471.6
10272.5
10016.5
9703.52
9333.67
8906.92
8423.27
7882.71
7285.25
6630.88
5919.6
5151.4
4326.3
1610.84
1546.15
1483.57
1422.97
)


20
(
10568.7
10540.5
10455.8
10314.7
10117.1
9863.08
9552.6
9185.67
8762.28
8282.43
7746.13
7153.37
6504.15
5798.47
5036.33
4217.73
1523.65
1459.47
1397.39
1337.26
)


20
(
10261.6
10234.1
10151.4
10013.6
9820.74
9572.74
9269.62
8911.38
8498.03
8029.56
7505.97
6927.27
6293.44
5604.49
4860.42
4061.22
1431.02
1368.37
1307.76
1249.06
)


20
(
9811.35
9784.9
9705.54
9573.28
9388.11
9150.04
8859.06
8515.17
8118.38
7668.67
7166.06
6610.54
6002.1
5340.75
4626.48
3859.3
1334.46
1274.32
1216.13
1159.78
)


20
(
9224.85
9199.92
9125.13
9000.47
8825.95
8601.56
8327.32
8003.2
7629.22
7205.38
6731.67
6208.09
5634.63
5011.31
4338.12
3615.05
1235.4
1178.71
1123.87
1070.77
)


20
(
8510.97
8487.96
8418.91
8303.82
8142.7
7935.54
7682.35
7383.13
7037.86
6646.56
6209.22
5725.84
5196.42
4620.96
3999.46
3331.91
1134.98
1082.64
1032.01
982.983
)


20
(
7679.85
7659.11
7596.9
7493.2
7348.02
7161.36
6933.22
6663.6
6352.5
5999.92
5605.85
5170.3
4693.26
4174.74
3614.73
3013.24
1033.68
986.528
940.91
896.731
)


20
(
6742.39
6724.25
6669.84
6579.17
6452.22
6289
6089.51
5853.75
5581.72
5273.41
4928.83
4547.97
4130.84
3677.43
3187.75
2661.79
930.818
889.585
849.695
811.063
)


20
(
5708.86
5693.62
5647.88
5571.66
5464.95
5327.75
5160.05
4961.87
4733.2
4474.03
4184.37
3864.22
3513.58
3132.44
2720.8
2278.67
823.605
788.943
755.411
722.937
)


20
(
4587.85
4575.74
4539.4
4478.83
4394.03
4285.01
4151.76
3994.28
3812.57
3606.63
3376.46
3122.06
2843.43
2540.57
2213.48
1862.15
705.917
678.375
651.729
625.925
)


20
(
3384.54
3375.75
3349.37
3305.41
3243.87
3164.75
3068.04
2953.75
2821.87
2672.41
2505.36
2320.73
2118.52
1898.71
1661.32
1406.35
567.205
547.216
527.878
509.15
)


20
(
2103.96
2098.63
2082.64
2055.98
2018.66
1970.68
1912.04
1842.73
1762.77
1672.14
1570.84
1458.88
1336.26
1202.98
1059.03
904.418
395.58
383.459
371.733
360.377
)


20
(
765.508
763.721
758.359
749.423
736.912
720.827
701.168
677.934
651.126
620.744
586.787
549.257
508.152
463.473
415.221
363.395
192.833
188.77
184.84
181.033
)


20
(
2457.65
2455.85
2450.45
2441.45
2428.85
2412.65
2392.84
2369.43
2342.41
2311.79
2277.56
2239.72
2198.27
2153.2
2104.52
2052.22
1880.08
1875.98
1872.01
1868.17
)


20
(
3659.89
3654.5
3638.32
3611.35
3573.6
3525.07
3465.74
3395.62
3314.72
3223.02
3120.53
3007.24
2883.16
2748.27
2602.59
2446.1
1931.07
1918.8
1906.93
1895.44
)


20
(
4821.36
4812.46
4785.76
4741.26
4678.96
4598.85
4500.94
4385.23
4251.71
4100.39
3931.25
3744.31
3539.55
3316.98
3076.59
2818.39
1968.6
1948.36
1928.77
1909.81
)


20
(
5924.15
5911.89
5875.08
5813.75
5727.87
5617.47
5482.52
5323.04
5139.01
4930.45
4697.34
4439.69
4157.5
3850.75
3519.45
3163.61
1992.47
1964.58
1937.59
1911.45
)


20
(
6951.19
6935.75
6889.43
6812.23
6704.14
6565.17
6395.32
6194.58
5962.96
5700.45
5407.05
5082.75
4727.57
4341.49
3924.51
3476.64
2002.64
1967.53
1933.56
1900.66
)


20
(
7886.56
7868.19
7813.07
7721.22
7592.63
7427.29
7225.21
6986.39
6710.82
6398.5
6049.44
5663.62
5241.05
4781.73
4285.65
3752.81
1999.2
1957.42
1917.01
1877.88
)


20
(
8715.71
8694.7
8631.66
8526.61
8379.54
8190.44
7959.33
7686.18
7371.02
7013.82
6614.6
6173.34
5690.06
5164.74
4597.38
3987.98
1982.42
1934.65
1888.43
1843.67
)


20
(
9425.74
9402.42
9332.47
9215.87
9052.64
8842.77
8586.26
8283.11
7933.31
7536.87
7093.79
6604.06
6067.68
5484.65
4854.97
4178.63
1952.75
1899.73
1848.44
1798.76
)


20
(
10005.6
9980.34
9904.56
9778.27
9601.45
9374.11
9096.26
8767.88
8388.97
7959.55
7479.59
6949.11
6368.1
5736.55
5054.48
4321.86
1910.79
1853.35
1797.79
1743.98
)


20
(
10446.2
10419.4
10339
10205
10017.4
9776.19
9481.37
9132.94
8730.91
8275.26
7766.01
7203.14
6586.66
5916.57
5192.86
4415.52
1857.28
1796.34
1737.38
1680.29
)


20
(
10740.7
10712.8
10629.1
10489.5
10294
10042.7
9735.59
9372.61
8953.79
8479.12
7948.59
7362.22
6720
6021.92
5267.99
4458.2
1793.13
1729.65
1668.23
1608.75
)


20
(
10884.6
10856
10770.2
10627.2
10427
10169.6
9854.96
9483.15
9054.15
8567.93
8024.51
7423.89
6766.05
6051
5278.74
4449.26
1719.41
1654.38
1591.47
1530.55
)


20
(
10875.4
10846.6
10760.1
10616
10414.2
10154.7
9837.63
9462.87
9030.44
8540.36
7992.61
7387.2
6724.12
6003.38
5224.97
4388.9
1637.31
1571.77
1508.36
1446.95
)


20
(
10713.6
10685
10599.2
10456.2
10256
9998.55
9683.94
9312.12
8883.1
8396.87
7853.44
7252.79
6594.94
5879.87
5107.59
4278.1
1548.19
1483.16
1420.25
1359.32
)


20
(
10401.6
10373.7
10289.9
10150.3
9954.81
9703.51
9396.36
9033.35
8614.5
8139.8
7609.25
7022.85
6380.59
5682.48
4928.51
4118.68
1453.5
1390.01
1328.59
1269.11
)


20
(
9944.43
9917.63
9837.22
9703.2
9515.57
9274.33
8979.48
8631.02
8228.94
7773.26
7263.96
6701.04
6084.51
5414.37
4690.6
3913.21
1354.79
1293.85
1234.89
1177.79
)


20
(
9349.28
9324.01
9248.22
9121.91
8945.07
8717.7
8439.8
8111.38
7732.42
7302.94
6822.93
6292.38
5711.3
5079.69
4397.54
3664.86
1253.55
1196.11
1140.54
1086.72
)


20
(
8625.1
8601.77
8531.8
8415.19
8251.92
8042.01
7785.46
7482.25
7132.39
6735.89
6292.73
5802.92
5266.46
4683.34
4053.57
3377.14
1150.98
1097.95
1046.65
996.97
)


20
(
7782.23
7761.22
7698.17
7593.09
7445.98
7256.84
7025.67
6752.46
6437.22
6079.95
5680.64
5239.3
4755.91
4230.5
3663.04
3053.54
1047.65
999.872
953.646
908.879
)


20
(
6831.78
6813.4
6758.27
6666.39
6537.75
6372.36
6170.22
5931.32
5655.67
5343.26
4994.09
4608.17
4185.49
3726.05
3229.85
2696.9
942.901
901.119
860.698
821.553
)


20
(
5784.19
5768.74
5722.4
5645.17
5537.03
5398.01
5228.08
5027.26
4795.55
4532.93
4239.42
3915.01
3559.7
3173.49
2756.38
2308.37
833.947
798.825
764.847
731.941
)


20
(
4648.15
4635.87
4599.05
4537.68
4451.75
4341.28
4206.25
4046.68
3862.55
3653.87
3420.64
3162.86
2880.52
2573.63
2242.19
1886.19
714.575
686.666
659.667
633.519
)


20
(
3428.8
3419.89
3393.16
3348.62
3286.26
3206.08
3108.09
2992.28
2858.65
2707.2
2537.93
2350.84
2145.94
1923.21
1682.66
1424.29
573.99
553.735
534.14
515.163
)


20
(
2131.07
2125.67
2109.46
2082.45
2044.64
1996.02
1936.6
1866.37
1785.34
1693.5
1590.86
1477.41
1353.16
1218.1
1072.24