/*--------------------------------*- C++ -*----------------------------------*\
| =========                 |                                                 |
| \\      /  F ield         | OpenFOAM: The Open Source CFD Toolbox           |
|  \\    /   O peration     | Version:  2212                                  |
|   \\  /    A nd           | Website:  www.openfoam.com                      |
|    \\/     M anipulation  |                                                 |
\*---------------------------------------------------------------------------*/
FoamFile
{
    version     2.0;
    format      ascii;
    arch        "LSB;label=32;scalar=64";
    class       volTensorField;
    location    "120/fluidRegion";
    object      KdTotU;
}
// * * * * * * * * * * * * * * * * * * * * * * * * * * * * * * * * * * * * * //

dimensions      [1 -2 -2 0 0 0 0];

internalField   nonuniform List<tensor> 
17
(
(5252.12 0 0 0 5252.12 0 0 0 5252.12)
(5252.12 0 0 0 5252.12 0 0 0 5252.12)
(8599.22 0 0 0 8599.22 0 0 0 8599.22)
(11885.5 0 0 0 11885.5 0 0 0 11885.5)
(13433.5 0 0 0 13433.5 0 0 0 13433.5)
(14866.4 0 0 0 14866.4 0 0 0 14866.4)
(16381 0 0 0 16381 0 0 0 16381)
(18142.8 0 0 0 18142.8 0 0 0 18142.8)
(20272.6 0 0 0 20272.6 0 0 0 20272.6)
(22899.7 0 0 0 22899.7 0 0 0 22899.7)
(26165 0 0 0 26165 0 0 0 26165)
(30213.2 0 0 0 30213.2 0 0 0 30213.2)
(35167.9 0 0 0 35167.9 0 0 0 35167.9)
(41094.4 0 0 0 41094.4 0 0 0 41094.4)
(47963.2 0 0 0 47963.2 0 0 0 47963.2)
(55634.9 0 0 0 55634.9 0 0 0 55634.9)
(63910.3 0 0 0 63910.3 0 0 0 63910.3)
)
;

boundaryField
{
    inlet
    {
        type            zeroGradient;
    }
    outlet
    {
        type            zeroGradient;
    }
    fixedWalls
    {
        type            zeroGradient;
    }
}


// ************************************************************************* //
