/*--------------------------------*- C++ -*----------------------------------*\
| =========                 |                                                 |
| \\      /  F ield         | OpenFOAM: The Open Source CFD Toolbox           |
|  \\    /   O peration     | Version:  2212                                  |
|   \\  /    A nd           | Website:  www.openfoam.com                      |
|    \\/     M anipulation  |                                                 |
\*---------------------------------------------------------------------------*/
FoamFile
{
    version     2.0;
    format      ascii;
    arch        "LSB;label=32;scalar=64";
    class       volScalarField;
    location    "120/fluidRegion";
    object      p;
}
// * * * * * * * * * * * * * * * * * * * * * * * * * * * * * * * * * * * * * //

dimensions      [1 -1 -2 0 0 0 0];

internalField   nonuniform List<scalar> 
17
(
1.48508e+07
1.48499e+07
1.48483e+07
1.48448e+07
1.48407e+07
1.48365e+07
1.48319e+07
1.48269e+07
1.48215e+07
1.48155e+07
1.48087e+07
1.4801e+07
1.47921e+07
1.47819e+07
1.47701e+07
1.47565e+07
1.47409e+07
)
;

boundaryField
{
    inlet
    {
        type            calculated;
        value           uniform 1.48513e+07;
    }
    outlet
    {
        type            calculated;
        value           uniform 1.47323e+07;
    }
    fixedWalls
    {
        type            calculated;
        value           nonuniform List<scalar> 
68
(
1.48508e+07
1.48499e+07
1.48483e+07
1.48448e+07
1.48407e+07
1.48365e+07
1.48319e+07
1.48269e+07
1.48215e+07
1.48155e+07
1.48087e+07
1.4801e+07
1.47921e+07
1.47819e+07
1.47701e+07
1.47565e+07
1.47409e+07
1.48508e+07
1.48499e+07
1.48483e+07
1.48448e+07
1.48407e+07
1.48365e+07
1.48319e+07
1.48269e+07
1.48215e+07
1.48155e+07
1.48087e+07
1.4801e+07
1.47921e+07
1.47819e+07
1.47701e+07
1.47565e+07
1.47409e+07
1.48508e+07
1.48499e+07
1.48483e+07
1.48448e+07
1.48407e+07
1.48365e+07
1.48319e+07
1.48269e+07
1.48215e+07
1.48155e+07
1.48087e+07
1.4801e+07
1.47921e+07
1.47819e+07
1.47701e+07
1.47565e+07
1.47409e+07
1.48508e+07
1.48499e+07
1.48483e+07
1.48448e+07
1.48407e+07
1.48365e+07
1.48319e+07
1.48269e+07
1.48215e+07
1.48155e+07
1.48087e+07
1.4801e+07
1.47921e+07
1.47819e+07
1.47701e+07
1.47565e+07
1.47409e+07
)
;
    }
}


// ************************************************************************* //
