/*--------------------------------*- C++ -*----------------------------------*\
| =========                 |                                                 |
| \\      /  F ield         | OpenFOAM: The Open Source CFD Toolbox           |
|  \\    /   O peration     | Version:  2212                                  |
|   \\  /    A nd           | Website:  www.openfoam.com                      |
|    \\/     M anipulation  |                                                 |
\*---------------------------------------------------------------------------*/
FoamFile
{
    version     2.0;
    format      ascii;
    arch        "LSB;label=32;scalar=64";
    class       volScalarField;
    location    "120/fluidRegion";
    object      p_rgh;
}
// * * * * * * * * * * * * * * * * * * * * * * * * * * * * * * * * * * * * * //

dimensions      [1 -1 -2 0 0 0 0];

internalField   nonuniform List<scalar> 
17
(
1.4851e+07
1.48504e+07
1.48492e+07
1.48463e+07
1.48428e+07
1.48392e+07
1.48351e+07
1.48307e+07
1.48257e+07
1.48202e+07
1.48138e+07
1.48065e+07
1.4798e+07
1.47881e+07
1.47765e+07
1.47632e+07
1.47478e+07
)
;

boundaryField
{
    inlet
    {
        type            fixedFluxPressure;
        gradient        uniform 12087.9;
        value           uniform 1.48513e+07;
    }
    outlet
    {
        type            fixedValue;
        value           uniform 1.47394e+07;
    }
    fixedWalls
    {
        type            fixedFluxPressure;
        gradient        uniform 0;
        value           nonuniform List<scalar> 
68
(
1.4851e+07
1.48504e+07
1.48492e+07
1.48463e+07
1.48428e+07
1.48392e+07
1.48351e+07
1.48307e+07
1.48257e+07
1.48202e+07
1.48138e+07
1.48065e+07
1.4798e+07
1.47881e+07
1.47765e+07
1.47632e+07
1.47478e+07
1.4851e+07
1.48504e+07
1.48492e+07
1.48463e+07
1.48428e+07
1.48392e+07
1.48351e+07
1.48307e+07
1.48257e+07
1.48202e+07
1.48138e+07
1.48065e+07
1.4798e+07
1.47881e+07
1.47765e+07
1.47632e+07
1.47478e+07
1.4851e+07
1.48504e+07
1.48492e+07
1.48463e+07
1.48428e+07
1.48392e+07
1.48351e+07
1.48307e+07
1.48257e+07
1.48202e+07
1.48138e+07
1.48065e+07
1.4798e+07
1.47881e+07
1.47765e+07
1.47632e+07
1.47478e+07
1.4851e+07
1.48504e+07
1.48492e+07
1.48463e+07
1.48428e+07
1.48392e+07
1.48351e+07
1.48307e+07
1.48257e+07
1.48202e+07
1.48138e+07
1.48065e+07
1.4798e+07
1.47881e+07
1.47765e+07
1.47632e+07
1.47478e+07
)
;
    }
}


// ************************************************************************* //
