/*--------------------------------*- C++ -*----------------------------------*\
| =========                 |                                                 |
| \\      /  F ield         | OpenFOAM: The Open Source CFD Toolbox           |
|  \\    /   O peration     | Version:  2212                                  |
|   \\  /    A nd           | Website:  www.openfoam.com                      |
|    \\/     M anipulation  |                                                 |
\*---------------------------------------------------------------------------*/
FoamFile
{
    version     2.0;
    format      ascii;
    arch        "LSB;label=32;scalar=64";
    class       volTensorField;
    location    "100/fluidRegion";
    object      KdTotU;
}
// * * * * * * * * * * * * * * * * * * * * * * * * * * * * * * * * * * * * * //

dimensions      [1 -2 -2 0 0 0 0];

internalField   nonuniform List<tensor> 
17
(
(5252.12 0 0 0 5252.12 0 0 0 5252.12)
(5252.12 0 0 0 5252.12 0 0 0 5252.12)
(9392.63 0 0 0 9392.63 0 0 0 9392.63)
(13882.8 0 0 0 13882.8 0 0 0 13882.8)
(16468.7 0 0 0 16468.7 0 0 0 16468.7)
(19388.7 0 0 0 19388.7 0 0 0 19388.7)
(23041.6 0 0 0 23041.6 0 0 0 23041.6)
(27881.3 0 0 0 27881.3 0 0 0 27881.3)
(34338.7 0 0 0 34338.7 0 0 0 34338.7)
(42765.7 0 0 0 42765.7 0 0 0 42765.7)
(53257.5 0 0 0 53257.5 0 0 0 53257.5)
(65521.4 0 0 0 65521.4 0 0 0 65521.4)
(78928.9 0 0 0 78928.9 0 0 0 78928.9)
(92748.5 0 0 0 92748.5 0 0 0 92748.5)
(106401 0 0 0 106401 0 0 0 106401)
(119529 0 0 0 119529 0 0 0 119529)
(132241 0 0 0 132241 0 0 0 132241)
)
;

boundaryField
{
    inlet
    {
        type            zeroGradient;
    }
    outlet
    {
        type            zeroGradient;
    }
    fixedWalls
    {
        type            zeroGradient;
    }
}


// ************************************************************************* //
