/*--------------------------------*- C++ -*----------------------------------*\
| =========                 |                                                 |
| \\      /  F ield         | OpenFOAM: The Open Source CFD Toolbox           |
|  \\    /   O peration     | Version:  2212                                  |
|   \\  /    A nd           | Website:  www.openfoam.com                      |
|    \\/     M anipulation  |                                                 |
\*---------------------------------------------------------------------------*/
FoamFile
{
    version     2.0;
    format      ascii;
    arch        "LSB;label=32;scalar=64";
    class       volScalarField;
    location    "100/fluidRegion";
    object      p;
}
// * * * * * * * * * * * * * * * * * * * * * * * * * * * * * * * * * * * * * //

dimensions      [1 -1 -2 0 0 0 0];

internalField   nonuniform List<scalar> 
17
(
1.49582e+07
1.49573e+07
1.49557e+07
1.49517e+07
1.49469e+07
1.49416e+07
1.49355e+07
1.49283e+07
1.49197e+07
1.49092e+07
1.48962e+07
1.48803e+07
1.48612e+07
1.48386e+07
1.48127e+07
1.47835e+07
1.47512e+07
)
;

boundaryField
{
    inlet
    {
        type            calculated;
        value           uniform 1.49587e+07;
    }
    outlet
    {
        type            calculated;
        value           uniform 1.47338e+07;
    }
    fixedWalls
    {
        type            calculated;
        value           nonuniform List<scalar> 
68
(
1.49582e+07
1.49573e+07
1.49557e+07
1.49517e+07
1.49469e+07
1.49416e+07
1.49355e+07
1.49283e+07
1.49197e+07
1.49092e+07
1.48962e+07
1.48803e+07
1.48612e+07
1.48386e+07
1.48127e+07
1.47835e+07
1.47512e+07
1.49582e+07
1.49573e+07
1.49557e+07
1.49517e+07
1.49469e+07
1.49416e+07
1.49355e+07
1.49283e+07
1.49197e+07
1.49092e+07
1.48962e+07
1.48803e+07
1.48612e+07
1.48386e+07
1.48127e+07
1.47835e+07
1.47512e+07
1.49582e+07
1.49573e+07
1.49557e+07
1.49517e+07
1.49469e+07
1.49416e+07
1.49355e+07
1.49283e+07
1.49197e+07
1.49092e+07
1.48962e+07
1.48803e+07
1.48612e+07
1.48386e+07
1.48127e+07
1.47835e+07
1.47512e+07
1.49582e+07
1.49573e+07
1.49557e+07
1.49517e+07
1.49469e+07
1.49416e+07
1.49355e+07
1.49283e+07
1.49197e+07
1.49092e+07
1.48962e+07
1.48803e+07
1.48612e+07
1.48386e+07
1.48127e+07
1.47835e+07
1.47512e+07
)
;
    }
}


// ************************************************************************* //
