/*--------------------------------*- C++ -*----------------------------------*\
| =========                 |                                                 |
| \\      /  F ield         | OpenFOAM: The Open Source CFD Toolbox           |
|  \\    /   O peration     | Version:  2212                                  |
|   \\  /    A nd           | Website:  www.openfoam.com                      |
|    \\/     M anipulation  |                                                 |
\*---------------------------------------------------------------------------*/
FoamFile
{
    version     2.0;
    format      ascii;
    arch        "LSB;label=32;scalar=64";
    class       volScalarField;
    location    "100/fluidRegion";
    object      p_rgh;
}
// * * * * * * * * * * * * * * * * * * * * * * * * * * * * * * * * * * * * * //

dimensions      [1 -1 -2 0 0 0 0];

internalField   nonuniform List<scalar> 
17
(
1.49584e+07
1.49578e+07
1.49566e+07
1.49532e+07
1.49489e+07
1.49441e+07
1.49385e+07
1.49318e+07
1.49235e+07
1.49133e+07
1.49005e+07
1.48849e+07
1.48659e+07
1.48435e+07
1.48178e+07
1.47888e+07
1.47566e+07
)
;

boundaryField
{
    inlet
    {
        type            fixedFluxPressure;
        gradient        uniform 12087.9;
        value           uniform 1.49587e+07;
    }
    outlet
    {
        type            fixedValue;
        value           uniform 1.47394e+07;
    }
    fixedWalls
    {
        type            fixedFluxPressure;
        gradient        uniform 0;
        value           nonuniform List<scalar> 
68
(
1.49584e+07
1.49578e+07
1.49566e+07
1.49532e+07
1.49489e+07
1.49441e+07
1.49385e+07
1.49318e+07
1.49235e+07
1.49133e+07
1.49005e+07
1.48849e+07
1.48659e+07
1.48435e+07
1.48178e+07
1.47888e+07
1.47566e+07
1.49584e+07
1.49578e+07
1.49566e+07
1.49532e+07
1.49489e+07
1.49441e+07
1.49385e+07
1.49318e+07
1.49235e+07
1.49133e+07
1.49005e+07
1.48849e+07
1.48659e+07
1.48435e+07
1.48178e+07
1.47888e+07
1.47566e+07
1.49584e+07
1.49578e+07
1.49566e+07
1.49532e+07
1.49489e+07
1.49441e+07
1.49385e+07
1.49318e+07
1.49235e+07
1.49133e+07
1.49005e+07
1.48849e+07
1.48659e+07
1.48435e+07
1.48178e+07
1.47888e+07
1.47566e+07
1.49584e+07
1.49578e+07
1.49566e+07
1.49532e+07
1.49489e+07
1.49441e+07
1.49385e+07
1.49318e+07
1.49235e+07
1.49133e+07
1.49005e+07
1.48849e+07
1.48659e+07
1.48435e+07
1.48178e+07
1.47888e+07
1.47566e+07
)
;
    }
}


// ************************************************************************* //
