/*--------------------------------*- C++ -*----------------------------------*\
| =========                 |                                                 |
| \\      /  F ield         | OpenFOAM: The Open Source CFD Toolbox           |
|  \\    /   O peration     | Version:  2212                                  |
|   \\  /    A nd           | Website:  www.openfoam.com                      |
|    \\/     M anipulation  |                                                 |
\*---------------------------------------------------------------------------*/
FoamFile
{
    version     2.0;
    format      ascii;
    arch        "LSB;label=32;scalar=64";
    class       volScalarField;
    location    "93/neutroRegion";
    object      fluxStar20;
}
// * * * * * * * * * * * * * * * * * * * * * * * * * * * * * * * * * * * * * //

dimensions      [0 -2 -1 0 0 0 0];

internalField   nonuniform List<scalar> 
350
(
9.36209e+15
2.79386e+16
4.60745e+16
6.34838e+16
7.98919e+16
9.504e+16
1.08689e+17
1.20625e+17
1.30657e+17
1.3863e+17
1.44416e+17
1.47924e+17
1.491e+17
1.47924e+17
1.44416e+17
1.3863e+17
1.30657e+17
1.20625e+17
1.08689e+17
9.504e+16
7.98919e+16
6.34838e+16
4.60745e+16
2.79386e+16
9.3621e+15
9.36209e+15
2.79386e+16
4.60745e+16
6.34838e+16
7.98919e+16
9.504e+16
1.08689e+17
1.20625e+17
1.30657e+17
1.3863e+17
1.44416e+17
1.47924e+17
1.491e+17
1.47924e+17
1.44416e+17
1.3863e+17
1.30657e+17
1.20625e+17
1.08689e+17
9.504e+16
7.98919e+16
6.34838e+16
4.60745e+16
2.79386e+16
9.36209e+15
-1.76336e+16
-5.26228e+16
-8.6782e+16
-1.19573e+17
-1.50477e+17
-1.79009e+17
-2.04717e+17
-2.27197e+17
-2.46094e+17
-2.6111e+17
-2.72008e+17
-2.78616e+17
-2.80831e+17
-2.78616e+17
-2.72008e+17
-2.6111e+17
-2.46094e+17
-2.27197e+17
-2.04717e+17
-1.79009e+17
-1.50477e+17
-1.19573e+17
-8.6782e+16
-5.26228e+16
-1.76336e+16
-1.4419e+16
-4.30296e+16
-7.09615e+16
-9.77742e+16
-1.23045e+17
-1.46375e+17
-1.67397e+17
-1.85779e+17
-2.01231e+17
-2.13509e+17
-2.2242e+17
-2.27824e+17
-2.29634e+17
-2.27824e+17
-2.2242e+17
-2.13509e+17
-2.01231e+17
-1.85779e+17
-1.67397e+17
-1.46375e+17
-1.23045e+17
-9.77742e+16
-7.09615e+16
-4.30296e+16
-1.4419e+16
-1.82468e+16
-5.44528e+16
-8.97998e+16
-1.23731e+17
-1.5571e+17
-1.85234e+17
-2.11837e+17
-2.35098e+17
-2.54652e+17
-2.7019e+17
-2.81467e+17
-2.88305e+17
-2.90597e+17
-2.88305e+17
-2.81467e+17
-2.7019e+17
-2.54652e+17
-2.35098e+17
-2.11837e+17
-1.85234e+17
-1.5571e+17
-1.23731e+17
-8.97998e+16
-5.44528e+16
-1.82468e+16
-1.52615e+16
-4.55439e+16
-7.51079e+16
-1.03487e+17
-1.30235e+17
-1.54929e+17
-1.77178e+17
-1.96634e+17
-2.12989e+17
-2.25985e+17
-2.35417e+17
-2.41136e+17
-2.43053e+17
-2.41136e+17
-2.35417e+17
-2.25985e+17
-2.12989e+17
-1.96634e+17
-1.77178e+17
-1.54929e+17
-1.30235e+17
-1.03487e+17
-7.51079e+16
-4.55439e+16
-1.52615e+16
-1.52615e+16
-4.55439e+16
-7.51079e+16
-1.03487e+17
-1.30235e+17
-1.54928e+17
-1.77178e+17
-1.96634e+17
-2.12989e+17
-2.25985e+17
-2.35417e+17
-2.41136e+17
-2.43053e+17
-2.41136e+17
-2.35417e+17
-2.25985e+17
-2.12989e+17
-1.96634e+17
-1.77178e+17
-1.54928e+17
-1.30235e+17
-1.03487e+17
-7.51079e+16
-4.55439e+16
-1.52615e+16
-1.82468e+16
-5.44527e+16
-8.97999e+16
-1.23731e+17
-1.5571e+17
-1.85234e+17
-2.11837e+17
-2.35098e+17
-2.54652e+17
-2.7019e+17
-2.81467e+17
-2.88305e+17
-2.90597e+17
-2.88305e+17
-2.81467e+17
-2.7019e+17
-2.54652e+17
-2.35098e+17
-2.11837e+17
-1.85234e+17
-1.5571e+17
-1.23731e+17
-8.97999e+16
-5.44527e+16
-1.82468e+16
-1.4419e+16
-4.30296e+16
-7.09615e+16
-9.77743e+16
-1.23045e+17
-1.46375e+17
-1.67397e+17
-1.85779e+17
-2.01231e+17
-2.13509e+17
-2.2242e+17
-2.27824e+17
-2.29634e+17
-2.27824e+17
-2.2242e+17
-2.13509e+17
-2.01231e+17
-1.85779e+17
-1.67397e+17
-1.46375e+17
-1.23045e+17
-9.77743e+16
-7.09615e+16
-4.30296e+16
-1.4419e+16
-1.76336e+16
-5.26228e+16
-8.67821e+16
-1.19573e+17
-1.50477e+17
-1.79009e+17
-2.04717e+17
-2.27197e+17
-2.46094e+17
-2.6111e+17
-2.72008e+17
-2.78616e+17
-2.8083e+17
-2.78616e+17
-2.72008e+17
-2.6111e+17
-2.46094e+17
-2.27197e+17
-2.04717e+17
-1.79009e+17
-1.50477e+17
-1.19573e+17
-8.67821e+16
-5.26228e+16
-1.76336e+16
-1.52615e+16
-4.55439e+16
-7.5108e+16
-1.03487e+17
-1.30235e+17
-1.54929e+17
-1.77178e+17
-1.96634e+17
-2.12989e+17
-2.25985e+17
-2.35417e+17
-2.41136e+17
-2.43052e+17
-2.41136e+17
-2.35417e+17
-2.25985e+17
-2.12989e+17
-1.96634e+17
-1.77178e+17
-1.54929e+17
-1.30235e+17
-1.03487e+17
-7.5108e+16
-4.55439e+16
-1.52615e+16
-1.82469e+16
-5.44528e+16
-8.98e+16
-1.23731e+17
-1.5571e+17
-1.85234e+17
-2.11837e+17
-2.35098e+17
-2.54652e+17
-2.7019e+17
-2.81467e+17
-2.88305e+17
-2.90596e+17
-2.88305e+17
-2.81467e+17
-2.7019e+17
-2.54652e+17
-2.35098e+17
-2.11837e+17
-1.85234e+17
-1.5571e+17
-1.23731e+17
-8.98e+16
-5.44528e+16
-1.82469e+16
-1.82468e+16
-5.44528e+16
-8.97999e+16
-1.23731e+17
-1.5571e+17
-1.85234e+17
-2.11837e+17
-2.35098e+17
-2.54652e+17
-2.7019e+17
-2.81467e+17
-2.88305e+17
-2.90596e+17
-2.88305e+17
-2.81467e+17
-2.7019e+17
-2.54652e+17
-2.35098e+17
-2.11837e+17
-1.85234e+17
-1.5571e+17
-1.23731e+17
-8.97999e+16
-5.44528e+16
-1.82468e+16
-1.52615e+16
-4.55439e+16
-7.5108e+16
-1.03487e+17
-1.30235e+17
-1.54929e+17
-1.77178e+17
-1.96634e+17
-2.12989e+17
-2.25985e+17
-2.35417e+17
-2.41136e+17
-2.43052e+17
-2.41136e+17
-2.35417e+17
-2.25985e+17
-2.12989e+17
-1.96634e+17
-1.77178e+17
-1.54929e+17
-1.30235e+17
-1.03487e+17
-7.5108e+16
-4.55439e+16
-1.52615e+16
)
;

boundaryField
{
    outletCentralUnloaded
    {
        type            fixedValue;
        value           uniform 0;
    }
    inletCentralUnloaded
    {
        type            fixedValue;
        value           uniform 0;
    }
    outletFuelElement
    {
        type            fixedValue;
        value           uniform 0;
    }
    inletFuelElement
    {
        type            fixedValue;
        value           uniform 0;
    }
    defaultFaces
    {
        type            zeroGradient;
    }
}


// ************************************************************************* //
