/*--------------------------------*- C++ -*----------------------------------*\
| =========                 |                                                 |
| \\      /  F ield         | OpenFOAM: The Open Source CFD Toolbox           |
|  \\    /   O peration     | Version:  2212                                  |
|   \\  /    A nd           | Website:  www.openfoam.com                      |
|    \\/     M anipulation  |                                                 |
\*---------------------------------------------------------------------------*/
FoamFile
{
    version     2.0;
    format      ascii;
    arch        "LSB;label=32;scalar=64";
    class       surfaceScalarField;
    location    "20/fluidRegion";
    object      alphaPhi;
}
// * * * * * * * * * * * * * * * * * * * * * * * * * * * * * * * * * * * * * //

dimensions      [0 3 -1 0 0 0 0];

oriented        oriented;

internalField   nonuniform List<scalar> 
661
(
-0.000538558
-2.40075e-16
-0.000538514
-4.80432e-16
-0.000538469
-3.10234e-16
-0.000538425
3.6492e-18
-0.000538381
-4.20512e-16
-0.000538337
-1.26429e-16
-0.000538292
-2.39709e-16
-0.000538248
-1.30164e-16
-0.000538204
-2.98048e-16
-0.00053816
6.00232e-18
-0.000538115
-4.48129e-16
-0.000538071
-6.45517e-16
-0.000538027
-1.06303e-16
-0.000537983
-6.51004e-18
-0.000537939
-1.99167e-16
-0.000537894
-2.26965e-16
-0.00053785
-1.66934e-16
-0.000537806
-1.04685e-16
-0.000537762
-1.12322e-16
-0.000537718
-2.71567e-16
-0.000537673
8.32158e-17
-0.000537629
-1.82186e-16
-0.000537585
-1.27044e-16
-0.000537542
3.21656e-16
2.4152e-15
-0.000538558
-0.000538514
-0.000538469
-0.000538425
-0.000538381
-0.000538337
-0.000538292
-0.000538248
-0.000538204
-0.00053816
-0.000538115
-0.000538071
-0.000538027
-0.000537983
-0.000537939
-0.000537894
-0.00053785
-0.000537806
-0.000537762
-0.000537718
-0.000537673
-0.000537629
-0.000537585
-0.000537542
-0.0170727
1.04427e-06
-0.0168103
6.69064e-07
-0.016436
7.52027e-07
-0.0159575
6.72567e-07
-0.0153826
6.03453e-07
-0.0147203
5.35595e-07
-0.0139798
4.67794e-07
-0.0131706
3.95719e-07
-0.012303
3.14093e-07
-0.0113878
2.15579e-07
-0.0104368
9.45759e-08
-0.0094625
-5.32022e-08
-0.00847872
-2.17628e-07
-0.00750017
-3.88083e-07
-0.00654205
-5.43184e-07
-0.0056193
-6.63193e-07
-0.00474577
-7.36925e-07
-0.00393365
-7.66581e-07
-0.00319327
-7.64663e-07
-0.00253381
-7.46731e-07
-0.00196369
-7.23761e-07
-0.0014916
-6.94358e-07
-0.00112632
-6.47339e-07
-0.0008758
-5.51984e-07
-4.91613e-07
-0.0171754
-6.81594e-08
-6.81665e-08
-0.0169131
-1.99131e-07
-2.02787e-07
-0.016538
-1.81917e-07
-1.81812e-07
-0.0160576
-1.58071e-07
-1.55549e-07
-0.0154803
-1.37103e-07
-1.32665e-07
-0.0148148
-1.1686e-07
-1.12126e-07
-0.0140703
-9.66831e-08
-9.19055e-08
-0.0132565
-7.58464e-08
-7.15186e-08
-0.0123837
-5.23506e-08
-4.8333e-08
-0.0114628
-2.45425e-08
-2.10793e-08
-0.0105054
1.05828e-08
1.35878e-08
-0.00952438
5.11572e-08
5.36437e-08
-0.00853347
1.00747e-07
1.02773e-07
-0.00754759
1.52317e-07
1.53717e-07
-0.00658212
2.00578e-07
2.01397e-07
-0.00565223
2.38823e-07
2.38989e-07
-0.00477197
2.63218e-07
2.62785e-07
-0.00395368
2.73787e-07
2.72791e-07
-0.00320783
2.74289e-07
2.72796e-07
-0.00254367
2.693e-07
2.6742e-07
-0.00196973
2.61942e-07
2.59859e-07
-0.00149471
2.50378e-07
2.4816e-07
-0.00112749
2.28158e-07
2.25822e-07
-0.000875967
1.77109e-07
1.74704e-07
1.34144e-07
1.31915e-07
-0.0170558
6.16823e-07
-0.0167935
7.10661e-07
-0.0164195
6.84306e-07
-0.0159412
6.05112e-07
-0.0153669
5.32254e-07
-0.0147051
4.62253e-07
-0.0139652
3.91924e-07
-0.0131568
3.1722e-07
-0.0122901
2.31342e-07
-0.0113759
1.27175e-07
-0.0104259
-1.37297e-09
-0.00945269
-1.56132e-07
-0.00847005
-3.29693e-07
-0.00749266
-5.07574e-07
-0.00653569
-6.67447e-07
-0.00561406
-7.88309e-07
-0.00474158
-8.59495e-07
-0.00393041
-8.84059e-07
-0.00319087
-8.76106e-07
-0.00253212
-8.5172e-07
-0.00196259
-8.21159e-07
-0.00149093
-7.81037e-07
-0.00112595
-7.115e-07
-0.000875619
-5.771e-07
-4.54983e-07
-0.0171525
1.93354e-09
-0.0168901
-3.52937e-10
-0.0165151
1.60086e-10
-0.0160352
6.7461e-11
-0.0154584
9.88379e-11
-0.0147935
1.04188e-10
-0.0140499
7.00047e-11
-0.0132371
1.0701e-10
-0.0123655
1.1937e-10
-0.0114458
9.85739e-11
-0.0104899
1.51703e-10
-0.00951032
1.79288e-10
-0.00852101
2.41692e-10
-0.00753679
2.73608e-10
-0.00657299
2.52375e-10
-0.00564472
2.08043e-10
-0.00476599
1.79723e-10
-0.0039491
2.23533e-10
-0.00320451
2.18519e-10
-0.00254143
2.22542e-10
-0.00196836
2.36348e-10
-0.00149402
1.35847e-10
-0.00112725
-1.38598e-12
-0.00087595
-1.2034e-10
-3.51365e-10
-0.0171525
-6.12848e-07
-0.0168901
-7.11413e-07
-0.0165152
-6.83784e-07
-0.0160352
-6.04794e-07
-0.0154584
-5.31938e-07
-0.0147936
-4.61991e-07
-0.0140499
-3.91718e-07
-0.0132371
-3.16958e-07
-0.0123655
-2.31063e-07
-0.0114458
-1.26908e-07
-0.0104899
1.75003e-09
-0.00951033
1.56548e-07
-0.00852102
3.30218e-07
-0.00753679
5.08142e-07
-0.00657299
6.67962e-07
-0.00564472
7.88749e-07
-0.00476599
8.5989e-07
-0.00394911
8.84514e-07
-0.00320451
8.76541e-07
-0.00254143
8.52152e-07
-0.00196836
8.21593e-07
-0.00149402
7.81312e-07
-0.00112725
7.11513e-07
-0.000875951
5.76865e-07
4.54302e-07
-0.0170559
6.43442e-08
-0.0167935
1.97998e-07
-0.0164195
1.81675e-07
-0.0159413
1.58795e-07
-0.0153669
1.3886e-07
-0.0147052
1.18415e-07
-0.0139653
9.84939e-08
-0.0131568
7.71825e-08
-0.0122901
5.37733e-08
-0.0113759
2.5442e-08
-0.0104259
-9.64141e-09
-0.0094527
-5.06877e-08
-0.00847006
-1.00263e-07
-0.00749267
-1.52215e-07
-0.0065357
-2.00611e-07
-0.00561406
-2.39239e-07
-0.00474158
-2.63786e-07
-0.00393041
-2.74598e-07
-0.00319088
-2.75233e-07
-0.00253212
-2.70434e-07
-0.00196259
-2.63113e-07
-0.00149093
-2.51595e-07
-0.00112595
-2.293e-07
-0.000875618
-1.78008e-07
-1.34621e-07
-0.0171754
-1.04662e-06
-7.01887e-08
-0.0169131
-6.71514e-07
-2.01635e-07
-0.016538
-7.51332e-07
-1.8233e-07
-0.0160576
-6.70381e-07
-1.56312e-07
-0.0154803
-5.99754e-07
-1.33804e-07
-0.0148148
-5.32311e-07
-1.1316e-07
-0.0140703
-4.64207e-07
-9.29715e-08
-0.0132565
-3.92894e-07
-7.24577e-08
-0.0123837
-3.11208e-07
-4.92732e-08
-0.0114628
-2.13474e-07
-2.18421e-08
-0.0105054
-9.24641e-08
1.27682e-08
-0.00952438
5.45937e-08
5.29836e-08
-0.00853347
2.18942e-07
1.02094e-07
-0.00754759
3.88757e-07
1.53164e-07
-0.00658212
5.43569e-07
2.0096e-07
-0.00565223
6.62949e-07
2.38741e-07
-0.00477197
7.3638e-07
2.62664e-07
-0.00395368
7.65617e-07
2.72746e-07
-0.00320783
7.63468e-07
2.72837e-07
-0.00254367
7.45263e-07
2.67534e-07
-0.00196973
7.22223e-07
2.59998e-07
-0.00149471
6.9273e-07
2.484e-07
-0.00112749
6.45714e-07
2.26211e-07
-0.000875967
5.505e-07
1.75195e-07
4.90376e-07
1.32638e-07
-0.0170727
-0.0168102
-0.016436
-0.0159574
-0.0153826
-0.0147203
-0.0139798
-0.0131706
-0.012303
-0.0113878
-0.0104368
-0.0094625
-0.00847872
-0.00750017
-0.00654205
-0.0056193
-0.00474577
-0.00393365
-0.00319327
-0.00253381
-0.00196369
-0.0014916
-0.00112632
-0.0008758
-0.0171525
-6.1712e-07
2.04078e-09
-0.0168901
-7.10615e-07
-6.75594e-10
-0.0165151
-6.83915e-07
2.02915e-10
-0.0160352
-6.04721e-07
3.52211e-11
-0.0154584
-5.31666e-07
7.79765e-11
-0.0147935
-4.6191e-07
-2.83898e-11
-0.0140499
-3.91497e-07
7.5402e-11
-0.0132371
-3.17013e-07
3.81642e-11
-0.0123655
-2.31042e-07
1.15589e-10
-0.0114458
-1.27119e-07
1.55652e-10
-0.0104899
1.52124e-09
2.26132e-10
-0.00951032
1.56101e-07
2.44363e-10
-0.00852101
3.29783e-07
2.57716e-10
-0.00753679
5.07535e-07
2.39898e-10
-0.00657299
6.6738e-07
3.03122e-10
-0.00564472
7.88055e-07
3.34299e-10
-0.00476599
8.59226e-07
3.62842e-10
-0.0039491
8.83764e-07
3.13438e-10
-0.00320451
8.75832e-07
3.16245e-10
-0.00254143
8.5143e-07
3.10618e-10
-0.00196836
8.20909e-07
2.78023e-10
-0.00149402
7.8072e-07
2.79327e-10
-0.00112725
7.11174e-07
2.21354e-10
-0.00087595
5.76884e-07
3.93743e-11
4.54863e-07
-2.28631e-10
-0.0170558
-0.0167935
-0.0164195
-0.0159412
-0.0153669
-0.0147051
-0.0139652
-0.0131568
-0.0122901
-0.0113759
-0.0104259
-0.00945269
-0.00847005
-0.00749266
-0.00653569
-0.00561406
-0.00474158
-0.00393041
-0.00319087
-0.00253212
-0.00196259
-0.00149093
-0.00112595
-0.000875619
-0.0170559
6.09886e-07
-0.0167935
7.08133e-07
-0.0164195
6.84149e-07
-0.0159413
6.07156e-07
-0.0153669
5.36464e-07
-0.0147052
4.66076e-07
-0.0139652
3.96253e-07
-0.0131568
3.20514e-07
-0.0122901
2.34753e-07
-0.0113759
1.29523e-07
-0.0104259
9.28181e-10
-0.0094527
-1.54775e-07
-0.00847006
-3.28508e-07
-0.00749266
-5.07286e-07
-0.0065357
-6.67452e-07
-0.00561406
-7.89116e-07
-0.00474158
-8.60649e-07
-0.00393041
-8.85852e-07
-0.00319088
-8.7821e-07
-0.00253212
-8.54236e-07
-0.00196259
-8.23776e-07
-0.00149093
-7.83694e-07
-0.00112595
-7.13937e-07
-0.000875618
-5.7915e-07
-4.56128e-07
-0.0171525
-0.0168901
-0.0165152
-0.0160352
-0.0154584
-0.0147936
-0.0140499
-0.0132371
-0.0123655
-0.0114458
-0.0104899
-0.00951033
-0.00852102
-0.00753679
-0.00657299
-0.00564472
-0.00476599
-0.00394911
-0.00320451
-0.00254143
-0.00196836
-0.00149402
-0.00112725
-0.000875951
)
;

boundaryField
{
    outletCentralUnloaded
    {
        type            calculated;
        value           nonuniform List<scalar> 2(0.000538603 0.000538603);
    }
    inletCentralUnloaded
    {
        type            calculated;
        value           uniform -0.000540134;
    }
    outletFuelElement
    {
        type            calculated;
        value           nonuniform List<scalar> 
12
(
0.0172818
0.0173859
0.0172652
0.0173627
0.0173627
0.0172653
0.0173859
0.0172818
0.0173627
0.0172652
0.0172653
0.0173627
)
;
    }
    inletFuelElement
    {
        type            calculated;
        value           nonuniform List<scalar> 
12
(
-0.000722059
-0.00072206
-0.000722059
-0.000722059
-0.00072206
-0.000722059
-0.00072206
-0.000722059
-0.000722059
-0.000722059
-0.000722059
-0.00072206
)
;
    }
    defaultFaces
    {
        type            calculated;
        value           nonuniform List<scalar> 
450
(
2.54388e-23
-1.85527e-23
0
2.48129e-23
-2.23023e-23
0
3.02065e-23
-8.25286e-24
0
-4.7016e-23
-2.35864e-23
0
-2.08932e-23
-4.1737e-23
0
-2.66891e-23
-2.07549e-23
0
-2.78101e-23
-9.41986e-24
0
-2.64773e-23
-1.1273e-23
0
-1.76775e-23
-4.51597e-24
0
-1.87198e-23
-5.29913e-24
0
-6.92062e-24
-1.94258e-24
0
3.59325e-24
8.63646e-25
0
1.98351e-23
1.60427e-24
0
3.11164e-23
9.70901e-24
0
4.08517e-23
2.22693e-23
0
3.85771e-23
1.95601e-23
0
3.97411e-23
-2.93842e-23
0
4.31931e-23
3.02908e-23
0
5.63962e-23
-5.03175e-23
0
-2.22052e-23
-6.71507e-24
0
-3.24506e-23
-1.74363e-24
0
4.09468e-23
-2.43967e-23
0
-1.99275e-23
1.04528e-23
0
-1.95746e-23
-4.70604e-25
0
-1.45215e-23
-1.443e-23
0
1.80511e-23
0
3.20908e-23
0
1.60454e-23
0
1.60454e-23
0
-8.0227e-24
0
1.2034e-23
0
2.00567e-23
0
1.2034e-23
0
-2.00567e-24
0
5.01419e-24
0
0
0
-4.01135e-24
0
-1.2034e-23
0
-8.0227e-24
0
-3.20908e-23
0
-1.60454e-23
0
4.01135e-23
0
-2.40681e-23
0
8.0227e-24
0
-4.01135e-23
0
-4.01135e-23
0
4.81362e-23
0
8.0227e-24
0
-1.60454e-23
0
-1.60454e-23
0
-8.0227e-24
-1.60454e-23
1.60454e-23
-1.60454e-23
8.0227e-24
-8.0227e-24
-8.0227e-24
-8.0227e-24
4.01135e-24
-2.00567e-24
4.7008e-26
0
4.01135e-24
1.60454e-23
8.0227e-24
1.60454e-23
-3.20908e-23
1.60454e-23
-3.20908e-23
0
0
-3.20908e-23
-3.20908e-23
0
0
0
0
0
0
0
0
0
0
0
0
0
0
0
0
0
0
0
0
0
0
0
0
0
0
0
-2.20624e-23
1.60454e-23
0
2.40681e-23
1.60454e-23
4.01135e-23
-2.40681e-23
-8.0227e-24
2.00567e-23
-1.60454e-23
-2.00567e-23
-4.01135e-24
-1.2034e-23
-1.2034e-23
-4.01135e-24
-8.0227e-24
1.40397e-23
-1.00284e-23
-4.01135e-24
-2.00567e-24
0
5.01419e-25
4.01135e-24
3.00851e-24
1.60454e-23
1.2034e-23
8.0227e-24
1.2034e-23
2.40681e-23
1.2034e-23
8.0227e-24
1.60454e-23
-2.40681e-23
4.01135e-23
1.60454e-23
2.40681e-23
-5.61589e-23
4.01135e-23
-4.01135e-23
-2.40681e-23
8.0227e-24
-1.60454e-23
-4.01135e-23
3.20908e-23
-1.60454e-23
-2.00567e-23
8.0227e-24
-2.00567e-23
-2.00567e-23
-1.60454e-23
2.28771e-23
0
-1.60454e-23
1.30116e-23
0
0
1.70585e-23
0
-6.41816e-23
-5.69141e-23
0
2.40681e-23
1.7425e-23
0
-8.0227e-24
-4.26306e-23
0
8.0227e-24
-3.27168e-23
0
1.60454e-23
-3.17294e-23
0
1.60454e-23
-1.4877e-23
0
-1.2034e-23
-2.11803e-23
0
4.01135e-24
-8.34705e-24
0
2.00567e-24
4.95928e-24
-0
-2.00567e-24
1.87417e-23
-0
-4.01135e-24
3.08165e-23
-0
-8.0227e-24
4.57788e-23
-0
-8.0227e-24
6.39476e-23
-0
-8.0227e-24
4.16742e-23
-0
0
6.21137e-23
-0
-1.60454e-23
3.84634e-23
-0
-3.20908e-23
-3.01303e-23
-0
1.60454e-23
-1.16493e-23
-0
0
3.779e-23
-0
0
-1.87631e-23
-0
8.0227e-24
-1.10945e-23
-0
8.0227e-24
-1.41176e-23
-0
8.0227e-24
-8.0227e-24
0
0
-1.60454e-23
8.0227e-24
-1.60454e-23
0
-4.01135e-24
0
0
1.56693e-26
2.00567e-24
0
1.60454e-23
0
1.60454e-23
-3.20908e-23
0
-4.81362e-23
-1.60454e-23
0
-3.20908e-23
-1.60454e-23
0
0
2.00567e-23
0
2.40681e-23
0
0
0
2.40681e-23
0
-1.2034e-23
0
8.0227e-24
0
1.2034e-23
0
1.2034e-23
0
0
0
4.01135e-24
0
0
0
-6.01702e-24
-0
-1.2034e-23
-0
-1.60454e-23
-0
-3.20908e-23
-0
-2.40681e-23
-0
3.20908e-23
-0
-2.40681e-23
-0
5.61589e-23
-0
-2.40681e-23
-0
-3.20908e-23
-0
4.81362e-23
-0
8.0227e-24
-0
-2.40681e-23
-0
-2.00567e-23
-0
-1.60454e-23
0
-2.40681e-23
1.60454e-23
0
1.60454e-23
-1.60454e-23
-4.01135e-23
4.01135e-24
1.2034e-23
-8.0227e-24
-3.61021e-23
-4.01135e-24
-2.40681e-23
-8.0227e-24
-1.60454e-23
0
-8.0227e-24
-2.00567e-24
-6.01702e-24
-5.01419e-25
2.00567e-24
0
1.2034e-23
0
2.60738e-23
0
3.61021e-23
8.0227e-24
5.21475e-23
1.60454e-23
6.41816e-23
-8.0227e-24
4.01135e-23
2.40681e-23
8.0227e-23
0
4.81362e-23
-8.0227e-24
-1.60454e-23
8.0227e-24
-3.20908e-23
8.0227e-24
3.20908e-23
2.40681e-23
-8.0227e-24
-8.0227e-24
-2.00567e-23
-4.01135e-24
-8.0227e-24
-0
-0
-0
-0
-0
-0
-0
-0
-0
-0
-0
0
0
0
0
0
0
0
0
0
0
0
0
0
0
)
;
    }
    baffle_master
    {
        type            calculated;
        value           nonuniform List<scalar> 
150
(
4.83168e-34
0
0
3.60602e-33
0
1.11784e-32
-3.58476e-33
0
0
2.62106e-35
0
-4.36656e-35
-2.84809e-32
0
-1.11784e-32
5.62755e-34
0
0
2.82929e-33
0
-5.5892e-33
1.38893e-33
0
0
3.90014e-33
0
-5.5892e-33
-7.33007e-35
0
-8.73313e-35
-5.64227e-33
0
5.5892e-33
1.79588e-33
0
1.11784e-32
-1.86101e-34
0
0
-2.13095e-35
0
-8.73313e-35
-2.3239e-34
0
2.7946e-33
6.81988e-34
0
0
1.64589e-32
0
1.11784e-32
-2.45443e-34
0
0
7.24532e-33
0
4.1919e-33
2.84541e-33
0
5.5892e-33
5.30752e-34
0
-1.3973e-33
-1.07644e-32
0
-2.7946e-33
4.52525e-34
0
0
3.40434e-34
0
-5.5892e-33
1.07151e-32
0
-8.94272e-32
0
-9.74222e-33
0
0
-1.55218e-32
0
5.5892e-33
-1.17774e-32
0
-4.36656e-35
1.12575e-34
-0
-5.5892e-33
1.62934e-32
0
2.7946e-33
-2.32997e-33
0
5.5892e-33
-8.30534e-33
0
2.7946e-33
-8.43634e-33
0
-1.11784e-32
-1.00602e-32
0
-1.74663e-34
2.579e-34
-0
0
-1.87742e-32
0
0
-2.54448e-32
0
2.7946e-33
-5.12526e-33
0
0
-1.63064e-34
0
0
-8.44316e-33
0
2.7946e-33
-7.16526e-33
0
-5.5892e-33
-5.87166e-33
0
1.3973e-33
-3.51918e-33
0
-5.5892e-33
2.48348e-34
0
-5.5892e-33
8.77611e-33
0
-1.3973e-33
-3.17872e-33
-0
-8.3838e-33
1.4686e-32
0
-5.5892e-33
-3.68906e-33
0
0
-1.06264e-32
-0
0
-8.70454e-32
-0
)
;
    }
    baffle_slave
    {
        type            calculated;
        value           nonuniform List<scalar> 
150
(
3.12407e-25
-0
8.0227e-24
-3.00851e-24
-0
0
-3.92125e-24
-0
0
2.7578e-24
-0
1.60454e-23
-2.82048e-23
-0
-2.40681e-23
-2.7578e-24
-0
0
3.25922e-24
-0
8.0227e-24
2.25638e-24
-0
0
-6.26773e-25
-0
-4.01135e-24
-3.76064e-25
-0
0
-1.00284e-24
0
-1.56693e-26
0
0
0
8.77483e-25
0
4.01135e-24
-1.19087e-24
0
8.0227e-24
3.94867e-24
0
-8.0227e-24
-9.90302e-24
0
-1.60454e-23
-5.34011e-23
0
-3.20908e-23
-3.76064e-25
0
3.20908e-23
-2.73273e-23
0
-3.20908e-23
-3.57261e-24
0
0
-8.14805e-25
0
-1.60454e-23
3.08999e-23
0
3.20908e-23
3.25922e-24
0
0
-4.63812e-24
0
-8.0227e-24
-8.33609e-24
0
0
-1.18506e-23
3.66036e-23
0
3.00548e-24
1.5544e-23
0
5.3554e-24
1.83018e-23
0
-5.46269e-24
1.9806e-23
0
-1.45154e-24
-2.9333e-23
0
1.14606e-23
1.80511e-23
0
8.59391e-25
1.67975e-23
0
-3.82092e-25
1.35383e-23
0
5.76907e-24
9.27625e-24
0
-2.54333e-24
4.38741e-24
0
1.06136e-26
4.51277e-24
0
1.48651e-24
-1.25355e-25
0
8.68064e-25
-3.19654e-24
0
1.34123e-23
-7.14522e-24
0
5.53398e-24
-1.36793e-23
0
3.13595e-23
-1.26452e-23
0
-2.66353e-23
-1.51052e-23
0
-4.05728e-24
-2.01194e-23
0
-2.02517e-23
7.27057e-24
0
-1.84455e-23
6.89451e-24
0
-1.64215e-23
1.26608e-23
0
-3.47174e-23
2.68259e-23
0
-1.18105e-23
-1.67975e-23
0
5.26092e-24
1.42904e-23
0
-5.60608e-24
9.9657e-24
0
)
;
    }
}


// ************************************************************************* //
