/*--------------------------------*- C++ -*----------------------------------*\
| =========                 |                                                 |
| \\      /  F ield         | OpenFOAM: The Open Source CFD Toolbox           |
|  \\    /   O peration     | Version:  2212                                  |
|   \\  /    A nd           | Website:  www.openfoam.com                      |
|    \\/     M anipulation  |                                                 |
\*---------------------------------------------------------------------------*/
FoamFile
{
    version     2.0;
    format      ascii;
    arch        "LSB;label=32;scalar=64";
    class       volScalarField;
    location    "20/fluidRegion";
    object      epsilon;
}
// * * * * * * * * * * * * * * * * * * * * * * * * * * * * * * * * * * * * * //

dimensions      [0 2 -3 0 0 0 0];

internalField   nonuniform List<scalar> 
350
(
66.8512
66.8347
66.8183
66.8018
66.7854
66.7691
66.7528
66.7366
66.7206
66.7048
66.6893
66.6744
66.6603
66.6474
66.6363
66.6281
66.6242
66.627
66.6399
66.6683
66.7203
66.8085
66.952
67.18
67.5369
66.8512
66.8347
66.8183
66.8018
66.7854
66.7691
66.7528
66.7366
66.7206
66.7048
66.6893
66.6744
66.6603
66.6474
66.6363
66.6281
66.6242
66.627
66.6399
66.6683
66.7203
66.8085
66.952
67.18
67.5369
4.72718e+06
4.41365e+06
4.0474e+06
3.63708e+06
3.20125e+06
2.75786e+06
2.32324e+06
1.91141e+06
1.53355e+06
1.19765e+06
908515
667807
474361
324645
213362
134166
80388.5
45685.3
24511.7
12377.5
5901.27
2715.22
1290.15
727.029
554.802
4.82298e+06
4.50422e+06
4.13163e+06
3.71372e+06
3.26949e+06
2.81725e+06
2.37373e+06
1.95326e+06
1.5673e+06
1.22407e+06
928529
682425
484614
331518
217745
136809
81884.8
46473.5
24893.1
12544
5965.21
2736.07
1295.66
728.215
555.188
4.71138e+06
4.39872e+06
4.03359e+06
3.62456e+06
3.19014e+06
2.74822e+06
2.31508e+06
1.90467e+06
1.52813e+06
1.19342e+06
905321
665480
472733
323554
212667
133747
80150.3
45559.1
24449.9
12349.8
5890.15
2711.23
1288.86
726.632
554.668
4.80179e+06
4.48414e+06
4.1129e+06
3.69664e+06
3.25424e+06
2.80395e+06
2.3624e+06
1.94385e+06
1.55969e+06
1.2181e+06
923998
679109
482284
329954
216746
136206
81543
46293.3
24806
12506
5950.66
2731.36
1294.44
727.968
555.112
4.80179e+06
4.48414e+06
4.1129e+06
3.69664e+06
3.25424e+06
2.80395e+06
2.3624e+06
1.94385e+06
1.55969e+06
1.2181e+06
923998
679109
482284
329954
216746
136206
81543
46293.3
24806
12506
5950.66
2731.36
1294.44
727.968
555.112
4.71139e+06
4.39873e+06
4.03359e+06
3.62456e+06
3.19015e+06
2.74822e+06
2.31508e+06
1.90468e+06
1.52813e+06
1.19342e+06
905322
665481
472733
323555
212667
133747
80150.4
45559.1
24449.9
12349.8
5890.15
2711.23
1288.86
726.631
554.668
4.82298e+06
4.50422e+06
4.13163e+06
3.71372e+06
3.26949e+06
2.81725e+06
2.37373e+06
1.95326e+06
1.5673e+06
1.22407e+06
928529
682425
484614
331518
217745
136809
81884.8
46473.5
24893.1
12544
5965.21
2736.07
1295.66
728.215
555.188
4.72718e+06
4.41365e+06
4.0474e+06
3.63708e+06
3.20125e+06
2.75786e+06
2.32324e+06
1.91141e+06
1.53355e+06
1.19765e+06
908515
667807
474361
324645
213362
134166
80388.4
45685.3
24511.7
12377.5
5901.26
2715.22
1290.15
727.027
554.8
4.80179e+06
4.48414e+06
4.1129e+06
3.69664e+06
3.25424e+06
2.80395e+06
2.3624e+06
1.94385e+06
1.55969e+06
1.2181e+06
923998
679109
482284
329954
216746
136206
81543
46293.3
24806
12506
5950.66
2731.36
1294.44
727.968
555.112
4.71138e+06
4.39872e+06
4.03359e+06
3.62456e+06
3.19014e+06
2.74822e+06
2.31508e+06
1.90467e+06
1.52813e+06
1.19342e+06
905321
665480
472733
323554
212667
133747
80150.3
45559
24449.9
12349.8
5890.14
2711.23
1288.86
726.63
554.666
4.71139e+06
4.39872e+06
4.03359e+06
3.62456e+06
3.19015e+06
2.74822e+06
2.31508e+06
1.90468e+06
1.52813e+06
1.19342e+06
905323
665481
472733
323555
212667
133747
80150.4
45559.1
24449.9
12349.8
5890.14
2711.23
1288.86
726.63
554.667
4.80179e+06
4.48414e+06
4.1129e+06
3.69664e+06
3.25424e+06
2.80395e+06
2.3624e+06
1.94385e+06
1.55969e+06
1.2181e+06
923999
679109
482284
329954
216746
136206
81543
46293.3
24806
12506
5950.65
2731.35
1294.44
727.966
555.109
)
;

boundaryField
{
    outletCentralUnloaded
    {
        type            zeroGradient;
    }
    inletCentralUnloaded
    {
        type            zeroGradient;
    }
    outletFuelElement
    {
        type            zeroGradient;
    }
    inletFuelElement
    {
        type            zeroGradient;
    }
    defaultFaces
    {
        type            zeroGradient;
    }
    baffle_master
    {
        type            zeroGradient;
    }
    baffle_slave
    {
        type            zeroGradient;
    }
}


// ************************************************************************* //
