/*--------------------------------*- C++ -*----------------------------------*\
| =========                 |                                                 |
| \\      /  F ield         | OpenFOAM: The Open Source CFD Toolbox           |
|  \\    /   O peration     | Version:  2212                                  |
|   \\  /    A nd           | Website:  www.openfoam.com                      |
|    \\/     M anipulation  |                                                 |
\*---------------------------------------------------------------------------*/
FoamFile
{
    version     2.0;
    format      ascii;
    arch        "LSB;label=32;scalar=64";
    class       volScalarField;
    location    "20/fluidRegion";
    object      htc;
}
// * * * * * * * * * * * * * * * * * * * * * * * * * * * * * * * * * * * * * //

dimensions      [1 0 -3 -1 0 0 0];

internalField   nonuniform List<scalar> 
350
(
3099.5
3099.52
3099.53
3099.55
3099.57
3099.58
3099.6
3099.62
3099.63
3099.65
3099.67
3099.69
3099.7
3099.72
3099.74
3099.75
3099.77
3099.79
3099.8
3099.82
3099.84
3099.85
3099.87
3099.89
3105.98
3099.5
3099.52
3099.53
3099.55
3099.57
3099.58
3099.6
3099.62
3099.63
3099.65
3099.67
3099.69
3099.7
3099.72
3099.74
3099.75
3099.77
3099.79
3099.8
3099.82
3099.84
3099.85
3099.87
3099.89
3105.98
24146.9
24113.1
23997.9
23765.8
23418.2
22957.7
22387.6
21712.2
20937.4
20071.1
19122.7
18103.9
17027.6
15907
14754.2
13579.6
12391.5
11198.2
10010.9
8847.36
7735.71
6718.47
5855.32
5218.12
4805.04
24220.2
24186.6
24072.3
23840.3
23492.4
23030.9
22459
21781.2
21003
20132.3
19178.5
18153.4
17070.4
15942.9
14783.8
13603.5
12410.6
11213.2
10022.1
8854.73
7739.2
6718.31
5852.5
5214.64
4803.51
24135.1
24101.1
23985.9
23753.7
23406.3
22945.9
22376.1
21701.1
20927
20061.3
19113.8
18096
17020.7
15901.2
14749.4
13575.6
12388.2
11195.5
10008.7
8845.73
7734.6
6717.82
5854.99
5217.9
4804.92
24203.9
24170.3
24055.7
23823.7
23475.8
23014.5
22443
21765.7
20988.3
20118.5
19165.9
18142.2
17060.7
15934.8
14777.1
13598.1
12406.3
11209.9
10019.6
8853.12
7738.48
6718.44
5853.24
5215.54
4803.91
24203.9
24170.3
24055.7
23823.7
23475.8
23014.5
22443
21765.7
20988.3
20118.5
19165.9
18142.2
17060.7
15934.8
14777.1
13598.1
12406.3
11209.9
10019.6
8853.12
7738.48
6718.44
5853.24
5215.54
4803.91
24135.1
24101.1
23985.9
23753.7
23406.3
22946
22376.1
21701.1
20927
20061.3
19113.8
18096
17020.7
15901.2
14749.4
13575.6
12388.2
11195.5
10008.7
8845.72
7734.6
6717.81
5854.99
5217.89
4804.92
24220.2
24186.6
24072.3
23840.3
23492.4
23030.9
22459
21781.2
21003
20132.2
19178.5
18153.4
17070.4
15942.9
14783.8
13603.5
12410.6
11213.2
10022.1
8854.73
7739.2
6718.31
5852.5
5214.64
4803.51
24146.9
24113.1
23997.9
23765.8
23418.2
22957.7
22387.6
21712.2
20937.4
20071.1
19122.7
18103.9
17027.6
15907
14754.2
13579.6
12391.5
11198.2
10010.9
8847.36
7735.71
6718.47
5855.32
5218.12
4805.04
24203.9
24170.3
24055.7
23823.7
23475.8
23014.5
22443
21765.7
20988.3
20118.5
19165.9
18142.2
17060.7
15934.8
14777.1
13598.1
12406.3
11209.9
10019.6
8853.12
7738.48
6718.44
5853.24
5215.54
4803.91
24135.1
24101.1
23985.9
23753.7
23406.3
22945.9
22376.1
21701.1
20927
20061.3
19113.8
18096
17020.7
15901.2
14749.4
13575.6
12388.2
11195.5
10008.7
8845.73
7734.6
6717.82
5854.99
5217.9
4804.92
24135.1
24101.1
23985.9
23753.7
23406.3
22946
22376.1
21701.1
20927
20061.3
19113.8
18096
17020.7
15901.2
14749.4
13575.6
12388.2
11195.5
10008.7
8845.72
7734.6
6717.81
5854.99
5217.89
4804.92
24203.9
24170.3
24055.7
23823.7
23475.8
23014.5
22443
21765.7
20988.3
20118.5
19165.9
18142.2
17060.7
15934.8
14777.1
13598.1
12406.3
11209.9
10019.6
8853.12
7738.48
6718.44
5853.24
5215.54
4803.91
)
;

boundaryField
{
    outletCentralUnloaded
    {
        type            zeroGradient;
    }
    inletCentralUnloaded
    {
        type            zeroGradient;
    }
    outletFuelElement
    {
        type            zeroGradient;
    }
    inletFuelElement
    {
        type            zeroGradient;
    }
    defaultFaces
    {
        type            zeroGradient;
    }
    baffle_master
    {
        type            zeroGradient;
    }
    baffle_slave
    {
        type            zeroGradient;
    }
}


// ************************************************************************* //
