/*--------------------------------*- C++ -*----------------------------------*\
| =========                 |                                                 |
| \\      /  F ield         | OpenFOAM: The Open Source CFD Toolbox           |
|  \\    /   O peration     | Version:  2212                                  |
|   \\  /    A nd           | Website:  www.openfoam.com                      |
|    \\/     M anipulation  |                                                 |
\*---------------------------------------------------------------------------*/
FoamFile
{
    version     2.0;
    format      ascii;
    arch        "LSB;label=32;scalar=64";
    class       volScalarField;
    location    "20/fluidRegion";
    object      k;
}
// * * * * * * * * * * * * * * * * * * * * * * * * * * * * * * * * * * * * * //

dimensions      [0 2 -2 0 0 0 0];

internalField   nonuniform List<scalar> 
350
(
0.420533
0.420464
0.420395
0.420326
0.420258
0.420189
0.420121
0.420053
0.419987
0.419921
0.419858
0.419797
0.41974
0.41969
0.41965
0.419626
0.419624
0.419659
0.419748
0.419921
0.420222
0.420717
0.421511
0.422761
0.424707
0.420533
0.420464
0.420395
0.420326
0.420258
0.420189
0.420121
0.420053
0.419987
0.419921
0.419858
0.419797
0.41974
0.41969
0.41965
0.419626
0.419624
0.419659
0.419748
0.419921
0.420222
0.420717
0.421511
0.422761
0.424707
295.36
281.679
265.347
246.543
225.862
203.917
181.316
158.645
136.448
115.218
95.3806
77.2809
61.1736
47.2133
35.4504
25.8339
18.2236
12.4106
8.14169
5.1447
3.15041
1.9086
1.20086
0.84927
0.721475
299.25
285.436
268.936
249.92
228.991
206.771
183.877
160.901
138.398
116.867
96.7427
78.3762
62.0284
47.8584
35.9193
26.1605
18.4405
12.5467
8.22151
5.18772
3.1712
1.91729
1.20386
0.850134
0.721837
294.712
281.053
264.752
245.985
225.347
203.449
180.898
158.277
136.131
114.951
95.1608
77.1046
61.0363
47.1098
35.3752
25.7814
18.1887
12.3885
8.12857
5.13744
3.14672
1.90689
1.20015
0.848996
0.721382
298.397
284.61
268.145
249.173
228.297
206.137
183.307
160.397
137.961
116.497
96.4364
78.1293
61.8353
47.7124
35.8129
26.0863
18.3912
12.5157
8.20334
5.17793
3.16648
1.91533
1.2032
0.849952
0.721762
298.397
284.61
268.145
249.173
228.297
206.137
183.307
160.397
137.961
116.497
96.4364
78.1293
61.8353
47.7124
35.8129
26.0863
18.3912
12.5157
8.20334
5.17793
3.16648
1.91533
1.2032
0.849952
0.721762
294.712
281.053
264.752
245.985
225.347
203.449
180.898
158.277
136.131
114.951
95.1609
77.1047
61.0363
47.1099
35.3752
25.7814
18.1887
12.3886
8.12857
5.13744
3.14672
1.90689
1.20015
0.848996
0.721383
299.25
285.436
268.936
249.919
228.991
206.771
183.877
160.901
138.398
116.867
96.7427
78.3762
62.0284
47.8584
35.9193
26.1605
18.4405
12.5467
8.22151
5.18772
3.17121
1.91729
1.20386
0.850134
0.721837
295.36
281.679
265.347
246.543
225.862
203.917
181.316
158.645
136.448
115.218
95.3806
77.2809
61.1736
47.2133
35.4504
25.8338
18.2236
12.4106
8.14169
5.14469
3.15041
1.9086
1.20086
0.849267
0.721473
298.397
284.61
268.145
249.173
228.297
206.137
183.307
160.397
137.961
116.497
96.4364
78.1293
61.8353
47.7124
35.8129
26.0863
18.3912
12.5157
8.20334
5.17793
3.16648
1.91533
1.2032
0.849951
0.721762
294.712
281.053
264.752
245.985
225.347
203.449
180.898
158.277
136.131
114.951
95.1608
77.1046
61.0363
47.1098
35.3752
25.7814
18.1887
12.3885
8.12856
5.13743
3.14672
1.90689
1.20014
0.848993
0.721379
294.712
281.053
264.752
245.985
225.347
203.449
180.898
158.277
136.131
114.951
95.1609
77.1047
61.0363
47.1099
35.3752
25.7814
18.1887
12.3886
8.12857
5.13743
3.14672
1.90689
1.20015
0.848994
0.721381
298.397
284.61
268.145
249.173
228.298
206.137
183.307
160.397
137.961
116.497
96.4365
78.1294
61.8353
47.7124
35.8129
26.0863
18.3912
12.5157
8.20333
5.17792
3.16648
1.91532
1.20319
0.849949
0.721759
)
;

boundaryField
{
    outletCentralUnloaded
    {
        type            zeroGradient;
    }
    inletCentralUnloaded
    {
        type            zeroGradient;
    }
    outletFuelElement
    {
        type            zeroGradient;
    }
    inletFuelElement
    {
        type            zeroGradient;
    }
    defaultFaces
    {
        type            zeroGradient;
    }
    baffle_master
    {
        type            zeroGradient;
    }
    baffle_slave
    {
        type            zeroGradient;
    }
}


// ************************************************************************* //
