/*--------------------------------*- C++ -*----------------------------------*\
| =========                 |                                                 |
| \\      /  F ield         | OpenFOAM: The Open Source CFD Toolbox           |
|  \\    /   O peration     | Version:  2212                                  |
|   \\  /    A nd           | Website:  www.openfoam.com                      |
|    \\/     M anipulation  |                                                 |
\*---------------------------------------------------------------------------*/
FoamFile
{
    version     2.0;
    format      ascii;
    arch        "LSB;label=32;scalar=64";
    class       volTensorField;
    location    "20/fluidRegion";
    object      Kd;
}
// * * * * * * * * * * * * * * * * * * * * * * * * * * * * * * * * * * * * * //

dimensions      [1 -3 -1 0 0 0 0];

internalField   nonuniform List<tensor> 
350
(
(84.6941 0 0 0 84.6941 0 0 0 84.6941)
(84.6941 0 0 0 84.6941 0 0 0 84.6941)
(84.6941 0 0 0 84.6941 0 0 0 84.6941)
(84.6941 0 0 0 84.6941 0 0 0 84.6941)
(84.6941 0 0 0 84.6941 0 0 0 84.6941)
(84.6941 0 0 0 84.6941 0 0 0 84.6941)
(84.6941 0 0 0 84.6941 0 0 0 84.6941)
(84.6941 0 0 0 84.6941 0 0 0 84.6941)
(84.6941 0 0 0 84.6941 0 0 0 84.6941)
(84.6941 0 0 0 84.6941 0 0 0 84.6941)
(84.6941 0 0 0 84.6941 0 0 0 84.6941)
(84.6941 0 0 0 84.6941 0 0 0 84.6941)
(84.6941 0 0 0 84.6941 0 0 0 84.6941)
(84.6941 0 0 0 84.6941 0 0 0 84.6941)
(84.6941 0 0 0 84.6941 0 0 0 84.6941)
(84.6941 0 0 0 84.6941 0 0 0 84.6941)
(84.6941 0 0 0 84.6941 0 0 0 84.6941)
(84.6941 0 0 0 84.6941 0 0 0 84.6941)
(84.6941 0 0 0 84.6941 0 0 0 84.6941)
(84.6941 0 0 0 84.6941 0 0 0 84.6941)
(84.6941 0 0 0 84.6941 0 0 0 84.6941)
(84.6941 0 0 0 84.6941 0 0 0 84.6941)
(84.6941 0 0 0 84.6941 0 0 0 84.6941)
(84.6941 0 0 0 84.6941 0 0 0 84.6941)
(84.8498 0 0 0 84.8498 0 0 0 84.8498)
(84.6941 0 0 0 84.6941 0 0 0 84.6941)
(84.6941 0 0 0 84.6941 0 0 0 84.6941)
(84.6941 0 0 0 84.6941 0 0 0 84.6941)
(84.6941 0 0 0 84.6941 0 0 0 84.6941)
(84.6941 0 0 0 84.6941 0 0 0 84.6941)
(84.6941 0 0 0 84.6941 0 0 0 84.6941)
(84.6941 0 0 0 84.6941 0 0 0 84.6941)
(84.6941 0 0 0 84.6941 0 0 0 84.6941)
(84.6941 0 0 0 84.6941 0 0 0 84.6941)
(84.6941 0 0 0 84.6941 0 0 0 84.6941)
(84.6941 0 0 0 84.6941 0 0 0 84.6941)
(84.6941 0 0 0 84.6941 0 0 0 84.6941)
(84.6941 0 0 0 84.6941 0 0 0 84.6941)
(84.6941 0 0 0 84.6941 0 0 0 84.6941)
(84.6941 0 0 0 84.6941 0 0 0 84.6941)
(84.6941 0 0 0 84.6941 0 0 0 84.6941)
(84.6941 0 0 0 84.6941 0 0 0 84.6941)
(84.6941 0 0 0 84.6941 0 0 0 84.6941)
(84.6941 0 0 0 84.6941 0 0 0 84.6941)
(84.6941 0 0 0 84.6941 0 0 0 84.6941)
(84.6941 0 0 0 84.6941 0 0 0 84.6941)
(84.6941 0 0 0 84.6941 0 0 0 84.6941)
(84.6941 0 0 0 84.6941 0 0 0 84.6941)
(84.6941 0 0 0 84.6941 0 0 0 84.6941)
(84.8498 0 0 0 84.8498 0 0 0 84.8498)
(667.127 0 0 0 667.127 0 0 0 667.127)
(666.207 0 0 0 666.207 0 0 0 666.207)
(666.227 0 0 0 666.227 0 0 0 666.227)
(666.238 0 0 0 666.238 0 0 0 666.238)
(666.236 0 0 0 666.236 0 0 0 666.236)
(666.221 0 0 0 666.221 0 0 0 666.221)
(666.193 0 0 0 666.193 0 0 0 666.193)
(666.149 0 0 0 666.149 0 0 0 666.149)
(666.089 0 0 0 666.089 0 0 0 666.089)
(666.012 0 0 0 666.012 0 0 0 666.012)
(665.917 0 0 0 665.917 0 0 0 665.917)
(665.803 0 0 0 665.803 0 0 0 665.803)
(665.672 0 0 0 665.672 0 0 0 665.672)
(665.52 0 0 0 665.52 0 0 0 665.52)
(665.344 0 0 0 665.344 0 0 0 665.344)
(665.135 0 0 0 665.135 0 0 0 665.135)
(664.881 0 0 0 664.881 0 0 0 664.881)
(664.575 0 0 0 664.575 0 0 0 664.575)
(664.227 0 0 0 664.227 0 0 0 664.227)
(663.907 0 0 0 663.907 0 0 0 663.907)
(663.8 0 0 0 663.8 0 0 0 663.8)
(664.387 0 0 0 664.387 0 0 0 664.387)
(666.666 0 0 0 666.666 0 0 0 666.666)
(672.159 0 0 0 672.159 0 0 0 672.159)
(674.055 0 0 0 674.055 0 0 0 674.055)
(662.982 0 0 0 662.982 0 0 0 662.982)
(661.99 0 0 0 661.99 0 0 0 661.99)
(661.964 0 0 0 661.964 0 0 0 661.964)
(661.928 0 0 0 661.928 0 0 0 661.928)
(661.884 0 0 0 661.884 0 0 0 661.884)
(661.83 0 0 0 661.83 0 0 0 661.83)
(661.766 0 0 0 661.766 0 0 0 661.766)
(661.69 0 0 0 661.69 0 0 0 661.69)
(661.603 0 0 0 661.603 0 0 0 661.603)
(661.504 0 0 0 661.504 0 0 0 661.504)
(661.395 0 0 0 661.395 0 0 0 661.395)
(661.282 0 0 0 661.282 0 0 0 661.282)
(661.169 0 0 0 661.169 0 0 0 661.169)
(661.062 0 0 0 661.062 0 0 0 661.062)
(660.963 0 0 0 660.963 0 0 0 660.963)
(660.869 0 0 0 660.869 0 0 0 660.869)
(660.772 0 0 0 660.772 0 0 0 660.772)
(660.666 0 0 0 660.666 0 0 0 660.666)
(660.563 0 0 0 660.563 0 0 0 660.563)
(660.54 0 0 0 660.54 0 0 0 660.54)
(660.796 0 0 0 660.796 0 0 0 660.796)
(661.839 0 0 0 661.839 0 0 0 661.839)
(664.707 0 0 0 664.707 0 0 0 664.707)
(670.944 0 0 0 670.944 0 0 0 670.944)
(673.669 0 0 0 673.669 0 0 0 673.669)
(667.821 0 0 0 667.821 0 0 0 667.821)
(666.902 0 0 0 666.902 0 0 0 666.902)
(666.928 0 0 0 666.928 0 0 0 666.928)
(666.943 0 0 0 666.943 0 0 0 666.943)
(666.945 0 0 0 666.945 0 0 0 666.945)
(666.933 0 0 0 666.933 0 0 0 666.933)
(666.907 0 0 0 666.907 0 0 0 666.907)
(666.865 0 0 0 666.865 0 0 0 666.865)
(666.805 0 0 0 666.805 0 0 0 666.805)
(666.728 0 0 0 666.728 0 0 0 666.728)
(666.63 0 0 0 666.63 0 0 0 666.63)
(666.512 0 0 0 666.512 0 0 0 666.512)
(666.373 0 0 0 666.373 0 0 0 666.373)
(666.208 0 0 0 666.208 0 0 0 666.208)
(666.014 0 0 0 666.014 0 0 0 666.014)
(665.779 0 0 0 665.779 0 0 0 665.779)
(665.493 0 0 0 665.493 0 0 0 665.493)
(665.148 0 0 0 665.148 0 0 0 665.148)
(664.752 0 0 0 664.752 0 0 0 664.752)
(664.376 0 0 0 664.376 0 0 0 664.376)
(664.2 0 0 0 664.2 0 0 0 664.2)
(664.701 0 0 0 664.701 0 0 0 664.701)
(666.875 0 0 0 666.875 0 0 0 666.875)
(672.251 0 0 0 672.251 0 0 0 672.251)
(674.068 0 0 0 674.068 0 0 0 674.068)
(663.91 0 0 0 663.91 0 0 0 663.91)
(662.938 0 0 0 662.938 0 0 0 662.938)
(662.924 0 0 0 662.924 0 0 0 662.924)
(662.9 0 0 0 662.9 0 0 0 662.9)
(662.867 0 0 0 662.867 0 0 0 662.867)
(662.824 0 0 0 662.824 0 0 0 662.824)
(662.77 0 0 0 662.77 0 0 0 662.77)
(662.703 0 0 0 662.703 0 0 0 662.703)
(662.624 0 0 0 662.624 0 0 0 662.624)
(662.531 0 0 0 662.531 0 0 0 662.531)
(662.427 0 0 0 662.427 0 0 0 662.427)
(662.315 0 0 0 662.315 0 0 0 662.315)
(662.2 0 0 0 662.2 0 0 0 662.2)
(662.084 0 0 0 662.084 0 0 0 662.084)
(661.97 0 0 0 661.97 0 0 0 661.97)
(661.851 0 0 0 661.851 0 0 0 661.851)
(661.719 0 0 0 661.719 0 0 0 661.719)
(661.569 0 0 0 661.569 0 0 0 661.569)
(661.41 0 0 0 661.41 0 0 0 661.41)
(661.321 0 0 0 661.321 0 0 0 661.321)
(661.495 0 0 0 661.495 0 0 0 661.495)
(662.435 0 0 0 662.435 0 0 0 662.435)
(665.169 0 0 0 665.169 0 0 0 665.169)
(671.236 0 0 0 671.236 0 0 0 671.236)
(673.764 0 0 0 673.764 0 0 0 673.764)
(663.91 0 0 0 663.91 0 0 0 663.91)
(662.938 0 0 0 662.938 0 0 0 662.938)
(662.924 0 0 0 662.924 0 0 0 662.924)
(662.9 0 0 0 662.9 0 0 0 662.9)
(662.867 0 0 0 662.867 0 0 0 662.867)
(662.824 0 0 0 662.824 0 0 0 662.824)
(662.77 0 0 0 662.77 0 0 0 662.77)
(662.703 0 0 0 662.703 0 0 0 662.703)
(662.624 0 0 0 662.624 0 0 0 662.624)
(662.531 0 0 0 662.531 0 0 0 662.531)
(662.427 0 0 0 662.427 0 0 0 662.427)
(662.315 0 0 0 662.315 0 0 0 662.315)
(662.2 0 0 0 662.2 0 0 0 662.2)
(662.084 0 0 0 662.084 0 0 0 662.084)
(661.97 0 0 0 661.97 0 0 0 661.97)
(661.851 0 0 0 661.851 0 0 0 661.851)
(661.719 0 0 0 661.719 0 0 0 661.719)
(661.569 0 0 0 661.569 0 0 0 661.569)
(661.41 0 0 0 661.41 0 0 0 661.41)
(661.321 0 0 0 661.321 0 0 0 661.321)
(661.495 0 0 0 661.495 0 0 0 661.495)
(662.435 0 0 0 662.435 0 0 0 662.435)
(665.169 0 0 0 665.169 0 0 0 665.169)
(671.236 0 0 0 671.236 0 0 0 671.236)
(673.764 0 0 0 673.764 0 0 0 673.764)
(667.821 0 0 0 667.821 0 0 0 667.821)
(666.902 0 0 0 666.902 0 0 0 666.902)
(666.928 0 0 0 666.928 0 0 0 666.928)
(666.943 0 0 0 666.943 0 0 0 666.943)
(666.945 0 0 0 666.945 0 0 0 666.945)
(666.933 0 0 0 666.933 0 0 0 666.933)
(666.906 0 0 0 666.906 0 0 0 666.906)
(666.864 0 0 0 666.864 0 0 0 666.864)
(666.805 0 0 0 666.805 0 0 0 666.805)
(666.727 0 0 0 666.727 0 0 0 666.727)
(666.63 0 0 0 666.63 0 0 0 666.63)
(666.512 0 0 0 666.512 0 0 0 666.512)
(666.372 0 0 0 666.372 0 0 0 666.372)
(666.208 0 0 0 666.208 0 0 0 666.208)
(666.013 0 0 0 666.013 0 0 0 666.013)
(665.779 0 0 0 665.779 0 0 0 665.779)
(665.492 0 0 0 665.492 0 0 0 665.492)
(665.147 0 0 0 665.147 0 0 0 665.147)
(664.751 0 0 0 664.751 0 0 0 664.751)
(664.375 0 0 0 664.375 0 0 0 664.375)
(664.199 0 0 0 664.199 0 0 0 664.199)
(664.7 0 0 0 664.7 0 0 0 664.7)
(666.874 0 0 0 666.874 0 0 0 666.874)
(672.249 0 0 0 672.249 0 0 0 672.249)
(674.067 0 0 0 674.067 0 0 0 674.067)
(662.982 0 0 0 662.982 0 0 0 662.982)
(661.99 0 0 0 661.99 0 0 0 661.99)
(661.964 0 0 0 661.964 0 0 0 661.964)
(661.928 0 0 0 661.928 0 0 0 661.928)
(661.884 0 0 0 661.884 0 0 0 661.884)
(661.83 0 0 0 661.83 0 0 0 661.83)
(661.766 0 0 0 661.766 0 0 0 661.766)
(661.69 0 0 0 661.69 0 0 0 661.69)
(661.603 0 0 0 661.603 0 0 0 661.603)
(661.504 0 0 0 661.504 0 0 0 661.504)
(661.396 0 0 0 661.396 0 0 0 661.396)
(661.282 0 0 0 661.282 0 0 0 661.282)
(661.169 0 0 0 661.169 0 0 0 661.169)
(661.062 0 0 0 661.062 0 0 0 661.062)
(660.963 0 0 0 660.963 0 0 0 660.963)
(660.869 0 0 0 660.869 0 0 0 660.869)
(660.772 0 0 0 660.772 0 0 0 660.772)
(660.666 0 0 0 660.666 0 0 0 660.666)
(660.563 0 0 0 660.563 0 0 0 660.563)
(660.54 0 0 0 660.54 0 0 0 660.54)
(660.796 0 0 0 660.796 0 0 0 660.796)
(661.839 0 0 0 661.839 0 0 0 661.839)
(664.707 0 0 0 664.707 0 0 0 664.707)
(670.944 0 0 0 670.944 0 0 0 670.944)
(673.669 0 0 0 673.669 0 0 0 673.669)
(667.127 0 0 0 667.127 0 0 0 667.127)
(666.207 0 0 0 666.207 0 0 0 666.207)
(666.227 0 0 0 666.227 0 0 0 666.227)
(666.238 0 0 0 666.238 0 0 0 666.238)
(666.236 0 0 0 666.236 0 0 0 666.236)
(666.221 0 0 0 666.221 0 0 0 666.221)
(666.193 0 0 0 666.193 0 0 0 666.193)
(666.149 0 0 0 666.149 0 0 0 666.149)
(666.089 0 0 0 666.089 0 0 0 666.089)
(666.012 0 0 0 666.012 0 0 0 666.012)
(665.917 0 0 0 665.917 0 0 0 665.917)
(665.803 0 0 0 665.803 0 0 0 665.803)
(665.672 0 0 0 665.672 0 0 0 665.672)
(665.52 0 0 0 665.52 0 0 0 665.52)
(665.344 0 0 0 665.344 0 0 0 665.344)
(665.135 0 0 0 665.135 0 0 0 665.135)
(664.881 0 0 0 664.881 0 0 0 664.881)
(664.575 0 0 0 664.575 0 0 0 664.575)
(664.227 0 0 0 664.227 0 0 0 664.227)
(663.907 0 0 0 663.907 0 0 0 663.907)
(663.8 0 0 0 663.8 0 0 0 663.8)
(664.387 0 0 0 664.387 0 0 0 664.387)
(666.666 0 0 0 666.666 0 0 0 666.666)
(672.159 0 0 0 672.159 0 0 0 672.159)
(674.055 0 0 0 674.055 0 0 0 674.055)
(663.91 0 0 0 663.91 0 0 0 663.91)
(662.938 0 0 0 662.938 0 0 0 662.938)
(662.924 0 0 0 662.924 0 0 0 662.924)
(662.9 0 0 0 662.9 0 0 0 662.9)
(662.867 0 0 0 662.867 0 0 0 662.867)
(662.824 0 0 0 662.824 0 0 0 662.824)
(662.77 0 0 0 662.77 0 0 0 662.77)
(662.703 0 0 0 662.703 0 0 0 662.703)
(662.624 0 0 0 662.624 0 0 0 662.624)
(662.531 0 0 0 662.531 0 0 0 662.531)
(662.427 0 0 0 662.427 0 0 0 662.427)
(662.315 0 0 0 662.315 0 0 0 662.315)
(662.2 0 0 0 662.2 0 0 0 662.2)
(662.084 0 0 0 662.084 0 0 0 662.084)
(661.97 0 0 0 661.97 0 0 0 661.97)
(661.851 0 0 0 661.851 0 0 0 661.851)
(661.719 0 0 0 661.719 0 0 0 661.719)
(661.569 0 0 0 661.569 0 0 0 661.569)
(661.41 0 0 0 661.41 0 0 0 661.41)
(661.321 0 0 0 661.321 0 0 0 661.321)
(661.495 0 0 0 661.495 0 0 0 661.495)
(662.435 0 0 0 662.435 0 0 0 662.435)
(665.169 0 0 0 665.169 0 0 0 665.169)
(671.236 0 0 0 671.236 0 0 0 671.236)
(673.764 0 0 0 673.764 0 0 0 673.764)
(667.821 0 0 0 667.821 0 0 0 667.821)
(666.902 0 0 0 666.902 0 0 0 666.902)
(666.928 0 0 0 666.928 0 0 0 666.928)
(666.943 0 0 0 666.943 0 0 0 666.943)
(666.945 0 0 0 666.945 0 0 0 666.945)
(666.933 0 0 0 666.933 0 0 0 666.933)
(666.907 0 0 0 666.907 0 0 0 666.907)
(666.865 0 0 0 666.865 0 0 0 666.865)
(666.805 0 0 0 666.805 0 0 0 666.805)
(666.728 0 0 0 666.728 0 0 0 666.728)
(666.63 0 0 0 666.63 0 0 0 666.63)
(666.512 0 0 0 666.512 0 0 0 666.512)
(666.373 0 0 0 666.373 0 0 0 666.373)
(666.208 0 0 0 666.208 0 0 0 666.208)
(666.014 0 0 0 666.014 0 0 0 666.014)
(665.779 0 0 0 665.779 0 0 0 665.779)
(665.493 0 0 0 665.493 0 0 0 665.493)
(665.148 0 0 0 665.148 0 0 0 665.148)
(664.752 0 0 0 664.752 0 0 0 664.752)
(664.376 0 0 0 664.376 0 0 0 664.376)
(664.2 0 0 0 664.2 0 0 0 664.2)
(664.701 0 0 0 664.701 0 0 0 664.701)
(666.875 0 0 0 666.875 0 0 0 666.875)
(672.251 0 0 0 672.251 0 0 0 672.251)
(674.068 0 0 0 674.068 0 0 0 674.068)
(667.821 0 0 0 667.821 0 0 0 667.821)
(666.902 0 0 0 666.902 0 0 0 666.902)
(666.928 0 0 0 666.928 0 0 0 666.928)
(666.943 0 0 0 666.943 0 0 0 666.943)
(666.945 0 0 0 666.945 0 0 0 666.945)
(666.933 0 0 0 666.933 0 0 0 666.933)
(666.906 0 0 0 666.906 0 0 0 666.906)
(666.864 0 0 0 666.864 0 0 0 666.864)
(666.805 0 0 0 666.805 0 0 0 666.805)
(666.727 0 0 0 666.727 0 0 0 666.727)
(666.63 0 0 0 666.63 0 0 0 666.63)
(666.512 0 0 0 666.512 0 0 0 666.512)
(666.372 0 0 0 666.372 0 0 0 666.372)
(666.208 0 0 0 666.208 0 0 0 666.208)
(666.013 0 0 0 666.013 0 0 0 666.013)
(665.779 0 0 0 665.779 0 0 0 665.779)
(665.493 0 0 0 665.493 0 0 0 665.493)
(665.147 0 0 0 665.147 0 0 0 665.147)
(664.751 0 0 0 664.751 0 0 0 664.751)
(664.375 0 0 0 664.375 0 0 0 664.375)
(664.199 0 0 0 664.199 0 0 0 664.199)
(664.7 0 0 0 664.7 0 0 0 664.7)
(666.874 0 0 0 666.874 0 0 0 666.874)
(672.25 0 0 0 672.25 0 0 0 672.25)
(674.067 0 0 0 674.067 0 0 0 674.067)
(663.91 0 0 0 663.91 0 0 0 663.91)
(662.938 0 0 0 662.938 0 0 0 662.938)
(662.924 0 0 0 662.924 0 0 0 662.924)
(662.9 0 0 0 662.9 0 0 0 662.9)
(662.867 0 0 0 662.867 0 0 0 662.867)
(662.824 0 0 0 662.824 0 0 0 662.824)
(662.77 0 0 0 662.77 0 0 0 662.77)
(662.703 0 0 0 662.703 0 0 0 662.703)
(662.624 0 0 0 662.624 0 0 0 662.624)
(662.531 0 0 0 662.531 0 0 0 662.531)
(662.427 0 0 0 662.427 0 0 0 662.427)
(662.315 0 0 0 662.315 0 0 0 662.315)
(662.2 0 0 0 662.2 0 0 0 662.2)
(662.084 0 0 0 662.084 0 0 0 662.084)
(661.97 0 0 0 661.97 0 0 0 661.97)
(661.851 0 0 0 661.851 0 0 0 661.851)
(661.719 0 0 0 661.719 0 0 0 661.719)
(661.569 0 0 0 661.569 0 0 0 661.569)
(661.41 0 0 0 661.41 0 0 0 661.41)
(661.321 0 0 0 661.321 0 0 0 661.321)
(661.495 0 0 0 661.495 0 0 0 661.495)
(662.435 0 0 0 662.435 0 0 0 662.435)
(665.169 0 0 0 665.169 0 0 0 665.169)
(671.236 0 0 0 671.236 0 0 0 671.236)
(673.765 0 0 0 673.765 0 0 0 673.765)
)
;

boundaryField
{
    outletCentralUnloaded
    {
        type            zeroGradient;
    }
    inletCentralUnloaded
    {
        type            zeroGradient;
    }
    outletFuelElement
    {
        type            zeroGradient;
    }
    inletFuelElement
    {
        type            zeroGradient;
    }
    defaultFaces
    {
        type            zeroGradient;
    }
    baffle_master
    {
        type            zeroGradient;
    }
    baffle_slave
    {
        type            zeroGradient;
    }
}


// ************************************************************************* //
