/*--------------------------------*- C++ -*----------------------------------*\
| =========                 |                                                 |
| \\      /  F ield         | OpenFOAM: The Open Source CFD Toolbox           |
|  \\    /   O peration     | Version:  2212                                  |
|   \\  /    A nd           | Website:  www.openfoam.com                      |
|    \\/     M anipulation  |                                                 |
\*---------------------------------------------------------------------------*/
FoamFile
{
    version     2.0;
    format      ascii;
    arch        "LSB;label=32;scalar=64";
    class       volScalarField;
    location    "20/fluidRegion";
    object      p_rgh;
}
// * * * * * * * * * * * * * * * * * * * * * * * * * * * * * * * * * * * * * //

dimensions      [1 -1 -2 0 0 0 0];

internalField   nonuniform List<scalar> 
350
(
3.44743e+06
3.44772e+06
3.44802e+06
3.44831e+06
3.44861e+06
3.4489e+06
3.4492e+06
3.44949e+06
3.44979e+06
3.45009e+06
3.45038e+06
3.45068e+06
3.45097e+06
3.45127e+06
3.45156e+06
3.45186e+06
3.45215e+06
3.45245e+06
3.45274e+06
3.45304e+06
3.45333e+06
3.45363e+06
3.45392e+06
3.45421e+06
3.4545e+06
3.44743e+06
3.44772e+06
3.44802e+06
3.44831e+06
3.44861e+06
3.4489e+06
3.4492e+06
3.44949e+06
3.44979e+06
3.45009e+06
3.45038e+06
3.45068e+06
3.45097e+06
3.45127e+06
3.45156e+06
3.45186e+06
3.45215e+06
3.45245e+06
3.45274e+06
3.45304e+06
3.45333e+06
3.45363e+06
3.45392e+06
3.45421e+06
3.4545e+06
3.46884e+06
3.51119e+06
3.55332e+06
3.59494e+06
3.63579e+06
3.67558e+06
3.71407e+06
3.75102e+06
3.78625e+06
3.81955e+06
3.85077e+06
3.87977e+06
3.90644e+06
3.9307e+06
3.9525e+06
3.97183e+06
3.98872e+06
4.00326e+06
4.01555e+06
4.02572e+06
4.03395e+06
4.04041e+06
4.04532e+06
4.04893e+06
4.05152e+06
3.46883e+06
3.51119e+06
3.55332e+06
3.59494e+06
3.63579e+06
3.67558e+06
3.71406e+06
3.75102e+06
3.78625e+06
3.81955e+06
3.85077e+06
3.87977e+06
3.90644e+06
3.9307e+06
3.9525e+06
3.97183e+06
3.98872e+06
4.00326e+06
4.01555e+06
4.02572e+06
4.03395e+06
4.04041e+06
4.04532e+06
4.04893e+06
4.05152e+06
3.46883e+06
3.51119e+06
3.55332e+06
3.59494e+06
3.63579e+06
3.67558e+06
3.71407e+06
3.75102e+06
3.78625e+06
3.81955e+06
3.85077e+06
3.87977e+06
3.90644e+06
3.9307e+06
3.9525e+06
3.97183e+06
3.98872e+06
4.00326e+06
4.01555e+06
4.02572e+06
4.03395e+06
4.04041e+06
4.04532e+06
4.04893e+06
4.05152e+06
3.46883e+06
3.51119e+06
3.55332e+06
3.59494e+06
3.63579e+06
3.67558e+06
3.71406e+06
3.75102e+06
3.78625e+06
3.81955e+06
3.85077e+06
3.87977e+06
3.90644e+06
3.9307e+06
3.9525e+06
3.97183e+06
3.98872e+06
4.00326e+06
4.01555e+06
4.02572e+06
4.03395e+06
4.04041e+06
4.04532e+06
4.04893e+06
4.05152e+06
3.46883e+06
3.51119e+06
3.55332e+06
3.59494e+06
3.63579e+06
3.67558e+06
3.71406e+06
3.75102e+06
3.78625e+06
3.81955e+06
3.85077e+06
3.87977e+06
3.90644e+06
3.9307e+06
3.9525e+06
3.97183e+06
3.98872e+06
4.00326e+06
4.01555e+06
4.02572e+06
4.03395e+06
4.04041e+06
4.04532e+06
4.04893e+06
4.05152e+06
3.46883e+06
3.51119e+06
3.55332e+06
3.59494e+06
3.63579e+06
3.67558e+06
3.71407e+06
3.75102e+06
3.78625e+06
3.81955e+06
3.85077e+06
3.87977e+06
3.90644e+06
3.9307e+06
3.9525e+06
3.97183e+06
3.98872e+06
4.00326e+06
4.01555e+06
4.02572e+06
4.03395e+06
4.04041e+06
4.04532e+06
4.04893e+06
4.05152e+06
3.46883e+06
3.51119e+06
3.55332e+06
3.59494e+06
3.63579e+06
3.67558e+06
3.71406e+06
3.75102e+06
3.78625e+06
3.81955e+06
3.85077e+06
3.87977e+06
3.90644e+06
3.9307e+06
3.9525e+06
3.97183e+06
3.98872e+06
4.00326e+06
4.01555e+06
4.02572e+06
4.03395e+06
4.04041e+06
4.04532e+06
4.04893e+06
4.05152e+06
3.46884e+06
3.51119e+06
3.55332e+06
3.59494e+06
3.63579e+06
3.67558e+06
3.71407e+06
3.75102e+06
3.78625e+06
3.81955e+06
3.85077e+06
3.87977e+06
3.90644e+06
3.9307e+06
3.9525e+06
3.97183e+06
3.98872e+06
4.00326e+06
4.01555e+06
4.02572e+06
4.03395e+06
4.04041e+06
4.04532e+06
4.04893e+06
4.05152e+06
3.46883e+06
3.51119e+06
3.55332e+06
3.59494e+06
3.63579e+06
3.67558e+06
3.71406e+06
3.75102e+06
3.78625e+06
3.81955e+06
3.85077e+06
3.87977e+06
3.90644e+06
3.9307e+06
3.9525e+06
3.97183e+06
3.98872e+06
4.00326e+06
4.01555e+06
4.02572e+06
4.03395e+06
4.04041e+06
4.04532e+06
4.04893e+06
4.05152e+06
3.46883e+06
3.51119e+06
3.55332e+06
3.59494e+06
3.63579e+06
3.67558e+06
3.71407e+06
3.75102e+06
3.78625e+06
3.81955e+06
3.85077e+06
3.87977e+06
3.90644e+06
3.9307e+06
3.9525e+06
3.97183e+06
3.98872e+06
4.00326e+06
4.01555e+06
4.02572e+06
4.03395e+06
4.04041e+06
4.04532e+06
4.04893e+06
4.05152e+06
3.46883e+06
3.51119e+06
3.55332e+06
3.59494e+06
3.63579e+06
3.67558e+06
3.71407e+06
3.75102e+06
3.78625e+06
3.81955e+06
3.85077e+06
3.87977e+06
3.90644e+06
3.9307e+06
3.9525e+06
3.97183e+06
3.98872e+06
4.00326e+06
4.01555e+06
4.02572e+06
4.03395e+06
4.04041e+06
4.04532e+06
4.04893e+06
4.05152e+06
3.46883e+06
3.51119e+06
3.55332e+06
3.59494e+06
3.63579e+06
3.67558e+06
3.71406e+06
3.75102e+06
3.78625e+06
3.81955e+06
3.85077e+06
3.87977e+06
3.90644e+06
3.9307e+06
3.9525e+06
3.97183e+06
3.98872e+06
4.00326e+06
4.01555e+06
4.02572e+06
4.03395e+06
4.04041e+06
4.04532e+06
4.04893e+06
4.05152e+06
)
;

boundaryField
{
    outletCentralUnloaded
    {
        type            fixedValue;
        value           uniform 3.44728e+06;
    }
    inletCentralUnloaded
    {
        type            zeroGradient;
    }
    outletFuelElement
    {
        type            fixedValue;
        value           uniform 3.44728e+06;
    }
    inletFuelElement
    {
        type            zeroGradient;
    }
    defaultFaces
    {
        type            zeroGradient;
    }
    baffle_master
    {
        type            zeroGradient;
    }
    baffle_slave
    {
        type            zeroGradient;
    }
}


// ************************************************************************* //
