/*--------------------------------*- C++ -*----------------------------------*\
| =========                 |                                                 |
| \\      /  F ield         | OpenFOAM: The Open Source CFD Toolbox           |
|  \\    /   O peration     | Version:  2212                                  |
|   \\  /    A nd           | Website:  www.openfoam.com                      |
|    \\/     M anipulation  |                                                 |
\*---------------------------------------------------------------------------*/
FoamFile
{
    version     2.0;
    format      ascii;
    arch        "LSB;label=32;scalar=64";
    class       volScalarField;
    location    "20/fluidRegion";
    object      Re;
}
// * * * * * * * * * * * * * * * * * * * * * * * * * * * * * * * * * * * * * //

dimensions      [0 0 0 0 0 0 0];

internalField   nonuniform List<scalar> 
350
(
173901
173901
173901
173901
173901
173901
173901
173901
173901
173901
173901
173901
173901
173901
173901
173901
173901
173901
173901
173901
173901
173901
173901
173901
174327
173901
173901
173901
173901
173901
173901
173901
173901
173901
173901
173901
173901
173901
173901
173901
173901
173901
173901
173901
173901
173901
173901
173901
173901
174327
53757.4
53658.6
53660.8
53661.9
53661.7
53660.1
53657
53652.3
53645.9
53637.6
53627.4
53615.2
53601.1
53584.8
53565.9
53543.5
53516.2
53483.3
53446
53411.7
53400.3
53463.2
53707.9
54298.7
54503
53312.6
53206.2
53203.4
53199.5
53194.8
53189
53182.2
53174.1
53164.7
53154.1
53142.5
53130.3
53118.2
53106.7
53096.2
53086.1
53075.7
53064.3
53053.3
53050.8
53078.2
53190
53497.5
54167.8
54461.4
53831.9
53733.2
53736
53737.6
53737.8
53736.5
53733.7
53729.2
53722.8
53714.5
53704
53691.3
53676.3
53658.7
53637.8
53612.6
53581.9
53544.8
53502.4
53462
53443.1
53496.9
53730.3
54308.6
54504.4
53412.1
53307.8
53306.3
53303.7
53300.2
53295.6
53289.8
53282.6
53274.1
53264.2
53253
53241.1
53228.7
53216.3
53204
53191.3
53177.1
53161
53144.1
53134.5
53153.1
53253.9
53547.1
54199.3
54471.7
53412.1
53307.8
53306.3
53303.7
53300.2
53295.6
53289.8
53282.6
53274.1
53264.2
53253
53241.1
53228.7
53216.3
53204
53191.3
53177.1
53161
53144.1
53134.5
53153.1
53253.9
53547.1
54199.3
54471.7
53831.9
53733.2
53736
53737.6
53737.8
53736.5
53733.7
53729.2
53722.8
53714.5
53704
53691.3
53676.3
53658.7
53637.8
53612.6
53581.8
53544.8
53502.3
53461.9
53443
53496.8
53730.2
54308.5
54504.4
53312.6
53206.2
53203.4
53199.5
53194.8
53189
53182.2
53174.1
53164.7
53154.1
53142.5
53130.3
53118.2
53106.7
53096.2
53086.1
53075.7
53064.3
53053.3
53050.8
53078.2
53190
53497.5
54167.8
54461.4
53757.4
53658.6
53660.8
53661.9
53661.7
53660.1
53657
53652.3
53645.9
53637.6
53627.4
53615.2
53601.1
53584.8
53565.9
53543.5
53516.2
53483.3
53446
53411.7
53400.3
53463.2
53707.9
54298.7
54503
53412.1
53307.8
53306.3
53303.7
53300.2
53295.6
53289.8
53282.6
53274.1
53264.2
53253
53241.1
53228.7
53216.3
53204
53191.3
53177.1
53161
53144.1
53134.5
53153.1
53253.9
53547.1
54199.3
54471.7
53831.9
53733.2
53736
53737.6
53737.8
53736.5
53733.7
53729.2
53722.8
53714.5
53704
53691.4
53676.3
53658.7
53637.8
53612.6
53581.9
53544.8
53502.4
53462
53443.1
53496.9
53730.3
54308.6
54504.4
53831.9
53733.2
53736
53737.6
53737.8
53736.5
53733.7
53729.2
53722.8
53714.5
53704
53691.3
53676.3
53658.7
53637.8
53612.6
53581.8
53544.8
53502.3
53461.9
53443
53496.8
53730.2
54308.5
54504.4
53412.1
53307.8
53306.3
53303.7
53300.2
53295.6
53289.8
53282.6
53274.1
53264.2
53253
53241.1
53228.7
53216.3
53204
53191.3
53177.1
53161
53144.1
53134.5
53153.1
53253.9
53547.2
54199.3
54471.7
)
;

boundaryField
{
    outletCentralUnloaded
    {
        type            zeroGradient;
    }
    inletCentralUnloaded
    {
        type            zeroGradient;
    }
    outletFuelElement
    {
        type            zeroGradient;
    }
    inletFuelElement
    {
        type            zeroGradient;
    }
    defaultFaces
    {
        type            zeroGradient;
    }
    baffle_master
    {
        type            zeroGradient;
    }
    baffle_slave
    {
        type            zeroGradient;
    }
}


// ************************************************************************* //
