/*--------------------------------*- C++ -*----------------------------------*\
| =========                 |                                                 |
| \\      /  F ield         | OpenFOAM: The Open Source CFD Toolbox           |
|  \\    /   O peration     | Version:  2212                                  |
|   \\  /    A nd           | Website:  www.openfoam.com                      |
|    \\/     M anipulation  |                                                 |
\*---------------------------------------------------------------------------*/
FoamFile
{
    version     2.0;
    format      ascii;
    arch        "LSB;label=32;scalar=64";
    class       volScalarField;
    location    "20/fluidRegion";
    object      T;
}
// * * * * * * * * * * * * * * * * * * * * * * * * * * * * * * * * * * * * * //

dimensions      [0 0 0 1 0 0 0];

internalField   nonuniform List<scalar> 
350
(
83.2884
83.2889
83.2894
83.2898
83.2903
83.2908
83.2913
83.2918
83.2923
83.2928
83.2933
83.2938
83.2943
83.2948
83.2953
83.2958
83.2963
83.2968
83.2972
83.2977
83.2982
83.2987
83.2992
83.2996
83.3
83.2884
83.2889
83.2894
83.2898
83.2903
83.2908
83.2913
83.2918
83.2923
83.2928
83.2933
83.2938
83.2943
83.2948
83.2953
83.2958
83.2963
83.2968
83.2972
83.2977
83.2982
83.2987
83.2992
83.2996
83.3
1580.24
1580.4
1569.13
1546.61
1513.12
1469.1
1415.11
1351.81
1280.03
1200.7
1114.92
1023.97
929.282
832.484
735.337
639.665
547.253
459.752
378.626
305.153
240.498
185.764
142.025
110.185
90.6664
1603.09
1603.59
1592.45
1569.86
1536.12
1491.66
1437.03
1372.93
1300.15
1219.67
1132.59
1040.18
943.905
845.423
746.532
649.106
554.987
465.881
383.294
308.534
242.788
187.171
142.767
110.485
90.7308
1576.5
1576.63
1565.35
1542.85
1509.42
1465.49
1411.61
1348.46
1276.84
1197.71
1112.15
1021.44
927.011
830.485
733.617
638.222
546.078
458.827
377.926
304.65
240.16
185.558
141.916
110.141
90.6561
1597.96
1598.37
1587.19
1564.6
1530.91
1486.54
1432.05
1368.11
1295.56
1215.33
1128.54
1036.46
940.546
842.447
743.953
646.929
553.202
464.465
382.214
307.752
242.258
186.845
142.595
110.416
90.716
1597.96
1598.37
1587.19
1564.6
1530.91
1486.54
1432.05
1368.11
1295.56
1215.33
1128.54
1036.46
940.546
842.447
743.953
646.929
553.202
464.465
382.214
307.752
242.258
186.845
142.595
110.416
90.716
1576.5
1576.63
1565.35
1542.85
1509.42
1465.49
1411.61
1348.46
1276.85
1197.71
1112.16
1021.44
927.012
830.486
733.618
638.223
546.078
458.828
377.927
304.65
240.161
185.558
141.916
110.141
90.6561
1603.09
1603.59
1592.45
1569.86
1536.12
1491.66
1437.03
1372.93
1300.15
1219.67
1132.59
1040.18
943.905
845.423
746.532
649.106
554.987
465.881
383.294
308.534
242.788
187.171
142.767
110.485
90.7308
1580.24
1580.4
1569.13
1546.61
1513.12
1469.1
1415.11
1351.81
1280.03
1200.7
1114.92
1023.97
929.282
832.484
735.337
639.665
547.253
459.752
378.626
305.153
240.498
185.764
142.025
110.185
90.6664
1597.96
1598.37
1587.19
1564.6
1530.91
1486.54
1432.05
1368.11
1295.56
1215.33
1128.54
1036.46
940.546
842.447
743.953
646.929
553.202
464.465
382.214
307.752
242.258
186.845
142.595
110.416
90.716
1576.5
1576.63
1565.35
1542.85
1509.42
1465.49
1411.61
1348.46
1276.84
1197.71
1112.15
1021.44
927.011
830.485
733.617
638.222
546.078
458.827
377.926
304.65
240.16
185.558
141.916
110.141
90.6561
1576.5
1576.63
1565.35
1542.85
1509.42
1465.49
1411.61
1348.46
1276.85
1197.71
1112.16
1021.44
927.012
830.486
733.618
638.223
546.078
458.827
377.927
304.65
240.161
185.558
141.916
110.141
90.6561
1597.96
1598.37
1587.19
1564.6
1530.91
1486.54
1432.05
1368.11
1295.56
1215.33
1128.54
1036.46
940.546
842.447
743.953
646.929
553.202
464.465
382.214
307.752
242.258
186.845
142.595
110.416
90.716
)
;

boundaryField
{
    outletCentralUnloaded
    {
        type            zeroGradient;
    }
    inletCentralUnloaded
    {
        type            fixedValue;
        value           uniform 83.3;
    }
    outletFuelElement
    {
        type            zeroGradient;
    }
    inletFuelElement
    {
        type            fixedValue;
        value           uniform 83.3;
    }
    defaultFaces
    {
        type            zeroGradient;
    }
    baffle_master
    {
        type            zeroGradient;
    }
    baffle_slave
    {
        type            zeroGradient;
    }
}


// ************************************************************************* //
