/*--------------------------------*- C++ -*----------------------------------*\
| =========                 |                                                 |
| \\      /  F ield         | OpenFOAM: The Open Source CFD Toolbox           |
|  \\    /   O peration     | Version:  2212                                  |
|   \\  /    A nd           | Website:  www.openfoam.com                      |
|    \\/     M anipulation  |                                                 |
\*---------------------------------------------------------------------------*/
FoamFile
{
    version     2.0;
    format      ascii;
    arch        "LSB;label=32;scalar=64";
    class       volScalarField;
    location    "20/fluidRegion";
    object      T.fuelAvForNeutronics;
}
// * * * * * * * * * * * * * * * * * * * * * * * * * * * * * * * * * * * * * //

dimensions      [0 0 0 1 0 0 0];

internalField   nonuniform List<scalar> 
350
(
0
0
0
0
0
0
0
0
0
0
0
0
0
0
0
0
0
0
0
0
0
0
0
0
0
0
0
0
0
0
0
0
0
0
0
0
0
0
0
0
0
0
0
0
0
0
0
0
0
0
1592.79
2273.91
2930.71
3553.19
4131.85
4657.84
5123.12
5520.56
5844.1
6088.79
6250.94
6328.13
6319.26
6224.59
6045.69
5785.36
5447.52
5037.01
4559.32
4020.32
3425.57
2780.07
2088.04
1354.91
592.91
1612.2
2301.32
2965.8
3595.51
4180.85
4712.86
5183.42
5585.32
5912.41
6159.71
6323.47
6401.25
6391.96
6295.85
6114.51
5850.81
5508.73
5093.19
4609.76
4064.39
3462.71
2809.78
2109.78
1368.19
597.369
1589.62
2269.48
2925.07
3546.41
4124.02
4649.06
5113.5
5510.25
5833.23
6077.52
6239.41
6316.51
6307.72
6213.28
6034.77
5774.98
5437.81
5028.1
4551.33
4013.33
3419.68
2775.37
2084.6
1352.82
592.205
1607.82
2295.09
2957.79
3585.83
4169.62
4700.24
5169.58
5570.44
5896.71
6143.4
6306.79
6384.43
6375.23
6279.45
6098.67
5835.74
5494.63
5080.25
4598.15
4054.24
3454.16
2802.93
2104.77
1365.13
596.342
1607.82
2295.09
2957.79
3585.83
4169.62
4700.24
5169.58
5570.44
5896.71
6143.4
6306.79
6384.43
6375.23
6279.44
6098.67
5835.74
5494.63
5080.25
4598.15
4054.24
3454.16
2802.93
2104.77
1365.13
596.342
1589.62
2269.48
2925.07
3546.41
4124.01
4649.06
5113.51
5510.25
5833.23
6077.52
6239.41
6316.51
6307.72
6213.28
6034.77
5774.98
5437.81
5028.1
4551.33
4013.33
3419.68
2775.38
2084.61
1352.82
592.205
1612.2
2301.32
2965.8
3595.51
4180.85
4712.86
5183.42
5585.32
5912.41
6159.71
6323.47
6401.25
6391.96
6295.85
6114.51
5850.81
5508.73
5093.19
4609.76
4064.39
3462.71
2809.78
2109.78
1368.19
597.369
1592.78
2273.91
2930.71
3553.19
4131.85
4657.84
5123.12
5520.56
5844.1
6088.79
6250.94
6328.13
6319.26
6224.59
6045.69
5785.36
5447.52
5037.01
4559.32
4020.32
3425.57
2780.07
2088.04
1354.91
592.91
1607.82
2295.09
2957.79
3585.83
4169.62
4700.24
5169.58
5570.44
5896.71
6143.4
6306.79
6384.43
6375.23
6279.44
6098.67
5835.74
5494.63
5080.25
4598.15
4054.24
3454.16
2802.93
2104.77
1365.13
596.342
1589.62
2269.48
2925.07
3546.41
4124.01
4649.06
5113.5
5510.25
5833.23
6077.52
6239.41
6316.51
6307.72
6213.28
6034.77
5774.98
5437.81
5028.1
4551.33
4013.33
3419.68
2775.37
2084.61
1352.82
592.205
1589.62
2269.48
2925.07
3546.41
4124.01
4649.06
5113.51
5510.25
5833.23
6077.52
6239.41
6316.51
6307.72
6213.29
6034.77
5774.98
5437.81
5028.1
4551.33
4013.33
3419.68
2775.37
2084.61
1352.82
592.205
1607.82
2295.09
2957.79
3585.83
4169.62
4700.24
5169.58
5570.44
5896.71
6143.4
6306.79
6384.43
6375.23
6279.44
6098.67
5835.74
5494.63
5080.25
4598.15
4054.24
3454.16
2802.93
2104.77
1365.13
596.342
)
;

boundaryField
{
    outletCentralUnloaded
    {
        type            zeroGradient;
    }
    inletCentralUnloaded
    {
        type            zeroGradient;
    }
    outletFuelElement
    {
        type            zeroGradient;
    }
    inletFuelElement
    {
        type            zeroGradient;
    }
    defaultFaces
    {
        type            zeroGradient;
    }
    baffle_master
    {
        type            zeroGradient;
    }
    baffle_slave
    {
        type            zeroGradient;
    }
}


// ************************************************************************* //
