/*--------------------------------*- C++ -*----------------------------------*\
| =========                 |                                                 |
| \\      /  F ield         | OpenFOAM: The Open Source CFD Toolbox           |
|  \\    /   O peration     | Version:  2212                                  |
|   \\  /    A nd           | Website:  www.openfoam.com                      |
|    \\/     M anipulation  |                                                 |
\*---------------------------------------------------------------------------*/
FoamFile
{
    version     2.0;
    format      ascii;
    arch        "LSB;label=32;scalar=64";
    class       volScalarField;
    location    "20/fluidRegion";
    object      Tci.nuclearFuelPin;
}
// * * * * * * * * * * * * * * * * * * * * * * * * * * * * * * * * * * * * * //

dimensions      [0 0 0 1 0 0 0];

internalField   nonuniform List<scalar> 
350
(
0
0
0
0
0
0
0
0
0
0
0
0
0
0
0
0
0
0
0
0
0
0
0
0
0
0
0
0
0
0
0
0
0
0
0
0
0
0
0
0
0
0
0
0
0
0
0
0
0
0
1579.93
1632.63
1673.19
1701.4
1717.23
1720.77
1712.24
1692.05
1660.7
1618.89
1567.42
1507.26
1439.48
1365.31
1286.03
1202.91
1117.12
1029.47
940.184
848.395
751.583
644.82
520.65
372.04
201.762
1602.5
1656.04
1697.21
1725.85
1741.89
1745.42
1736.69
1716.08
1684.14
1641.54
1589.11
1527.83
1458.8
1383.24
1302.48
1217.82
1130.48
1041.31
950.57
857.417
759.314
651.252
525.619
375.204
202.834
1576.24
1628.83
1669.29
1697.46
1713.27
1716.82
1708.35
1688.23
1656.99
1615.31
1564.01
1504.03
1436.46
1362.52
1283.47
1200.6
1115.05
1027.65
938.586
847.012
750.405
643.848
519.908
371.57
201.598
1597.43
1650.76
1691.78
1720.31
1736.29
1739.81
1731.12
1710.59
1678.78
1636.35
1584.13
1523.1
1454.35
1379.12
1298.69
1214.38
1127.4
1038.58
948.171
855.333
757.527
649.765
524.469
374.471
202.586
1597.43
1650.76
1691.78
1720.31
1736.29
1739.81
1731.12
1710.59
1678.78
1636.35
1584.13
1523.1
1454.35
1379.12
1298.69
1214.38
1127.4
1038.58
948.171
855.333
757.527
649.765
524.469
374.471
202.586
1576.24
1628.83
1669.3
1697.46
1713.27
1716.82
1708.35
1688.23
1656.99
1615.31
1564.01
1504.03
1436.47
1362.52
1283.47
1200.6
1115.05
1027.65
938.587
847.013
750.406
643.849
519.908
371.57
201.598
1602.5
1656.04
1697.21
1725.85
1741.89
1745.42
1736.69
1716.08
1684.14
1641.54
1589.11
1527.83
1458.8
1383.24
1302.48
1217.82
1130.48
1041.31
950.57
857.417
759.314
651.253
525.619
375.204
202.834
1579.93
1632.63
1673.19
1701.4
1717.23
1720.77
1712.24
1692.05
1660.7
1618.89
1567.42
1507.26
1439.48
1365.31
1286.03
1202.91
1117.12
1029.47
940.184
848.395
751.583
644.82
520.65
372.04
201.762
1597.43
1650.76
1691.78
1720.31
1736.29
1739.81
1731.12
1710.59
1678.78
1636.35
1584.13
1523.1
1454.35
1379.12
1298.69
1214.38
1127.4
1038.58
948.171
855.333
757.527
649.765
524.469
374.471
202.586
1576.24
1628.83
1669.29
1697.46
1713.27
1716.82
1708.35
1688.23
1656.99
1615.31
1564.01
1504.03
1436.46
1362.52
1283.47
1200.6
1115.05
1027.65
938.586
847.012
750.405
643.848
519.908
371.57
201.598
1576.24
1628.83
1669.3
1697.46
1713.27
1716.82
1708.35
1688.23
1656.99
1615.31
1564.01
1504.03
1436.47
1362.52
1283.47
1200.6
1115.05
1027.65
938.586
847.013
750.406
643.849
519.908
371.571
201.598
1597.43
1650.76
1691.78
1720.31
1736.29
1739.81
1731.12
1710.59
1678.78
1636.35
1584.13
1523.1
1454.35
1379.12
1298.69
1214.38
1127.4
1038.58
948.171
855.333
757.527
649.765
524.469
374.471
202.586
)
;

boundaryField
{
    outletCentralUnloaded
    {
        type            zeroGradient;
    }
    inletCentralUnloaded
    {
        type            zeroGradient;
    }
    outletFuelElement
    {
        type            zeroGradient;
    }
    inletFuelElement
    {
        type            zeroGradient;
    }
    defaultFaces
    {
        type            zeroGradient;
    }
    baffle_master
    {
        type            zeroGradient;
    }
    baffle_slave
    {
        type            zeroGradient;
    }
}


// ************************************************************************* //
