/*--------------------------------*- C++ -*----------------------------------*\
| =========                 |                                                 |
| \\      /  F ield         | OpenFOAM: The Open Source CFD Toolbox           |
|  \\    /   O peration     | Version:  2212                                  |
|   \\  /    A nd           | Website:  www.openfoam.com                      |
|    \\/     M anipulation  |                                                 |
\*---------------------------------------------------------------------------*/
FoamFile
{
    version     2.0;
    format      ascii;
    arch        "LSB;label=32;scalar=64";
    class       volScalarField;
    location    "20/fluidRegion";
    object      Tco.nuclearFuelPin;
}
// * * * * * * * * * * * * * * * * * * * * * * * * * * * * * * * * * * * * * //

dimensions      [0 0 0 1 0 0 0];

internalField   nonuniform List<scalar> 
350
(
0
0
0
0
0
0
0
0
0
0
0
0
0
0
0
0
0
0
0
0
0
0
0
0
0
0
0
0
0
0
0
0
0
0
0
0
0
0
0
0
0
0
0
0
0
0
0
0
0
0
1579.78
1612.13
1632.72
1641.69
1639.29
1625.91
1602.05
1568.33
1525.49
1474.4
1416.02
1351.41
1281.74
1208.23
1132.17
1054.79
977.152
899.961
823.245
745.938
665.253
575.94
470.162
340.472
189.334
1602.46
1635.4
1656.39
1665.56
1663.16
1649.58
1625.33
1591.04
1547.48
1495.49
1436.07
1370.28
1299.32
1224.43
1146.93
1068.07
988.966
910.366
832.335
753.826
672.031
581.619
474.588
343.309
190.296
1576.08
1608.34
1628.88
1637.84
1635.46
1622.12
1598.33
1564.72
1522.01
1471.08
1412.87
1348.46
1278.99
1205.71
1129.88
1052.73
975.332
898.363
821.854
744.736
664.227
575.089
469.507
340.055
189.187
1597.36
1630.16
1651.04
1660.15
1657.74
1644.2
1620.03
1585.86
1542.45
1490.66
1431.47
1365.95
1295.28
1220.7
1143.52
1065
986.238
907.962
830.234
752.002
670.464
580.305
473.563
342.651
190.074
1597.36
1630.16
1651.04
1660.15
1657.74
1644.2
1620.03
1585.86
1542.45
1490.66
1431.47
1365.95
1295.28
1220.7
1143.52
1065
986.238
907.962
830.234
752.002
670.464
580.305
473.563
342.651
190.074
1576.08
1608.34
1628.89
1637.84
1635.46
1622.12
1598.33
1564.72
1522.02
1471.08
1412.87
1348.46
1278.99
1205.71
1129.88
1052.74
975.333
898.364
821.855
744.737
664.228
575.09
469.507
340.055
189.188
1602.46
1635.4
1656.39
1665.56
1663.16
1649.58
1625.33
1591.04
1547.48
1495.49
1436.07
1370.28
1299.32
1224.43
1146.93
1068.07
988.966
910.366
832.335
753.826
672.031
581.62
474.588
343.309
190.296
1579.78
1612.13
1632.72
1641.69
1639.29
1625.91
1602.05
1568.33
1525.49
1474.4
1416.02
1351.41
1281.74
1208.23
1132.17
1054.79
977.152
899.961
823.245
745.938
665.253
575.94
470.162
340.472
189.334
1597.36
1630.16
1651.04
1660.15
1657.74
1644.2
1620.03
1585.86
1542.45
1490.66
1431.47
1365.95
1295.28
1220.7
1143.52
1065
986.238
907.962
830.234
752.002
670.464
580.305
473.563
342.651
190.074
1576.08
1608.34
1628.88
1637.84
1635.46
1622.12
1598.33
1564.72
1522.01
1471.08
1412.87
1348.46
1278.99
1205.71
1129.88
1052.73
975.332
898.363
821.854
744.736
664.227
575.089
469.507
340.055
189.187
1576.08
1608.34
1628.89
1637.84
1635.46
1622.12
1598.33
1564.72
1522.02
1471.08
1412.87
1348.46
1278.99
1205.71
1129.88
1052.74
975.333
898.364
821.855
744.737
664.228
575.089
469.507
340.055
189.188
1597.36
1630.16
1651.04
1660.15
1657.74
1644.2
1620.03
1585.86
1542.45
1490.66
1431.47
1365.95
1295.28
1220.7
1143.52
1065
986.238
907.962
830.234
752.002
670.464
580.305
473.563
342.651
190.074
)
;

boundaryField
{
    outletCentralUnloaded
    {
        type            zeroGradient;
    }
    inletCentralUnloaded
    {
        type            zeroGradient;
    }
    outletFuelElement
    {
        type            zeroGradient;
    }
    inletFuelElement
    {
        type            zeroGradient;
    }
    defaultFaces
    {
        type            zeroGradient;
    }
    baffle_master
    {
        type            zeroGradient;
    }
    baffle_slave
    {
        type            zeroGradient;
    }
}


// ************************************************************************* //
