/*--------------------------------*- C++ -*----------------------------------*\
| =========                 |                                                 |
| \\      /  F ield         | OpenFOAM: The Open Source CFD Toolbox           |
|  \\    /   O peration     | Version:  2212                                  |
|   \\  /    A nd           | Website:  www.openfoam.com                      |
|    \\/     M anipulation  |                                                 |
\*---------------------------------------------------------------------------*/
FoamFile
{
    version     2.0;
    format      ascii;
    arch        "LSB;label=32;scalar=64";
    class       volScalarField;
    location    "20/fluidRegion";
    object      Tfo.nuclearFuelPin;
}
// * * * * * * * * * * * * * * * * * * * * * * * * * * * * * * * * * * * * * //

dimensions      [0 0 0 1 0 0 0];

internalField   nonuniform List<scalar> 
350
(
0
0
0
0
0
0
0
0
0
0
0
0
0
0
0
0
0
0
0
0
0
0
0
0
0
0
0
0
0
0
0
0
0
0
0
0
0
0
0
0
0
0
0
0
0
0
0
0
0
0
1592.12
1939.14
2268.21
2574.56
2853.73
3101.62
3314.61
3489.57
3623.96
3715.82
3763.86
3767.49
3726.77
3642.48
3516.04
3349.46
3145.2
2905.96
2634.41
2332.83
2002.45
1642.96
1252.3
829.278
381.101
1613.37
1964.58
2297.58
2607.54
2889.94
3140.65
3356
3532.83
3668.55
3761.2
3809.48
3812.78
3771.18
3685.47
3557.1
3388.11
3181.03
2938.61
2663.6
2358.3
2023.99
1660.32
1265.15
837.194
383.763
1588.65
1935.01
2263.47
2569.26
2847.93
3095.39
3308.01
3482.69
3616.87
3708.61
3756.63
3760.31
3719.74
3635.68
3509.55
3343.36
3139.54
2900.81
2629.81
2328.82
1999.06
1640.24
1250.3
828.046
380.682
1608.59
1958.82
2290.9
2600.02
2881.67
3131.73
3346.52
3522.91
3658.31
3750.77
3799
3802.36
3760.96
3675.57
3547.64
3379.21
3172.78
2931.09
2656.87
2352.43
2019.03
1656.32
1262.19
835.368
383.15
1608.59
1958.82
2290.9
2600.02
2881.67
3131.73
3346.52
3522.91
3658.31
3750.77
3799
3802.36
3760.96
3675.57
3547.64
3379.21
3172.78
2931.09
2656.87
2352.43
2019.03
1656.32
1262.19
835.368
383.15
1588.65
1935.01
2263.47
2569.26
2847.93
3095.39
3308.01
3482.69
3616.87
3708.61
3756.63
3760.31
3719.74
3635.68
3509.55
3343.36
3139.54
2900.81
2629.81
2328.82
1999.06
1640.24
1250.3
828.047
380.683
1613.37
1964.58
2297.58
2607.54
2889.94
3140.65
3356
3532.83
3668.55
3761.2
3809.48
3812.78
3771.18
3685.47
3557.1
3388.11
3181.03
2938.61
2663.6
2358.3
2023.99
1660.32
1265.15
837.194
383.763
1592.12
1939.14
2268.21
2574.56
2853.73
3101.62
3314.61
3489.57
3623.96
3715.82
3763.86
3767.48
3726.77
3642.48
3516.04
3349.46
3145.2
2905.96
2634.41
2332.83
2002.45
1642.96
1252.3
829.278
381.101
1608.59
1958.82
2290.9
2600.02
2881.67
3131.73
3346.52
3522.91
3658.31
3750.77
3799
3802.36
3760.96
3675.57
3547.64
3379.21
3172.78
2931.09
2656.87
2352.43
2019.03
1656.32
1262.19
835.368
383.15
1588.65
1935.01
2263.47
2569.26
2847.93
3095.39
3308.01
3482.69
3616.87
3708.61
3756.63
3760.31
3719.74
3635.68
3509.55
3343.36
3139.54
2900.8
2629.81
2328.82
1999.06
1640.24
1250.3
828.046
380.682
1588.65
1935.01
2263.47
2569.26
2847.93
3095.39
3308.01
3482.69
3616.87
3708.61
3756.63
3760.31
3719.74
3635.68
3509.55
3343.36
3139.54
2900.81
2629.81
2328.82
1999.06
1640.24
1250.3
828.047
380.682
1608.59
1958.82
2290.9
2600.02
2881.67
3131.73
3346.52
3522.91
3658.31
3750.77
3799
3802.36
3760.96
3675.57
3547.64
3379.21
3172.78
2931.09
2656.87
2352.43
2019.03
1656.32
1262.19
835.368
383.15
)
;

boundaryField
{
    outletCentralUnloaded
    {
        type            zeroGradient;
    }
    inletCentralUnloaded
    {
        type            zeroGradient;
    }
    outletFuelElement
    {
        type            zeroGradient;
    }
    inletFuelElement
    {
        type            zeroGradient;
    }
    defaultFaces
    {
        type            zeroGradient;
    }
    baffle_master
    {
        type            zeroGradient;
    }
    baffle_slave
    {
        type            zeroGradient;
    }
}


// ************************************************************************* //
