/*--------------------------------*- C++ -*----------------------------------*\
| =========                 |                                                 |
| \\      /  F ield         | OpenFOAM: The Open Source CFD Toolbox           |
|  \\    /   O peration     | Version:  2212                                  |
|   \\  /    A nd           | Website:  www.openfoam.com                      |
|    \\/     M anipulation  |                                                 |
\*---------------------------------------------------------------------------*/
FoamFile
{
    version     2.0;
    format      ascii;
    arch        "LSB;label=32;scalar=64";
    class       volVectorField;
    location    "20/fluidRegion";
    object      U;
}
// * * * * * * * * * * * * * * * * * * * * * * * * * * * * * * * * * * * * * //

dimensions      [0 1 -1 0 0 0 0];

internalField   nonuniform List<vector> 
350
(
(1.26705e-12 7.31528e-13 -14.9568)
(1.68796e-12 9.7454e-13 -14.9556)
(1.4005e-12 8.08579e-13 -14.9544)
(2.50927e-12 1.44873e-12 -14.9531)
(3.68596e-12 2.12808e-12 -14.9519)
(6.91013e-12 3.98956e-12 -14.9507)
(1.08881e-11 6.2862e-12 -14.9495)
(1.99019e-11 1.14903e-11 -14.9482)
(3.44532e-11 1.98915e-11 -14.947)
(6.03307e-11 3.48318e-11 -14.9458)
(1.0564e-10 6.0991e-11 -14.9445)
(1.83321e-10 1.0584e-10 -14.9433)
(3.13709e-10 1.8112e-10 -14.9421)
(5.34931e-10 3.08842e-10 -14.9409)
(8.96732e-10 5.17727e-10 -14.9396)
(1.48025e-09 8.54621e-10 -14.9384)
(2.3964e-09 1.38356e-09 -14.9372)
(3.78643e-09 2.18609e-09 -14.936)
(5.80756e-09 3.35298e-09 -14.9347)
(8.60412e-09 4.96757e-09 -14.9335)
(1.22457e-08 7.07006e-09 -14.9323)
(1.63797e-08 9.45679e-09 -14.9311)
(1.78784e-08 1.0322e-08 -14.9299)
(2.55759e-09 1.47662e-09 -14.9287)
(-3.90651e-08 -2.25542e-08 -14.9641)
(1.26704e-12 7.31522e-13 -14.9568)
(1.68795e-12 9.74534e-13 -14.9556)
(1.40049e-12 8.08573e-13 -14.9544)
(2.50926e-12 1.44872e-12 -14.9531)
(3.68595e-12 2.12808e-12 -14.9519)
(6.91012e-12 3.98955e-12 -14.9507)
(1.0888e-11 6.28619e-12 -14.9495)
(1.99019e-11 1.14903e-11 -14.9482)
(3.44531e-11 1.98915e-11 -14.947)
(6.03307e-11 3.48318e-11 -14.9458)
(1.0564e-10 6.09909e-11 -14.9445)
(1.83321e-10 1.0584e-10 -14.9433)
(3.13709e-10 1.8112e-10 -14.9421)
(5.34931e-10 3.08842e-10 -14.9409)
(8.96732e-10 5.17727e-10 -14.9396)
(1.48025e-09 8.54621e-10 -14.9384)
(2.3964e-09 1.38356e-09 -14.9372)
(3.78643e-09 2.18609e-09 -14.936)
(5.80756e-09 3.35298e-09 -14.9347)
(8.60412e-09 4.96757e-09 -14.9335)
(1.22457e-08 7.07006e-09 -14.9323)
(1.63797e-08 9.45679e-09 -14.9311)
(1.78784e-08 1.0322e-08 -14.9299)
(2.55759e-09 1.47662e-09 -14.9287)
(-3.90651e-08 -2.25542e-08 -14.9641)
(-0.00145949 -0.000842634 -356.841)
(-0.000934958 -0.000539798 -351.943)
(-0.00105023 -0.000606349 -345.33)
(-0.000938759 -0.000541992 -336.472)
(-0.000841935 -0.000486091 -325.53)
(-0.000747177 -0.000431382 -312.68)
(-0.000652492 -0.000376716 -298.108)
(-0.000551925 -0.000318654 -282.011)
(-0.000437964 -0.000252859 -264.594)
(-0.00030044 -0.000173459 -246.077)
(-0.000131469 -7.59034e-05 -226.693)
(7.48949e-05 4.32406e-05 -206.694)
(0.000304519 0.000175814 -186.356)
(0.000542594 0.000313266 -165.973)
(0.000759166 0.000438304 -145.857)
(0.000926779 0.000535076 -126.32)
(0.00102965 0.000594467 -107.662)
(0.00107103 0.00061836 -90.1533)
(0.00106811 0.000616675 -74.0276)
(0.00104303 0.000602192 -59.4875)
(0.00101061 0.000583476 -46.7159)
(0.000969329 0.000559642 -35.8906)
(0.000903199 0.000521462 -27.1929)
(0.000770236 0.000444696 -20.7967)
(0.000686384 0.000396284 -16.5973)
(-0.00136356 -0.000789384 -358.988)
(-0.000659298 -0.000369293 -354.077)
(-0.00079659 -0.000457946 -347.456)
(-0.000717322 -0.000417783 -338.571)
(-0.00064867 -0.000383207 -327.585)
(-0.000582064 -0.000345637 -314.676)
(-0.000515373 -0.000307701 -300.03)
(-0.000444164 -0.000265595 -283.844)
(-0.00036304 -0.000218401 -266.326)
(-0.000264721 -0.000160185 -247.694)
(-0.000144976 -9.01761e-05 -228.184)
(4.34739e-06 -2.54574e-06 -208.05)
(0.000164556 9.07006e-05 -187.567)
(0.000330126 0.000188144 -167.034)
(0.000479083 0.000275143 -146.765)
(0.000592791 0.000342772 -127.078)
(0.000661424 0.000383306 -108.276)
(0.000687656 0.000400159 -90.6334)
(0.000684069 0.000398389 -74.3867)
(0.000665806 0.000388619 -59.7411)
(0.000644195 0.000374593 -46.881)
(0.00061945 0.000359334 -35.9855)
(0.000584953 0.000337785 -27.2374)
(0.000523247 0.000302511 -20.8106)
(0.000499002 0.000289727 -16.599)
(-0.000702538 -0.000662643 -356.494)
(-0.000528492 -0.0010554 -351.594)
(-0.000532737 -0.000992262 -344.984)
(-0.000478514 -0.000870463 -336.132)
(-0.000426081 -0.000760913 -325.198)
(-0.000375577 -0.000655315 -312.359)
(-0.0003242 -0.000549849 -297.8)
(-0.00026823 -0.000439099 -281.717)
(-0.000202762 -0.000313067 -264.318)
(-0.000121866 -0.000161697 -245.819)
(-2.38795e-05 2.69233e-05 -226.456)
(9.79475e-05 0.000249997 -206.479)
(0.000225157 0.000509968 -186.164)
(0.000353702 0.000778298 -165.805)
(0.000464933 0.00102403 -145.713)
(0.000544871 0.0012141 -126.2)
(0.000587808 0.00133052 -107.564)
(0.000597657 0.00137589 -90.0762)
(0.00058568 0.00137058 -73.9691)
(0.000563474 0.00133886 -59.4451)
(0.000538389 0.00129629 -46.6869)
(0.000509664 0.0012358 -35.8721)
(0.000464632 0.00112566 -27.1821)
(0.000395946 0.000893784 -20.791)
(0.000325151 0.000691504 -16.5954)
(-0.00086424 -0.000498968 -358.51)
(-0.000992105 -0.00057279 -353.602)
(-0.000956436 -0.000552197 -346.981)
(-0.000846133 -0.000488514 -338.101)
(-0.000744736 -0.000429972 -327.124)
(-0.000646974 -0.00037353 -314.227)
(-0.000548674 -0.000316776 -299.597)
(-0.000444234 -0.000256478 -283.431)
(-0.00032421 -0.000187182 -265.935)
(-0.000178532 -0.000103075 -247.328)
(1.0551e-06 6.09157e-07 -227.846)
(0.000217335 0.000125478 -207.742)
(0.000459831 0.000265483 -187.292)
(0.000708421 0.000409006 -166.793)
(0.00093195 0.00053806 -146.558)
(0.00110099 0.000635655 -126.906)
(0.00120064 0.000693186 -108.136)
(0.00123499 0.000713019 -90.5239)
(0.00122399 0.000706668 -74.3049)
(0.0011901 0.000687101 -59.6834)
(0.00114759 0.000662561 -46.8436)
(0.00109186 0.000630386 -35.9642)
(0.000994976 0.000574448 -27.2276)
(0.000807593 0.000466263 -20.8079)
(0.000637348 0.000367972 -16.5989)
(0.000853263 0.000492631 -358.51)
(0.000994219 0.000574011 -353.602)
(0.000955583 0.000551705 -346.981)
(0.000845685 0.000488256 -338.101)
(0.000744051 0.000429577 -327.124)
(0.000646252 0.000373113 -314.227)
(0.000548057 0.00031642 -299.597)
(0.000443443 0.000256021 -283.431)
(0.000323331 0.000186675 -265.935)
(0.000177762 0.000102631 -247.328)
(-2.16031e-06 -1.24725e-06 -227.846)
(-0.000218532 -0.000126169 -207.742)
(-0.000461392 -0.000266384 -187.292)
(-0.000710085 -0.000409967 -166.793)
(-0.000933524 -0.000538969 -146.558)
(-0.00110228 -0.000636399 -126.906)
(-0.00120184 -0.000693879 -108.136)
(-0.00123634 -0.000713799 -90.5239)
(-0.00122538 -0.000707474 -74.3049)
(-0.00119147 -0.000687894 -59.6834)
(-0.00114913 -0.00066345 -46.8436)
(-0.00109285 -0.000630956 -35.9642)
(-0.000995198 -0.000574576 -27.2276)
(-0.000806929 -0.000465879 -20.8079)
(-0.000635077 -0.000366661 -16.5989)
(0.000916296 0.000285209 -356.494)
(0.0011786 -6.67349e-05 -351.594)
(0.00112464 -3.32891e-05 -344.984)
(0.000992794 -2.1114e-05 -336.132)
(0.000872285 -1.41018e-05 -325.198)
(0.00075549 -4.64745e-06 -312.359)
(0.000638728 2.84434e-06 -297.8)
(0.000514458 1.07346e-05 -281.717)
(0.000372656 1.66299e-05 -264.318)
(0.000200776 2.3575e-05 -245.819)
(-1.16385e-05 3.25895e-05 -226.456)
(-0.000266131 3.98382e-05 -206.479)
(-0.000554942 5.91918e-05 -186.164)
(-0.000851924 8.30186e-05 -165.805)
(-0.00112029 0.000109562 -145.713)
(-0.00132504 0.000136523 -126.2)
(-0.00144727 0.00015749 -107.564)
(-0.00149175 0.000172332 -90.0762)
(-0.0014811 0.000179767 -73.9691)
(-0.00144266 0.000183644 -59.4451)
(-0.00139307 0.000183136 -46.6869)
(-0.001326 0.00017766 -35.8721)
(-0.00120736 0.000160534 -27.182)
(-0.000971606 0.00010389 -20.791)
(-0.000759951 6.36336e-05 -16.5954)
(0.00135961 0.000804171 -358.988)
(0.000653686 0.000388195 -354.077)
(0.000793665 0.000463419 -347.456)
(0.000718169 0.00041253 -338.571)
(0.000652331 0.000367906 -327.585)
(0.000586885 0.000329443 -314.676)
(0.000520341 0.000289756 -300.03)
(0.000448937 0.000250386 -283.844)
(0.000367336 0.000203297 -266.326)
(0.00026862 0.000148675 -247.694)
(0.0001478 7.97874e-05 -228.184)
(-1.90135e-06 -4.35591e-06 -208.05)
(-0.000162999 -9.67237e-05 -187.567)
(-0.000329381 -0.000190245 -167.034)
(-0.000479081 -0.000275818 -146.765)
(-0.000593519 -0.000339419 -127.078)
(-0.000662882 -0.00037874 -108.276)
(-0.000689961 -0.000392218 -90.6334)
(-0.000686872 -0.000390301 -74.3867)
(-0.000668865 -0.000378897 -59.7411)
(-0.000646695 -0.000368152 -46.881)
(-0.000620959 -0.00035486 -35.9855)
(-0.000585397 -0.00033746 -27.2374)
(-0.00052345 -0.000302432 -20.8106)
(-0.000499027 -0.000289433 -16.599)
(0.00146198 0.000844073 -356.841)
(0.000937686 0.000541373 -351.943)
(0.00105023 0.00060635 -345.33)
(0.000937445 0.000541234 -336.472)
(0.000839091 0.000484449 -325.53)
(0.000744689 0.000429946 -312.68)
(0.00064956 0.000375023 -298.108)
(0.000549745 0.000317395 -282.011)
(0.000435585 0.000251485 -264.594)
(0.000298927 0.000172585 -246.077)
(0.00012978 7.49287e-05 -226.693)
(-7.5731e-05 -4.37233e-05 -206.694)
(-0.000305503 -0.000176382 -186.356)
(-0.000542796 -0.000313383 -165.973)
(-0.000759324 -0.000438396 -145.857)
(-0.000926116 -0.000534693 -126.32)
(-0.00102901 -0.000594096 -107.662)
(-0.00106979 -0.000617644 -90.1533)
(-0.0010671 -0.000616088 -74.0276)
(-0.00104167 -0.000601407 -59.4875)
(-0.00100995 -0.000583096 -46.7159)
(-0.000968783 -0.000559327 -35.8906)
(-0.000903379 -0.000521565 -27.1929)
(-0.000770345 -0.000444759 -20.7967)
(-0.000686308 -0.00039624 -16.5973)
(0.000864734 0.000499253 -358.51)
(0.000991873 0.000572657 -353.602)
(0.000956223 0.000552074 -346.981)
(0.000845804 0.000488324 -338.101)
(0.000744135 0.000429626 -327.124)
(0.000646405 0.000373201 -314.227)
(0.000548185 0.000316494 -299.597)
(0.000443844 0.000256253 -283.43)
(0.000323817 0.000186955 -265.935)
(0.000178496 0.000103054 -247.328)
(-1.16515e-06 -6.72699e-07 -227.846)
(-0.000217265 -0.000125437 -207.742)
(-0.000459969 -0.000265562 -187.292)
(-0.000708506 -0.000409055 -166.793)
(-0.000931853 -0.000538004 -146.558)
(-0.00110058 -0.000635418 -126.906)
(-0.00120011 -0.000692881 -108.136)
(-0.0012346 -0.000712796 -90.5239)
(-0.00122363 -0.000706461 -74.3049)
(-0.00118981 -0.000686938 -59.6834)
(-0.00114751 -0.000662511 -46.8436)
(-0.00109159 -0.000630229 -35.9642)
(-0.000994537 -0.000574195 -27.2276)
(-0.000807076 -0.000465964 -20.8079)
(-0.000636723 -0.000367611 -16.5989)
(0.00069914 0.000666665 -356.494)
(0.000523762 0.00106038 -351.594)
(0.000530541 0.000994104 -344.984)
(0.000479456 0.000869012 -336.132)
(0.000429198 0.000756796 -325.198)
(0.000379588 0.000650589 -312.359)
(0.000328343 0.000544831 -297.8)
(0.000272186 0.000434626 -281.717)
(0.000206314 0.000308854 -264.318)
(0.000125175 0.0001582 -245.819)
(2.62902e-05 -2.96752e-05 -226.456)
(-9.58437e-05 -0.000252082 -206.479)
(-0.000223892 -0.000511467 -186.164)
(-0.000353126 -0.00077883 -165.805)
(-0.000464893 -0.00102398 -145.713)
(-0.000545327 -0.00121313 -126.2)
(-0.000588796 -0.00132904 -107.564)
(-0.000599412 -0.00137354 -90.0762)
(-0.000587816 -0.00136799 -73.9691)
(-0.000565856 -0.00133599 -59.4451)
(-0.000540342 -0.00129417 -46.6869)
(-0.000510732 -0.00123445 -35.8721)
(-0.000464713 -0.00112538 -27.1821)
(-0.000395808 -0.000893583 -20.791)
(-0.000324845 -0.00069126 -16.5954)
(-0.000915878 -0.000273883 -356.494)
(-0.00117852 8.12099e-05 -351.594)
(-0.00112506 3.70981e-05 -344.984)
(-0.000993009 1.72431e-05 -336.132)
(-0.00087273 2.34769e-06 -325.198)
(-0.000755475 -7.2802e-06 -312.359)
(-0.000638968 -1.63862e-05 -297.8)
(-0.000514315 -2.18606e-05 -281.717)
(-0.000372813 -2.80417e-05 -264.318)
(-0.000200496 -3.17666e-05 -245.819)
(1.1499e-05 -4.05452e-05 -226.456)
(0.000266318 -4.47441e-05 -206.479)
(0.000554811 -6.39594e-05 -186.164)
(0.000852073 -8.45983e-05 -165.805)
(0.00112022 -0.000110296 -145.713)
(0.0013253 -0.000133829 -126.2)
(0.00144731 -0.000154113 -107.564)
(0.00149197 -0.000166307 -90.0762)
(0.00148107 -0.000173897 -73.969)
(0.00144281 -0.000176316 -59.4451)
(0.00139296 -0.000178563 -46.6869)
(0.00132614 -0.000174207 -35.8721)
(0.00120735 -0.000160282 -27.182)
(0.00097179 -0.000103708 -20.791)
(0.000760121 -6.32942e-05 -16.5954)
(-0.000849914 -0.000490697 -358.51)
(-0.000990842 -0.000572062 -353.602)
(-0.000954942 -0.000551335 -346.981)
(-0.000846865 -0.000488936 -338.101)
(-0.000747398 -0.000431509 -327.124)
(-0.000649415 -0.000374939 -314.227)
(-0.000551661 -0.000318501 -299.597)
(-0.000446239 -0.000257636 -283.43)
(-0.00032636 -0.000188424 -265.935)
(-0.000179549 -0.000103662 -247.328)
(1.14637e-07 6.61861e-08 -227.846)
(0.000217486 0.000125565 -207.742)
(0.000460078 0.000265625 -187.292)
(0.000709696 0.000409742 -166.793)
(0.000933328 0.000538856 -146.558)
(0.00110327 0.000636974 -126.906)
(0.00120295 0.000694523 -108.136)
(0.00123807 0.000714797 -90.5239)
(0.00122694 0.000708373 -74.3049)
(0.00119345 0.000689036 -59.6834)
(0.0011502 0.000664066 -46.8436)
(0.00109394 0.000631587 -35.9642)
(0.000995574 0.000574794 -27.2276)
(0.000807435 0.000466172 -20.8079)
(0.000635584 0.000366954 -16.5989)
)
;

boundaryField
{
    outletCentralUnloaded
    {
        type            zeroGradient;
    }
    inletCentralUnloaded
    {
        type            fixedValue;
        value           uniform (0 0 -15);
    }
    outletFuelElement
    {
        type            zeroGradient;
    }
    inletFuelElement
    {
        type            fixedValue;
        value           uniform (0 0 -15);
    }
    defaultFaces
    {
        type            slip;
    }
    baffle_master
    {
        type            slip;
    }
    baffle_slave
    {
        type            slip;
    }
}


// ************************************************************************* //
