/*--------------------------------*- C++ -*----------------------------------*\
| =========                 |                                                 |
| \\      /  F ield         | OpenFOAM: The Open Source CFD Toolbox           |
|  \\    /   O peration     | Version:  2212                                  |
|   \\  /    A nd           | Website:  www.openfoam.com                      |
|    \\/     M anipulation  |                                                 |
\*---------------------------------------------------------------------------*/
FoamFile
{
    version     2.0;
    format      ascii;
    arch        "LSB;label=32;scalar=64";
    class       surfaceScalarField;
    location    "58/fluidRegion";
    object      alphaPhi;
}
// * * * * * * * * * * * * * * * * * * * * * * * * * * * * * * * * * * * * * //

dimensions      [0 3 -1 0 0 0 0];

oriented        oriented;

internalField   nonuniform List<scalar> 
661
(
-0.000539002
3.30029e-13
-0.000538942
4.21178e-13
-0.000538876
5.0144e-13
-0.000538811
5.93334e-13
-0.000538752
6.22922e-13
-0.000538704
5.08742e-13
-0.000538666
1.95208e-13
-0.000538634
-2.65124e-13
-0.000538603
-7.51351e-13
-0.000538568
-1.12034e-12
-0.000538527
-1.26186e-12
-0.000538479
-1.1383e-12
-0.000538428
-7.85771e-13
-0.000538378
-3.04464e-13
-0.000538333
1.82651e-13
-0.000538296
5.62422e-13
-0.000538266
7.51787e-13
-0.00053824
7.26009e-13
-0.000538215
5.12233e-13
-0.000538185
1.67243e-13
-0.000538147
-2.19849e-13
-0.000538098
-5.40431e-13
-0.000538038
-6.49618e-13
-0.000537971
-2.46743e-13
5.10146e-13
-0.000539002
-0.000538942
-0.000538876
-0.000538811
-0.000538752
-0.000538704
-0.000538666
-0.000538634
-0.000538603
-0.000538568
-0.000538527
-0.000538479
-0.000538428
-0.000538378
-0.000538333
-0.000538296
-0.000538266
-0.00053824
-0.000538215
-0.000538185
-0.000538147
-0.000538098
-0.000538038
-0.000537971
-0.0202265
1.41403e-06
-0.0197987
6.72455e-07
-0.0192544
7.28661e-07
-0.0186028
6.55759e-07
-0.0178533
5.93653e-07
-0.0170159
5.36112e-07
-0.0161008
4.8281e-07
-0.0151184
4.31123e-07
-0.0140796
3.75302e-07
-0.0129955
3.05899e-07
-0.011878
2.11046e-07
-0.0107398
7.90841e-08
-0.0095953
-9.34592e-08
-0.00846015
-2.92672e-07
-0.00735123
-4.96034e-07
-0.0062857
-6.69375e-07
-0.00527978
-7.85949e-07
-0.00434762
-8.3859e-07
-0.0035008
-8.41023e-07
-0.00274905
-8.17506e-07
-0.00210109
-7.90092e-07
-0.00156628
-7.63966e-07
-0.00115534
-7.28417e-07
-0.000879352
-6.32031e-07
-6.01868e-07
-0.0203565
-3.62043e-08
-3.91231e-08
-0.0199277
-1.70702e-07
-1.7957e-07
-0.0193813
-1.61453e-07
-1.70522e-07
-0.0187266
-1.38804e-07
-1.48385e-07
-0.0179733
-1.19231e-07
-1.29274e-07
-0.0171313
-1.01116e-07
-1.11734e-07
-0.016211
-8.44702e-08
-9.57537e-08
-0.0152227
-6.86551e-08
-8.05993e-08
-0.0141774
-5.21339e-08
-6.48176e-08
-0.0130862
-3.22507e-08
-4.5748e-08
-0.0119611
-5.30029e-09
-1.9679e-08
-0.0108148
3.21325e-08
1.68625e-08
-0.00966177
8.06575e-08
6.41807e-08
-0.00851783
1.41175e-07
1.23441e-07
-0.00740006
2.03633e-07
1.84557e-07
-0.00632588
2.5812e-07
2.37669e-07
-0.00531177
2.95612e-07
2.73738e-07
-0.0043721
3.13024e-07
2.89826e-07
-0.00351862
3.14288e-07
2.89857e-07
-0.00276117
3.0679e-07
2.81721e-07
-0.00210853
2.9748e-07
2.72254e-07
-0.00157014
2.86272e-07
2.62453e-07
-0.00115679
2.66637e-07
2.45076e-07
-0.000879546
2.11143e-07
1.94557e-07
1.60277e-07
1.51666e-07
-0.0202052
6.97826e-07
-0.0197777
6.59646e-07
-0.0192339
6.35268e-07
-0.0185828
5.66066e-07
-0.017834
5.04062e-07
-0.0169973
4.46937e-07
-0.0160831
3.93882e-07
-0.0151018
3.41874e-07
-0.0140641
2.84436e-07
-0.0129811
2.11336e-07
-0.0118648
1.0978e-07
-0.010728
-3.06547e-08
-0.00958484
-2.13016e-07
-0.00845108
-4.23594e-07
-0.00734354
-6.35562e-07
-0.00627936
-8.12842e-07
-0.00527471
-9.28152e-07
-0.00434371
-9.7555e-07
-0.00349791
-9.7103e-07
-0.00274702
-9.40505e-07
-0.00209975
-9.05654e-07
-0.00156547
-8.70116e-07
-0.0011549
-8.11017e-07
-0.000879133
-6.73196e-07
-5.48824e-07
-0.0203275
6.05592e-09
-0.0198988
3.01315e-09
-0.0193529
3.25015e-09
-0.0186988
3.1356e-09
-0.0179463
3.0852e-09
-0.0171053
2.94314e-09
-0.0161861
2.64825e-09
-0.0151992
2.32897e-09
-0.0141553
1.88086e-09
-0.0130657
1.28135e-09
-0.0119422
6.40794e-10
-0.0107978
-9.55184e-11
-0.00964664
-9.66743e-10
-0.00850469
-1.91875e-09
-0.00738892
-2.97939e-09
-0.00631671
-4.06886e-09
-0.00530446
-5.04061e-09
-0.00436651
-5.75481e-09
-0.00351455
-6.23428e-09
-0.00275841
-6.33226e-09
-0.00210684
-6.0247e-09
-0.00156927
-5.43609e-09
-0.00115648
-4.75215e-09
-0.000879528
-3.58735e-09
-2.52046e-09
-0.0203276
-6.84658e-07
-0.0198989
-6.53171e-07
-0.0193529
-6.27988e-07
-0.0186989
-5.58889e-07
-0.0179463
-4.96881e-07
-0.0171053
-4.39921e-07
-0.0161861
-3.87237e-07
-0.0151992
-3.35659e-07
-0.0141553
-2.7886e-07
-0.0130657
-2.06602e-07
-0.0119422
-1.05969e-07
-0.0107978
3.354e-08
-0.00964665
2.14681e-07
-0.0085047
4.23877e-07
-0.00738893
6.34297e-07
-0.00631672
8.09949e-07
-0.00530447
9.23719e-07
-0.00436651
9.69789e-07
-0.00351456
9.64022e-07
-0.00275841
9.32527e-07
-0.00210684
8.96942e-07
-0.00156928
8.60963e-07
-0.00115648
8.0138e-07
-0.000879529
6.6482e-07
5.41831e-07
-0.0202053
3.40526e-08
-0.0197778
1.73714e-07
-0.0192339
1.64318e-07
-0.0185828
1.41952e-07
-0.017834
1.22766e-07
-0.0169974
1.05091e-07
-0.0160832
8.89422e-08
-0.0151018
7.37269e-08
-0.0140641
5.78429e-08
-0.0129812
3.86438e-08
-0.0118648
1.24805e-08
-0.010728
-2.41212e-08
-0.00958485
-7.15514e-08
-0.00845109
-1.31081e-07
-0.00734355
-1.92614e-07
-0.00627937
-2.46315e-07
-0.00527472
-2.83198e-07
-0.00434371
-3.00313e-07
-0.00349791
-3.01771e-07
-0.00274702
-2.95079e-07
-0.00209975
-2.87079e-07
-0.00156547
-2.77766e-07
-0.00115489
-2.60589e-07
-0.000879132
-2.0737e-07
-1.58123e-07
-0.0203565
-1.41336e-06
-4.43315e-08
-0.0199277
-6.71464e-07
-1.80465e-07
-0.0193813
-7.27663e-07
-1.71682e-07
-0.0187266
-6.54758e-07
-1.49321e-07
-0.0179733
-5.92569e-07
-1.30043e-07
-0.0171313
-5.3499e-07
-1.1222e-07
-0.016211
-4.81685e-07
-9.58091e-08
-0.0152227
-4.29978e-07
-8.01642e-08
-0.0141774
-3.74207e-07
-6.37252e-08
-0.0130862
-3.049e-07
-4.3837e-08
-0.0119611
-2.10123e-07
-1.68344e-08
-0.0108148
-7.83051e-08
2.05728e-08
-0.00966177
9.39557e-08
6.93177e-08
-0.00851783
2.92756e-07
1.30231e-07
-0.00740006
4.95412e-07
1.93365e-07
-0.00632588
6.67719e-07
2.48929e-07
-0.00531177
7.82846e-07
2.87957e-07
-0.0043721
8.33457e-07
3.07545e-07
-0.00351862
8.3289e-07
3.1189e-07
-0.00276117
8.05264e-07
3.08624e-07
-0.00210853
7.72386e-07
3.04356e-07
-0.00157014
7.40559e-07
2.9857e-07
-0.00115679
6.98543e-07
2.83496e-07
-0.000879546
6.01301e-07
2.29287e-07
5.74764e-07
1.77653e-07
-0.0202265
-0.0197987
-0.0192544
-0.0186028
-0.0178533
-0.0170159
-0.0161008
-0.0151184
-0.0140796
-0.0129955
-0.011878
-0.0107398
-0.0095953
-0.00846015
-0.00735123
-0.0062857
-0.00527978
-0.00434762
-0.0035008
-0.00274905
-0.00210109
-0.00156628
-0.00115534
-0.000879352
-0.0203275
-6.8752e-07
-4.40336e-10
-0.0198989
-6.47733e-07
-4.60317e-09
-0.0193529
-6.22896e-07
-4.64635e-09
-0.0186988
-5.53363e-07
-4.9391e-09
-0.0179463
-4.90949e-07
-5.33107e-09
-0.0171053
-4.33476e-07
-5.76186e-09
-0.0161861
-3.80183e-07
-6.21693e-09
-0.0151992
-3.27965e-07
-6.78345e-09
-0.0141553
-2.70446e-07
-7.40061e-09
-0.0130657
-1.97383e-07
-8.05442e-09
-0.0119422
-9.59031e-08
-8.89908e-09
-0.0107978
4.46253e-08
-9.58276e-09
-0.00964664
2.26993e-07
-1.08862e-08
-0.00850469
4.37525e-07
-1.22415e-08
-0.00738892
6.49509e-07
-1.38212e-08
-0.00631671
8.27009e-07
-1.5716e-08
-0.00530446
9.43123e-07
-1.81289e-08
-0.00436651
9.92171e-07
-2.11628e-08
-0.00351455
9.9051e-07
-2.49154e-08
-0.00275841
9.64216e-07
-2.92398e-08
-0.00210684
9.35355e-07
-3.40803e-08
-0.00156927
9.05955e-07
-3.75774e-08
-0.00115648
8.51816e-07
-3.89653e-08
-0.000879529
7.13785e-07
-3.48664e-08
5.81512e-07
-2.58513e-08
-0.0202052
-0.0197777
-0.0192339
-0.0185828
-0.017834
-0.0169973
-0.0160831
-0.0151018
-0.0140641
-0.0129811
-0.0118648
-0.010728
-0.00958484
-0.00845108
-0.00734354
-0.00627936
-0.00527471
-0.00434371
-0.00349791
-0.00274702
-0.00209975
-0.00156547
-0.0011549
-0.000879134
-0.0202053
6.88166e-07
-0.0197778
6.56904e-07
-0.0192339
6.31771e-07
-0.0185828
5.62741e-07
-0.017834
5.00968e-07
-0.0169974
4.44174e-07
-0.0160832
3.91579e-07
-0.0151018
3.40164e-07
-0.0140641
2.83438e-07
-0.0129812
2.11159e-07
-0.0118648
1.10551e-07
-0.010728
-2.91535e-08
-0.00958485
-2.10007e-07
-0.00845109
-4.19152e-07
-0.00734355
-6.29696e-07
-0.00627937
-8.05633e-07
-0.00527472
-9.19851e-07
-0.00434371
-9.66743e-07
-0.00349791
-9.62651e-07
-0.00274702
-9.33932e-07
-0.00209975
-9.02662e-07
-0.00156547
-8.72163e-07
-0.00115489
-8.18897e-07
-0.000879131
-6.85343e-07
-5.60771e-07
-0.0203276
-0.0198989
-0.0193529
-0.0186989
-0.0179463
-0.0171053
-0.0161861
-0.0151992
-0.0141553
-0.0130657
-0.0119422
-0.0107978
-0.00964665
-0.0085047
-0.00738893
-0.00631672
-0.00530447
-0.00436651
-0.00351456
-0.00275841
-0.00210684
-0.00156928
-0.00115648
-0.00087953
)
;

boundaryField
{
    outletCentralUnloaded
    {
        type            calculated;
        value           nonuniform List<scalar> 2(0.000539051 0.000539051);
    }
    inletCentralUnloaded
    {
        type            calculated;
        value           uniform -0.000540134;
    }
    outletFuelElement
    {
        type            calculated;
        value           nonuniform List<scalar> 
12
(
0.0205671
0.0207002
0.0205463
0.0206705
0.0206705
0.0205464
0.0207002
0.0205671
0.0206705
0.0205463
0.0205464
0.0206705
)
;
    }
    inletFuelElement
    {
        type            calculated;
        value           nonuniform List<scalar> 
12
(
-0.000722059
-0.00072206
-0.000722059
-0.000722059
-0.00072206
-0.000722059
-0.00072206
-0.000722059
-0.000722059
-0.000722059
-0.000722059
-0.00072206
)
;
    }
    defaultFaces
    {
        type            calculated;
        value           nonuniform List<scalar> 
450
(
3.09692e-23
-1.45563e-23
0
1.69482e-23
-1.33286e-23
0
1.73052e-23
9.16791e-24
0
-4.38896e-23
-2.28579e-23
0
-1.00803e-23
-3.44648e-23
0
-3.36467e-23
-1.78221e-23
0
-3.56526e-23
-9.86677e-24
0
-2.76049e-23
-1.26241e-23
0
-2.10303e-23
-1.72458e-23
0
-2.33432e-23
-7.09468e-24
0
-1.67546e-23
-3.8073e-24
0
-4.55524e-24
-1.92703e-24
0
4.68737e-24
2.643e-24
0
2.35746e-23
9.12655e-24
0
3.14642e-23
6.83323e-24
0
4.23281e-23
2.69108e-23
0
4.61949e-23
2.65811e-24
0
3.75459e-23
1.5749e-23
0
4.91129e-23
-5.32823e-23
0
-2.84135e-23
-2.65891e-23
0
-2.36944e-23
-1.44067e-23
0
4.72459e-23
-1.65409e-23
0
-1.49615e-23
2.59711e-23
0
-2.44518e-23
-1.93242e-23
0
-1.61553e-23
-1.95564e-23
0
1.60454e-23
0
1.60454e-23
0
-8.0227e-24
0
1.2034e-23
0
-4.01135e-24
0
2.00567e-23
0
1.60454e-23
0
1.40397e-23
0
-4.01135e-24
0
5.01419e-24
0
5.2649e-24
0
0
0
-1.2034e-23
0
-1.60454e-23
0
-3.20908e-23
0
-1.60454e-23
0
6.41816e-23
0
-3.20908e-23
0
0
0
-3.20908e-23
0
-1.60454e-23
0
2.40681e-23
0
0
0
-3.20908e-23
0
-1.60454e-23
0
-1.60454e-23
0
0
-8.0227e-24
0
0
-1.60454e-23
0
4.01135e-24
-4.01135e-24
-4.01135e-24
0
4.01135e-24
1.60454e-23
1.60454e-23
1.60454e-23
-4.81362e-23
3.20908e-23
-1.60454e-23
0
-1.60454e-23
-4.81362e-23
-3.20908e-23
1.60454e-23
0
0
0
0
0
0
0
0
0
0
0
0
0
0
0
0
0
0
0
0
0
0
0
0
0
0
-1.70482e-23
1.60454e-23
8.0227e-24
2.40681e-23
1.60454e-23
4.81362e-23
-1.2034e-23
-2.00567e-23
1.60454e-23
-1.2034e-23
-1.2034e-23
-1.2034e-23
-1.2034e-23
-4.01135e-24
-8.0227e-24
-1.2034e-23
1.80511e-23
-4.01135e-24
-4.01135e-24
-2.00567e-24
-2.50709e-24
-2.00567e-24
1.00284e-24
1.12819e-24
4.01135e-24
8.0227e-24
1.60454e-23
1.2034e-23
1.60454e-23
8.0227e-24
2.40681e-23
2.40681e-23
-1.60454e-23
4.81362e-23
4.81362e-23
2.40681e-23
-6.41816e-23
5.61589e-23
-3.20908e-23
-3.20908e-23
8.0227e-24
-2.40681e-23
-4.01135e-23
4.01135e-23
-8.0227e-24
-3.20908e-23
0
-2.00567e-23
-2.40681e-23
-1.2034e-23
-1.53671e-23
0
0
5.3638e-24
0
8.0227e-24
2.5322e-23
0
-6.41816e-23
-5.63094e-23
0
8.0227e-24
2.51428e-23
0
0
-5.05839e-23
0
0
-4.76067e-23
0
8.0227e-24
-4.00963e-23
0
8.0227e-24
-1.73363e-23
0
-8.0227e-24
-2.93953e-23
0
0
-2.10222e-23
0
8.0227e-24
-6.38824e-24
0
1.00284e-24
7.22107e-24
-0
-2.00567e-24
2.83878e-23
-0
-8.0227e-24
4.72082e-23
-0
-8.0227e-24
6.88612e-23
-0
0
4.79535e-23
-0
-3.20908e-23
6.97779e-23
-0
0
4.44701e-23
-0
-3.20908e-23
-2.34468e-23
-0
1.60454e-23
3.32647e-24
-0
0
3.14471e-23
-0
1.60454e-23
-1.99483e-23
-0
0
-6.0953e-24
-0
8.0227e-24
-1.53866e-23
-0
8.0227e-24
0
-1.60454e-23
8.0227e-24
-1.60454e-23
0
0
-8.0227e-24
-8.0227e-24
-4.01135e-24
0
0
-1.00284e-24
4.01135e-24
8.0227e-24
8.0227e-24
0
-3.20908e-23
1.60454e-23
-4.81362e-23
1.60454e-23
0
-4.81362e-23
-1.60454e-23
0
0
2.80794e-23
0
2.40681e-23
0
0
0
2.40681e-23
0
-1.2034e-23
0
1.2034e-23
0
1.60454e-23
0
1.60454e-23
0
-2.00567e-24
0
6.01702e-24
0
2.50709e-24
0
0
-0
-6.01702e-24
-0
-1.60454e-23
-0
-8.0227e-24
-0
-2.40681e-23
-0
5.61589e-23
-0
-1.60454e-23
-0
3.20908e-23
-0
-4.81362e-23
-0
-4.81362e-23
-0
6.41816e-23
-0
8.0227e-24
-0
-3.20908e-23
-0
-1.60454e-23
-0
-2.20624e-23
0
-1.60454e-23
8.0227e-24
-1.60454e-23
1.60454e-23
-8.0227e-24
-4.41248e-23
0
1.2034e-23
-1.2034e-23
-3.20908e-23
-1.2034e-23
-2.40681e-23
-8.0227e-24
-2.80794e-23
4.01135e-24
-1.2034e-23
-4.01135e-24
-1.2034e-23
-3.00851e-24
-7.01986e-24
0
3.38458e-24
4.01135e-24
1.60454e-23
8.0227e-24
3.20908e-23
1.60454e-23
4.81362e-23
3.20908e-23
5.61589e-23
0
4.81362e-23
1.60454e-23
8.82497e-23
0
4.01135e-23
8.0227e-24
-4.01135e-23
0
-2.40681e-23
0
4.81362e-23
2.40681e-23
-4.01135e-23
0
-2.40681e-23
-8.0227e-24
-1.2034e-23
-0
-0
-0
-0
-0
-0
-0
-0
-0
-0
-0
0
0
0
0
0
0
0
0
0
0
0
0
0
0
)
;
    }
    baffle_master
    {
        type            calculated;
        value           nonuniform List<scalar> 
150
(
-5.74924e-31
0
0
6.01276e-30
0
-5.72334e-30
7.08578e-30
0
0
1.08055e-30
0
-1.14467e-29
4.26578e-29
0
1.14467e-29
-6.69726e-30
0
0
1.06748e-30
0
0
7.07209e-31
0
0
-3.59753e-30
0
0
2.59094e-30
0
2.28934e-29
2.34988e-29
0
-2.28934e-29
-2.60815e-30
0
0
6.5512e-30
0
-1.14467e-29
-2.73495e-30
0
5.72334e-30
1.42416e-31
0
2.86167e-30
1.04597e-29
0
0
-7.34896e-29
0
-4.57867e-29
6.81184e-31
0
0
-4.23621e-29
0
-1.14467e-29
4.27378e-32
0
-2.86167e-30
-1.1849e-30
0
2.86167e-30
-2.27553e-29
0
-1.14467e-29
5.1253e-30
0
1.14467e-29
-8.17912e-31
0
5.72334e-30
1.16384e-30
0
-1.14467e-29
-5.72334e-30
7.72737e-30
-0
-5.72334e-30
1.50023e-29
-0
-1.14467e-29
1.62019e-29
-0
-1.14467e-29
2.48195e-29
-0
0
-1.54923e-29
-0
-1.14467e-29
2.21261e-29
-0
-2.86167e-30
7.03361e-30
-0
0
-1.38825e-29
0
-2.28934e-29
-3.25269e-29
0
0
-4.01539e-29
0
2.28934e-29
-4.76637e-29
0
0
-3.5463e-29
0
1.14467e-29
-3.0938e-29
0
5.72334e-30
-1.19231e-29
0
0
7.13716e-30
-0
0
3.40304e-29
-0
2.28934e-29
3.60428e-29
-0
-1.14467e-29
2.32422e-29
-0
1.14467e-29
2.27499e-30
-0
-2.86167e-30
-5.68873e-30
-0
0
4.79008e-30
0
-3.43401e-29
3.86669e-29
0
-4.57867e-29
-1.7891e-29
0
5.72334e-30
8.56279e-30
0
0
-1.94742e-29
-0
)
;
    }
    baffle_slave
    {
        type            calculated;
        value           nonuniform List<scalar> 
150
(
1.39144e-23
-0
0
1.75497e-24
-0
8.0227e-24
-1.00284e-23
-0
-8.0227e-24
6.51844e-24
-0
0
-2.90823e-23
-0
-1.60454e-23
2.50709e-24
-0
-8.0227e-24
4.51277e-24
-0
0
3.50993e-24
-0
8.0227e-24
0
-0
0
-1.50426e-24
-0
0
1.00284e-24
-0
0
0
0
-5.01419e-25
0
0
0
1.00284e-24
0
0
-1.00284e-24
0
-8.0227e-24
3.00851e-24
0
0
-4.81362e-23
0
-3.20908e-23
3.00851e-24
0
0
-3.81078e-23
0
-3.20908e-23
-2.00567e-24
0
0
1.00284e-24
0
-3.20908e-23
2.50709e-23
0
1.60454e-23
-2.00567e-24
0
1.60454e-23
0
0
0
3.50993e-24
0
0
6.08836e-25
6.36802e-23
0
-7.06462e-24
1.93046e-23
0
-6.39696e-24
2.00567e-23
0
-4.23822e-24
1.5544e-23
0
-4.4965e-24
-2.65752e-23
0
-6.9543e-24
1.02791e-23
0
4.4824e-26
1.30369e-23
0
-1.14131e-24
1.12819e-23
0
6.73666e-24
1.27862e-23
0
-3.49017e-24
9.27625e-24
0
-1.02369e-24
9.15089e-24
0
8.78762e-25
2.50709e-24
0
5.86532e-24
-9.4016e-25
0
1.10691e-23
-6.17372e-24
0
4.20274e-24
-1.29742e-23
0
8.2806e-24
-1.9806e-23
0
-3.72557e-23
-1.62961e-23
0
7.44813e-24
-1.72989e-23
0
-3.96515e-23
-2.00567e-24
0
3.85029e-25
1.30369e-23
0
1.99377e-24
8.0227e-24
0
-3.4062e-23
2.80794e-23
0
-1.6148e-23
-1.50426e-23
0
3.75172e-24
8.0227e-24
0
-2.56563e-24
1.2034e-23
0
)
;
    }
}


// ************************************************************************* //
