/*--------------------------------*- C++ -*----------------------------------*\
| =========                 |                                                 |
| \\      /  F ield         | OpenFOAM: The Open Source CFD Toolbox           |
|  \\    /   O peration     | Version:  2212                                  |
|   \\  /    A nd           | Website:  www.openfoam.com                      |
|    \\/     M anipulation  |                                                 |
\*---------------------------------------------------------------------------*/
FoamFile
{
    version     2.0;
    format      ascii;
    arch        "LSB;label=32;scalar=64";
    class       volScalarField;
    location    "58/fluidRegion";
    object      alphat;
}
// * * * * * * * * * * * * * * * * * * * * * * * * * * * * * * * * * * * * * //

dimensions      [1 -1 -1 0 0 0 0];

internalField   nonuniform List<scalar> 
350
(
0.00258572
0.00258568
0.00258563
0.00258559
0.00258557
0.00258555
0.00258554
0.00258553
0.00258555
0.00258558
0.00258564
0.00258572
0.00258584
0.00258598
0.00258615
0.00258638
0.00258668
0.00258712
0.00258778
0.0025888
0.00259037
0.00259279
0.00259653
0.00260225
0.00261101
0.00258572
0.00258568
0.00258563
0.00258559
0.00258557
0.00258555
0.00258554
0.00258553
0.00258555
0.00258558
0.00258564
0.00258572
0.00258584
0.00258598
0.00258615
0.00258638
0.00258668
0.00258712
0.00258778
0.0025888
0.00259037
0.00259279
0.00259653
0.00260225
0.00261101
0.000895871
0.000884264
0.000872852
0.000861279
0.00084944
0.000837228
0.00082454
0.000811277
0.000797353
0.000782704
0.000767299
0.000751143
0.00073428
0.00071678
0.000698724
0.000680207
0.000661405
0.000642773
0.000625491
0.000612395
0.00060988
0.000631331
0.000699563
0.000832293
0.00100218
0.000888014
0.000876421
0.000865044
0.000853514
0.000841725
0.000829572
0.00081695
0.000803758
0.00078991
0.000775342
0.000760022
0.000743963
0.000727217
0.000709865
0.000692
0.000673728
0.000655222
0.000636925
0.000619995
0.000607241
0.000605041
0.00062682
0.000695616
0.000829598
0.00100144
0.000897125
0.000885505
0.000874082
0.000862498
0.000850645
0.00083842
0.000825717
0.000812438
0.000798498
0.000783831
0.000768407
0.00075223
0.000735343
0.000717814
0.000699721
0.000681158
0.000662302
0.000643609
0.000626263
0.000613103
0.000610526
0.000631917
0.000700067
0.000832642
0.00100231
0.000889819
0.000878226
0.000866844
0.000855307
0.000843509
0.000831345
0.000818709
0.000805502
0.000791638
0.000777051
0.000761712
0.00074563
0.000728856
0.00071147
0.000693561
0.000675231
0.000656656
0.000638282
0.00062127
0.000608437
0.000606163
0.000627866
0.000696531
0.000830224
0.00100161
0.000889819
0.000878226
0.000866844
0.000855307
0.000843509
0.000831345
0.000818709
0.000805502
0.000791638
0.000777051
0.000761712
0.00074563
0.000728856
0.000711469
0.00069356
0.00067523
0.000656656
0.000638281
0.000621269
0.000608436
0.000606162
0.000627866
0.000696532
0.000830225
0.00100161
0.000897125
0.000885505
0.000874082
0.000862498
0.000850645
0.00083842
0.000825717
0.000812438
0.000798497
0.000783831
0.000768406
0.000752229
0.000735341
0.000717812
0.000699718
0.000681155
0.000662298
0.000643605
0.000626258
0.000613096
0.000610518
0.000631907
0.000700056
0.00083263
0.0010023
0.000888015
0.000876421
0.000865044
0.000853514
0.000841726
0.000829573
0.00081695
0.000803759
0.00078991
0.000775342
0.000760023
0.000743964
0.000727217
0.000709865
0.000692001
0.000673728
0.000655222
0.000636925
0.000619995
0.000607241
0.000605041
0.00062682
0.000695616
0.000829599
0.00100144
0.000895872
0.000884264
0.000872852
0.000861279
0.00084944
0.000837229
0.000824541
0.000811277
0.000797353
0.000782704
0.000767299
0.000751143
0.00073428
0.00071678
0.000698724
0.000680207
0.000661404
0.000642771
0.000625488
0.00061239
0.000609872
0.000631319
0.000699543
0.000832264
0.00100214
0.000889818
0.000878226
0.000866844
0.000855306
0.000843509
0.000831345
0.000818709
0.000805502
0.000791637
0.000777051
0.000761711
0.00074563
0.000728856
0.000711469
0.00069356
0.000675231
0.000656656
0.000638281
0.000621269
0.000608435
0.000606161
0.000627863
0.000696525
0.000830214
0.0010016
0.000897126
0.000885505
0.000874082
0.000862498
0.000850646
0.00083842
0.000825718
0.000812439
0.000798498
0.000783831
0.000768407
0.00075223
0.000735343
0.000717814
0.000699721
0.000681159
0.000662304
0.000643612
0.000626268
0.000613112
0.000610541
0.00063194
0.000700106
0.000832698
0.00100238
0.000897125
0.000885504
0.000874081
0.000862497
0.000850644
0.000838419
0.000825716
0.000812437
0.000798496
0.000783829
0.000768405
0.000752227
0.00073534
0.00071781
0.000699716
0.000681153
0.000662295
0.000643602
0.000626255
0.000613094
0.000610516
0.000631906
0.000700059
0.000832639
0.00100232
0.000889818
0.000878226
0.000866844
0.000855306
0.000843509
0.000831345
0.000818709
0.000805502
0.000791637
0.00077705
0.000761711
0.000745629
0.000728855
0.000711468
0.000693559
0.000675229
0.000656654
0.000638278
0.000621265
0.000608428
0.00060615
0.000627846
0.0006965
0.000830179
0.00100156
)
;

boundaryField
{
    outletCentralUnloaded
    {
        type            zeroGradient;
    }
    inletCentralUnloaded
    {
        type            zeroGradient;
    }
    outletFuelElement
    {
        type            zeroGradient;
    }
    inletFuelElement
    {
        type            zeroGradient;
    }
    defaultFaces
    {
        type            zeroGradient;
    }
    baffle_master
    {
        type            calculated;
        value           nonuniform List<scalar> 
150
(
0.00258572
0.00258572
0.00258572
0.00258568
0.00258568
0.00258568
0.00258563
0.00258563
0.00258563
0.00258559
0.00258559
0.00258559
0.00258557
0.00258557
0.00258557
0.00258555
0.00258555
0.00258555
0.00258554
0.00258554
0.00258554
0.00258553
0.00258553
0.00258553
0.00258555
0.00258555
0.00258555
0.00258558
0.00258558
0.00258558
0.00258564
0.00258564
0.00258564
0.00258572
0.00258572
0.00258572
0.00258584
0.00258584
0.00258584
0.00258598
0.00258598
0.00258598
0.00258615
0.00258615
0.00258615
0.00258638
0.00258638
0.00258638
0.00258668
0.00258668
0.00258668
0.00258712
0.00258712
0.00258712
0.00258778
0.00258778
0.00258778
0.0025888
0.0025888
0.0025888
0.00259037
0.00259037
0.00259037
0.00259279
0.00259279
0.00259279
0.00259653
0.00259653
0.00259653
0.00260225
0.00260225
0.00260225
0.00261101
0.00261101
0.00261101
0.00258572
0.00258572
0.00258572
0.00258568
0.00258568
0.00258568
0.00258563
0.00258563
0.00258563
0.00258559
0.00258559
0.00258559
0.00258557
0.00258557
0.00258557
0.00258555
0.00258555
0.00258555
0.00258554
0.00258554
0.00258554
0.00258553
0.00258553
0.00258553
0.00258555
0.00258555
0.00258555
0.00258558
0.00258558
0.00258558
0.00258564
0.00258564
0.00258564
0.00258572
0.00258572
0.00258572
0.00258584
0.00258584
0.00258584
0.00258598
0.00258598
0.00258598
0.00258615
0.00258615
0.00258615
0.00258638
0.00258638
0.00258638
0.00258668
0.00258668
0.00258668
0.00258712
0.00258712
0.00258712
0.00258778
0.00258778
0.00258778
0.0025888
0.0025888
0.0025888
0.00259037
0.00259037
0.00259037
0.00259279
0.00259279
0.00259279
0.00259653
0.00259653
0.00259653
0.00260225
0.00260225
0.00260225
0.00261101
0.00261101
0.00261101
)
;
    }
    baffle_slave
    {
        type            calculated;
        value           nonuniform List<scalar> 
150
(
0.000888014
0.000889819
0.000889818
0.000876421
0.000878226
0.000878226
0.000865044
0.000866844
0.000866844
0.000853514
0.000855307
0.000855306
0.000841725
0.000843509
0.000843509
0.000829572
0.000831345
0.000831345
0.00081695
0.000818709
0.000818709
0.000803758
0.000805502
0.000805502
0.00078991
0.000791638
0.000791637
0.000775342
0.000777051
0.00077705
0.000760022
0.000761712
0.000761711
0.000743963
0.00074563
0.000745629
0.000727217
0.000728856
0.000728855
0.000709865
0.00071147
0.000711468
0.000692
0.000693561
0.000693559
0.000673728
0.000675231
0.000675229
0.000655222
0.000656656
0.000656654
0.000636925
0.000638282
0.000638278
0.000619995
0.00062127
0.000621265
0.000607241
0.000608437
0.000608428
0.000605041
0.000606163
0.00060615
0.00062682
0.000627866
0.000627846
0.000695616
0.000696531
0.0006965
0.000829598
0.000830224
0.000830179
0.00100144
0.00100161
0.00100156
0.000889819
0.000888015
0.000889818
0.000878226
0.000876421
0.000878226
0.000866844
0.000865044
0.000866844
0.000855307
0.000853514
0.000855306
0.000843509
0.000841726
0.000843509
0.000831345
0.000829573
0.000831345
0.000818709
0.00081695
0.000818709
0.000805502
0.000803759
0.000805502
0.000791638
0.00078991
0.000791637
0.000777051
0.000775342
0.000777051
0.000761712
0.000760023
0.000761711
0.00074563
0.000743964
0.00074563
0.000728856
0.000727217
0.000728856
0.000711469
0.000709865
0.000711469
0.00069356
0.000692001
0.00069356
0.00067523
0.000673728
0.000675231
0.000656656
0.000655222
0.000656656
0.000638281
0.000636925
0.000638281
0.000621269
0.000619995
0.000621269
0.000608436
0.000607241
0.000608435
0.000606162
0.000605041
0.000606161
0.000627866
0.00062682
0.000627863
0.000696532
0.000695616
0.000696525
0.000830225
0.000829599
0.000830214
0.00100161
0.00100144
0.0010016
)
;
    }
}


// ************************************************************************* //
