/*--------------------------------*- C++ -*----------------------------------*\
| =========                 |                                                 |
| \\      /  F ield         | OpenFOAM: The Open Source CFD Toolbox           |
|  \\    /   O peration     | Version:  2212                                  |
|   \\  /    A nd           | Website:  www.openfoam.com                      |
|    \\/     M anipulation  |                                                 |
\*---------------------------------------------------------------------------*/
FoamFile
{
    version     2.0;
    format      ascii;
    arch        "LSB;label=32;scalar=64";
    class       volScalarField;
    location    "58/fluidRegion";
    object      htc;
}
// * * * * * * * * * * * * * * * * * * * * * * * * * * * * * * * * * * * * * //

dimensions      [1 0 -3 -1 0 0 0];

internalField   nonuniform List<scalar> 
350
(
3101.54
3101.51
3101.44
3101.36
3101.3
3101.27
3101.29
3101.35
3101.43
3101.5
3101.55
3101.57
3101.56
3101.55
3101.55
3101.58
3101.65
3101.74
3101.85
3101.94
3102.01
3102.04
3102.01
3101.94
3106.99
3101.54
3101.51
3101.44
3101.36
3101.3
3101.27
3101.29
3101.35
3101.43
3101.5
3101.55
3101.57
3101.56
3101.55
3101.55
3101.58
3101.65
3101.74
3101.85
3101.94
3102.01
3102.04
3102.01
3101.94
3106.99
27253.7
27172.3
26985.1
26672.9
26237
25679.7
25003.8
24213.2
23313.1
22310.5
21215
20039.2
18798.1
17508.5
16187.1
14847.6
13500.5
12153.7
10816.6
9505.12
8247.37
7089.92
6103.94
5383.26
4944.01
27342.7
27260.9
27074.3
26762.1
26325.8
25767.5
25090
24297
23393.6
22386.6
21285.5
20102.7
18853.5
17555.3
16225.3
14878.1
13524.5
12172.4
10830.7
9514.69
8252.36
7090.43
6100.9
5379.01
4942.04
27239.7
27157.8
26970.6
26658.4
26222.7
25665.6
24990
24199.8
23300.2
22298.3
21203.8
20029.1
18789.3
17501.1
16180.9
14842.6
13496.4
12150.4
10814
9503.1
8245.97
7089.09
6103.52
5383
4943.87
27322.9
27241.3
27054.5
26742.3
26306
25747.9
25070.7
24278.2
23375.5
22369.5
21269.6
20088.3
18840.9
17544.7
16216.6
14871.2
13519.1
12168.2
10827.5
9512.59
8251.31
7090.41
6101.71
5380.11
4942.56
27322.9
27241.3
27054.5
26742.3
26306
25747.9
25070.7
24278.2
23375.5
22369.5
21269.6
20088.3
18840.9
17544.7
16216.6
14871.2
13519.1
12168.2
10827.5
9512.59
8251.31
7090.41
6101.71
5380.11
4942.56
27239.7
27157.8
26970.6
26658.4
26222.7
25665.6
24990
24199.8
23300.2
22298.4
21203.8
20029.1
18789.3
17501.1
16180.9
14842.6
13496.4
12150.4
10814
9503.1
8245.96
7089.08
6103.51
5382.99
4943.86
27342.7
27260.9
27074.3
26762.1
26325.8
25767.5
25090
24297
23393.6
22386.6
21285.5
20102.7
18853.5
17555.3
16225.3
14878.1
13524.5
12172.4
10830.7
9514.69
8252.36
7090.43
6100.9
5379.01
4942.04
27253.7
27172.3
26985.1
26672.9
26237
25679.7
25003.8
24213.2
23313.1
22310.5
21215
20039.2
18798.1
17508.5
16187.1
14847.6
13500.5
12153.7
10816.6
9505.12
8247.38
7089.92
6103.94
5383.26
4944.01
27322.9
27241.3
27054.5
26742.3
26306
25747.9
25070.7
24278.2
23375.5
22369.5
21269.6
20088.3
18840.9
17544.7
16216.6
14871.2
13519.1
12168.2
10827.5
9512.59
8251.31
7090.41
6101.71
5380.11
4942.56
27239.7
27157.8
26970.6
26658.4
26222.7
25665.6
24990
24199.8
23300.2
22298.3
21203.8
20029.1
18789.3
17501.1
16180.9
14842.6
13496.4
12150.4
10814
9503.1
8245.97
7089.09
6103.52
5383
4943.87
27239.7
27157.8
26970.6
26658.4
26222.7
25665.6
24990
24199.8
23300.2
22298.4
21203.8
20029.1
18789.3
17501.1
16180.9
14842.6
13496.4
12150.4
10814
9503.1
8245.96
7089.08
6103.51
5382.98
4943.86
27322.9
27241.3
27054.5
26742.3
26306
25747.9
25070.7
24278.2
23375.5
22369.5
21269.6
20088.3
18840.9
17544.7
16216.6
14871.2
13519.1
12168.2
10827.5
9512.59
8251.31
7090.41
6101.71
5380.11
4942.57
)
;

boundaryField
{
    outletCentralUnloaded
    {
        type            zeroGradient;
    }
    inletCentralUnloaded
    {
        type            zeroGradient;
    }
    outletFuelElement
    {
        type            zeroGradient;
    }
    inletFuelElement
    {
        type            zeroGradient;
    }
    defaultFaces
    {
        type            zeroGradient;
    }
    baffle_master
    {
        type            zeroGradient;
    }
    baffle_slave
    {
        type            zeroGradient;
    }
}


// ************************************************************************* //
