/*--------------------------------*- C++ -*----------------------------------*\
| =========                 |                                                 |
| \\      /  F ield         | OpenFOAM: The Open Source CFD Toolbox           |
|  \\    /   O peration     | Version:  2212                                  |
|   \\  /    A nd           | Website:  www.openfoam.com                      |
|    \\/     M anipulation  |                                                 |
\*---------------------------------------------------------------------------*/
FoamFile
{
    version     2.0;
    format      ascii;
    arch        "LSB;label=32;scalar=64";
    class       volScalarField;
    location    "58/fluidRegion";
    object      k;
}
// * * * * * * * * * * * * * * * * * * * * * * * * * * * * * * * * * * * * * //

dimensions      [0 2 -2 0 0 0 0];

internalField   nonuniform List<scalar> 
350
(
0.421094
0.421022
0.420951
0.42088
0.42081
0.42074
0.420671
0.420602
0.420535
0.420469
0.420406
0.420346
0.420291
0.420242
0.420201
0.420172
0.420162
0.42018
0.420244
0.420377
0.420618
0.421025
0.421685
0.422734
0.424375
0.421094
0.421022
0.420951
0.42088
0.42081
0.42074
0.420671
0.420602
0.420535
0.420469
0.420406
0.420346
0.420291
0.420242
0.420201
0.420172
0.420162
0.42018
0.420244
0.420377
0.420618
0.421025
0.421685
0.422734
0.424375
406.733
384.147
358.459
330.179
300.091
268.973
237.573
206.592
176.667
148.361
122.152
98.4185
77.4351
59.3576
44.2177
31.9228
22.268
14.9595
9.64844
5.96521
3.54976
2.07262
1.25011
0.853306
0.713274
412.454
389.602
363.611
334.976
304.496
272.959
241.125
209.705
179.345
150.619
124.012
99.9125
78.5995
60.2349
44.8539
32.3646
22.5599
15.1417
9.75466
6.02203
3.57695
2.08382
1.25388
0.854335
0.713662
405.786
383.242
357.608
329.389
299.369
268.322
236.995
206.087
176.234
147.998
121.853
98.1797
77.2495
59.2181
44.1166
31.8527
22.2215
14.9303
9.63125
5.95581
3.54505
2.07049
1.24924
0.852969
0.713146
411.198
388.402
362.474
333.915
303.519
272.073
240.334
209.01
178.746
150.113
123.594
99.5758
78.3364
60.0363
44.7095
32.2642
22.4935
15.1002
9.73045
6.00908
3.57076
2.08129
1.25304
0.854118
0.713584
411.198
388.402
362.474
333.915
303.519
272.073
240.334
209.01
178.746
150.113
123.594
99.5758
78.3364
60.0363
44.7095
32.2642
22.4935
15.1002
9.73044
6.00908
3.57076
2.08129
1.25305
0.854119
0.713585
405.787
383.242
357.609
329.39
299.369
268.322
236.996
206.088
176.235
147.998
121.853
98.1798
77.2496
59.2181
44.1166
31.8526
22.2215
14.9303
9.63123
5.95579
3.54503
2.07048
1.24923
0.852962
0.713141
412.454
389.602
363.611
334.976
304.496
272.959
241.125
209.705
179.345
150.619
124.013
99.9125
78.5995
60.2349
44.8539
32.3646
22.5599
15.1417
9.75466
6.02203
3.57695
2.08382
1.25388
0.854336
0.713663
406.733
384.147
358.459
330.179
300.091
268.973
237.573
206.592
176.667
148.361
122.152
98.4185
77.4351
59.3576
44.2177
31.9228
22.2679
14.9595
9.64842
5.96519
3.54974
2.07261
1.2501
0.853291
0.713261
411.197
388.402
362.474
333.915
303.519
272.073
240.334
209.01
178.746
150.113
123.594
99.5758
78.3364
60.0363
44.7095
32.2642
22.4935
15.1002
9.73044
6.00908
3.57076
2.08128
1.25304
0.854113
0.71358
405.786
383.242
357.608
329.389
299.369
268.322
236.995
206.087
176.235
147.998
121.853
98.1798
77.2496
59.2181
44.1166
31.8527
22.2215
14.9303
9.63129
5.95584
3.54508
2.07053
1.24927
0.852997
0.713171
405.787
383.242
357.609
329.39
299.369
268.322
236.995
206.087
176.235
147.998
121.853
98.1797
77.2495
59.218
44.1166
31.8526
22.2214
14.9303
9.63121
5.95578
3.54503
2.07048
1.24923
0.852966
0.713147
411.197
388.402
362.474
333.915
303.519
272.073
240.334
209.01
178.746
150.113
123.594
99.5757
78.3364
60.0362
44.7095
32.2642
22.4935
15.1002
9.73041
6.00905
3.57073
2.08126
1.25302
0.854096
0.713565
)
;

boundaryField
{
    outletCentralUnloaded
    {
        type            zeroGradient;
    }
    inletCentralUnloaded
    {
        type            zeroGradient;
    }
    outletFuelElement
    {
        type            zeroGradient;
    }
    inletFuelElement
    {
        type            zeroGradient;
    }
    defaultFaces
    {
        type            zeroGradient;
    }
    baffle_master
    {
        type            zeroGradient;
    }
    baffle_slave
    {
        type            zeroGradient;
    }
}


// ************************************************************************* //
