/*--------------------------------*- C++ -*----------------------------------*\
| =========                 |                                                 |
| \\      /  F ield         | OpenFOAM: The Open Source CFD Toolbox           |
|  \\    /   O peration     | Version:  2212                                  |
|   \\  /    A nd           | Website:  www.openfoam.com                      |
|    \\/     M anipulation  |                                                 |
\*---------------------------------------------------------------------------*/
FoamFile
{
    version     2.0;
    format      ascii;
    arch        "LSB;label=32;scalar=64";
    class       volScalarField;
    location    "58/fluidRegion";
    object      p;
}
// * * * * * * * * * * * * * * * * * * * * * * * * * * * * * * * * * * * * * //

dimensions      [1 -1 -2 0 0 0 0];

internalField   nonuniform List<scalar> 
350
(
3.44743e+06
3.44772e+06
3.44802e+06
3.44831e+06
3.44861e+06
3.4489e+06
3.4492e+06
3.44949e+06
3.44979e+06
3.45009e+06
3.45038e+06
3.45068e+06
3.45097e+06
3.45127e+06
3.45157e+06
3.45186e+06
3.45216e+06
3.45245e+06
3.45275e+06
3.45304e+06
3.45334e+06
3.45364e+06
3.45393e+06
3.45423e+06
3.45451e+06
3.44743e+06
3.44772e+06
3.44802e+06
3.44831e+06
3.44861e+06
3.4489e+06
3.4492e+06
3.44949e+06
3.44979e+06
3.45009e+06
3.45038e+06
3.45068e+06
3.45097e+06
3.45127e+06
3.45157e+06
3.45186e+06
3.45216e+06
3.45245e+06
3.45275e+06
3.45304e+06
3.45334e+06
3.45364e+06
3.45393e+06
3.45423e+06
3.45451e+06
3.47385e+06
3.52568e+06
3.5769e+06
3.6272e+06
3.67628e+06
3.72386e+06
3.76967e+06
3.81347e+06
3.85506e+06
3.89426e+06
3.9309e+06
3.96484e+06
3.99597e+06
4.02422e+06
4.04954e+06
4.07192e+06
4.09141e+06
4.1081e+06
4.12214e+06
4.13369e+06
4.14295e+06
4.15015e+06
4.15553e+06
4.15938e+06
4.16206e+06
3.47385e+06
3.52568e+06
3.5769e+06
3.6272e+06
3.67628e+06
3.72386e+06
3.76967e+06
3.81347e+06
3.85506e+06
3.89426e+06
3.9309e+06
3.96484e+06
3.99597e+06
4.02422e+06
4.04954e+06
4.07192e+06
4.09141e+06
4.1081e+06
4.12214e+06
4.13369e+06
4.14295e+06
4.15015e+06
4.15553e+06
4.15938e+06
4.16206e+06
3.47385e+06
3.52568e+06
3.5769e+06
3.6272e+06
3.67628e+06
3.72386e+06
3.76967e+06
3.81347e+06
3.85506e+06
3.89426e+06
3.9309e+06
3.96484e+06
3.99597e+06
4.02422e+06
4.04954e+06
4.07192e+06
4.09141e+06
4.1081e+06
4.12214e+06
4.13369e+06
4.14295e+06
4.15015e+06
4.15553e+06
4.15938e+06
4.16206e+06
3.47385e+06
3.52568e+06
3.5769e+06
3.6272e+06
3.67628e+06
3.72386e+06
3.76967e+06
3.81347e+06
3.85506e+06
3.89426e+06
3.9309e+06
3.96484e+06
3.99597e+06
4.02422e+06
4.04954e+06
4.07192e+06
4.09141e+06
4.1081e+06
4.12214e+06
4.13369e+06
4.14295e+06
4.15015e+06
4.15553e+06
4.15938e+06
4.16206e+06
3.47385e+06
3.52568e+06
3.5769e+06
3.6272e+06
3.67628e+06
3.72386e+06
3.76967e+06
3.81347e+06
3.85506e+06
3.89426e+06
3.9309e+06
3.96484e+06
3.99597e+06
4.02422e+06
4.04954e+06
4.07192e+06
4.09141e+06
4.1081e+06
4.12214e+06
4.13369e+06
4.14295e+06
4.15015e+06
4.15553e+06
4.15938e+06
4.16206e+06
3.47385e+06
3.52568e+06
3.5769e+06
3.6272e+06
3.67628e+06
3.72386e+06
3.76967e+06
3.81347e+06
3.85506e+06
3.89426e+06
3.9309e+06
3.96484e+06
3.99597e+06
4.02422e+06
4.04954e+06
4.07192e+06
4.09141e+06
4.1081e+06
4.12214e+06
4.13369e+06
4.14295e+06
4.15015e+06
4.15553e+06
4.15938e+06
4.16206e+06
3.47385e+06
3.52568e+06
3.5769e+06
3.6272e+06
3.67628e+06
3.72386e+06
3.76967e+06
3.81347e+06
3.85506e+06
3.89426e+06
3.9309e+06
3.96484e+06
3.99597e+06
4.02422e+06
4.04954e+06
4.07192e+06
4.09141e+06
4.1081e+06
4.12214e+06
4.13369e+06
4.14295e+06
4.15015e+06
4.15553e+06
4.15938e+06
4.16206e+06
3.47385e+06
3.52568e+06
3.5769e+06
3.6272e+06
3.67628e+06
3.72386e+06
3.76967e+06
3.81347e+06
3.85506e+06
3.89426e+06
3.9309e+06
3.96484e+06
3.99597e+06
4.02422e+06
4.04954e+06
4.07192e+06
4.09141e+06
4.1081e+06
4.12214e+06
4.13369e+06
4.14295e+06
4.15015e+06
4.15553e+06
4.15938e+06
4.16206e+06
3.47385e+06
3.52568e+06
3.5769e+06
3.6272e+06
3.67628e+06
3.72386e+06
3.76967e+06
3.81347e+06
3.85506e+06
3.89426e+06
3.9309e+06
3.96484e+06
3.99597e+06
4.02422e+06
4.04954e+06
4.07192e+06
4.09141e+06
4.1081e+06
4.12214e+06
4.13369e+06
4.14295e+06
4.15015e+06
4.15553e+06
4.15938e+06
4.16206e+06
3.47385e+06
3.52568e+06
3.5769e+06
3.6272e+06
3.67628e+06
3.72386e+06
3.76967e+06
3.81347e+06
3.85506e+06
3.89426e+06
3.9309e+06
3.96484e+06
3.99597e+06
4.02422e+06
4.04954e+06
4.07192e+06
4.09141e+06
4.1081e+06
4.12214e+06
4.13369e+06
4.14295e+06
4.15015e+06
4.15553e+06
4.15938e+06
4.16206e+06
3.47385e+06
3.52568e+06
3.5769e+06
3.6272e+06
3.67628e+06
3.72386e+06
3.76967e+06
3.81347e+06
3.85506e+06
3.89426e+06
3.9309e+06
3.96484e+06
3.99597e+06
4.02422e+06
4.04954e+06
4.07192e+06
4.09141e+06
4.1081e+06
4.12214e+06
4.13369e+06
4.14295e+06
4.15015e+06
4.15553e+06
4.15938e+06
4.16206e+06
3.47385e+06
3.52568e+06
3.5769e+06
3.6272e+06
3.67628e+06
3.72386e+06
3.76967e+06
3.81347e+06
3.85506e+06
3.89426e+06
3.9309e+06
3.96484e+06
3.99597e+06
4.02422e+06
4.04954e+06
4.07192e+06
4.09141e+06
4.1081e+06
4.12214e+06
4.13369e+06
4.14295e+06
4.15015e+06
4.15553e+06
4.15938e+06
4.16206e+06
)
;

boundaryField
{
    outletCentralUnloaded
    {
        type            fixedValue;
        value           uniform 3.44728e+06;
    }
    inletCentralUnloaded
    {
        type            zeroGradient;
    }
    outletFuelElement
    {
        type            fixedValue;
        value           uniform 3.44728e+06;
    }
    inletFuelElement
    {
        type            zeroGradient;
    }
    defaultFaces
    {
        type            zeroGradient;
    }
    baffle_master
    {
        type            zeroGradient;
    }
    baffle_slave
    {
        type            zeroGradient;
    }
}


// ************************************************************************* //
