/*--------------------------------*- C++ -*----------------------------------*\
| =========                 |                                                 |
| \\      /  F ield         | OpenFOAM: The Open Source CFD Toolbox           |
|  \\    /   O peration     | Version:  2212                                  |
|   \\  /    A nd           | Website:  www.openfoam.com                      |
|    \\/     M anipulation  |                                                 |
\*---------------------------------------------------------------------------*/
FoamFile
{
    version     2.0;
    format      ascii;
    arch        "LSB;label=32;scalar=64";
    class       volScalarField;
    location    "58/fluidRegion";
    object      T.cladAvForNeutronics;
}
// * * * * * * * * * * * * * * * * * * * * * * * * * * * * * * * * * * * * * //

dimensions      [0 0 0 1 0 0 0];

internalField   nonuniform List<scalar> 
350
(
0
0
0
0
0
0
0
0
0
0
0
0
0
0
0
0
0
0
0
0
0
0
0
0
0
0
0
0
0
0
0
0
0
0
0
0
0
0
0
0
0
0
0
0
0
0
0
0
0
0
1845.4
1883.51
1908.68
1920.9
1920.3
1907.15
1881.88
1845.04
1797.36
1739.69
1672.98
1598.35
1517.03
1430.34
1339.72
1246.65
1152.49
1058.33
964.559
870.351
772.791
665.586
537.988
377.895
186.919
1873.85
1912.57
1938.13
1950.51
1949.84
1936.4
1910.61
1873.06
1824.47
1765.7
1697.73
1621.7
1538.83
1450.48
1358.11
1263.22
1167.25
1071.31
975.865
880.126
781.178
672.641
543.554
381.512
188.142
1840.78
1878.82
1903.94
1916.16
1915.58
1902.5
1877.32
1840.62
1793.1
1735.6
1669.11
1594.72
1513.64
1427.22
1336.89
1244.1
1150.23
1056.35
962.836
868.867
771.527
664.533
537.169
377.367
186.733
1867.45
1906.02
1931.47
1943.8
1943.13
1929.74
1904.06
1866.66
1818.27
1759.74
1692.06
1616.33
1533.81
1445.84
1353.87
1259.4
1163.84
1068.31
973.251
877.865
779.237
671.008
542.264
380.673
187.859
1867.45
1906.02
1931.47
1943.8
1943.13
1929.74
1904.06
1866.66
1818.27
1759.74
1692.06
1616.33
1533.81
1445.84
1353.87
1259.4
1163.84
1068.31
973.251
877.865
779.237
671.008
542.264
380.672
187.859
1840.79
1878.82
1903.94
1916.16
1915.59
1902.5
1877.32
1840.62
1793.1
1735.61
1669.11
1594.72
1513.64
1427.22
1336.89
1244.1
1150.23
1056.35
962.837
868.868
771.528
664.534
537.17
377.368
186.733
1873.85
1912.57
1938.13
1950.51
1949.84
1936.4
1910.61
1873.06
1824.47
1765.7
1697.73
1621.7
1538.83
1450.48
1358.11
1263.22
1167.25
1071.31
975.865
880.126
781.178
672.642
543.555
381.512
188.142
1845.4
1883.51
1908.68
1920.9
1920.3
1907.15
1881.88
1845.04
1797.36
1739.69
1672.98
1598.35
1517.03
1430.34
1339.72
1246.65
1152.49
1058.33
964.559
870.351
772.791
665.586
537.988
377.895
186.919
1867.45
1906.02
1931.47
1943.8
1943.13
1929.74
1904.06
1866.66
1818.27
1759.74
1692.06
1616.33
1533.81
1445.84
1353.87
1259.4
1163.84
1068.31
973.251
877.865
779.237
671.008
542.264
380.673
187.859
1840.78
1878.82
1903.94
1916.16
1915.58
1902.5
1877.32
1840.62
1793.1
1735.6
1669.11
1594.72
1513.64
1427.22
1336.89
1244.1
1150.23
1056.35
962.836
868.867
771.527
664.533
537.169
377.367
186.733
1840.79
1878.82
1903.94
1916.16
1915.59
1902.5
1877.32
1840.62
1793.1
1735.61
1669.11
1594.72
1513.64
1427.22
1336.89
1244.1
1150.23
1056.35
962.837
868.868
771.528
664.534
537.169
377.368
186.733
1867.45
1906.02
1931.47
1943.8
1943.13
1929.74
1904.06
1866.66
1818.27
1759.74
1692.05
1616.33
1533.81
1445.84
1353.87
1259.4
1163.84
1068.31
973.251
877.865
779.237
671.008
542.264
380.672
187.859
)
;

boundaryField
{
    outletCentralUnloaded
    {
        type            zeroGradient;
    }
    inletCentralUnloaded
    {
        type            zeroGradient;
    }
    outletFuelElement
    {
        type            zeroGradient;
    }
    inletFuelElement
    {
        type            zeroGradient;
    }
    defaultFaces
    {
        type            zeroGradient;
    }
    baffle_master
    {
        type            zeroGradient;
    }
    baffle_slave
    {
        type            zeroGradient;
    }
}


// ************************************************************************* //
