/*--------------------------------*- C++ -*----------------------------------*\
| =========                 |                                                 |
| \\      /  F ield         | OpenFOAM: The Open Source CFD Toolbox           |
|  \\    /   O peration     | Version:  2212                                  |
|   \\  /    A nd           | Website:  www.openfoam.com                      |
|    \\/     M anipulation  |                                                 |
\*---------------------------------------------------------------------------*/
FoamFile
{
    version     2.0;
    format      ascii;
    arch        "LSB;label=32;scalar=64";
    class       volScalarField;
    location    "58/fluidRegion";
    object      Tci.nuclearFuelPin;
}
// * * * * * * * * * * * * * * * * * * * * * * * * * * * * * * * * * * * * * //

dimensions      [0 0 0 1 0 0 0];

internalField   nonuniform List<scalar> 
350
(
0
0
0
0
0
0
0
0
0
0
0
0
0
0
0
0
0
0
0
0
0
0
0
0
0
0
0
0
0
0
0
0
0
0
0
0
0
0
0
0
0
0
0
0
0
0
0
0
0
0
1851.49
1901.73
1938.74
1962.33
1972.44
1969.18
1952.82
1923.78
1882.66
1830.18
1767.26
1694.92
1614.37
1526.91
1434
1337.15
1237.79
1137.08
1035.52
932.399
824.95
707.032
568.067
396.134
193.034
1880
1931
1968.53
1992.41
2002.58
1999.14
1982.37
1952.7
1910.74
1857.23
1793.09
1719.37
1637.28
1548.16
1453.47
1354.76
1253.53
1150.96
1047.64
942.886
833.934
714.563
573.979
399.961
194.326
1846.86
1897
1933.95
1957.51
1967.63
1964.42
1948.14
1919.21
1878.23
1825.94
1763.22
1691.11
1610.8
1523.62
1431
1334.44
1235.38
1134.96
1033.67
930.803
823.59
705.904
567.194
395.574
192.836
1873.59
1924.4
1961.79
1985.59
1995.73
1992.32
1975.63
1946.1
1904.31
1851.03
1787.16
1713.75
1632.01
1543.26
1448.98
1350.7
1249.89
1147.76
1044.84
940.461
831.856
712.82
572.609
399.073
194.028
1873.59
1924.4
1961.79
1985.59
1995.73
1992.32
1975.63
1946.1
1904.31
1851.03
1787.16
1713.75
1632.01
1543.26
1448.98
1350.7
1249.89
1147.76
1044.84
940.461
831.856
712.82
572.609
399.073
194.028
1846.86
1897
1933.95
1957.51
1967.63
1964.42
1948.14
1919.21
1878.23
1825.94
1763.22
1691.11
1610.81
1523.62
1431
1334.44
1235.38
1134.96
1033.67
930.803
823.591
705.905
567.195
395.574
192.837
1880
1931
1968.53
1992.41
2002.58
1999.14
1982.37
1952.7
1910.74
1857.23
1793.09
1719.37
1637.28
1548.16
1453.47
1354.76
1253.53
1150.96
1047.64
942.886
833.934
714.563
573.979
399.961
194.326
1851.49
1901.73
1938.74
1962.33
1972.44
1969.18
1952.82
1923.78
1882.66
1830.18
1767.26
1694.92
1614.37
1526.91
1434
1337.15
1237.79
1137.08
1035.52
932.399
824.95
707.033
568.068
396.134
193.034
1873.59
1924.4
1961.79
1985.59
1995.73
1992.32
1975.63
1946.1
1904.31
1851.03
1787.16
1713.75
1632.01
1543.26
1448.98
1350.7
1249.89
1147.76
1044.84
940.461
831.856
712.82
572.609
399.073
194.028
1846.86
1897
1933.95
1957.51
1967.63
1964.42
1948.14
1919.21
1878.23
1825.94
1763.22
1691.11
1610.8
1523.62
1431
1334.44
1235.38
1134.96
1033.67
930.803
823.59
705.904
567.194
395.574
192.836
1846.86
1897
1933.95
1957.51
1967.63
1964.42
1948.14
1919.21
1878.23
1825.94
1763.22
1691.11
1610.81
1523.62
1431
1334.44
1235.38
1134.96
1033.67
930.803
823.591
705.905
567.195
395.574
192.837
1873.59
1924.4
1961.79
1985.59
1995.73
1992.32
1975.63
1946.1
1904.31
1851.03
1787.16
1713.75
1632.01
1543.26
1448.98
1350.7
1249.89
1147.76
1044.84
940.461
831.856
712.82
572.609
399.073
194.028
)
;

boundaryField
{
    outletCentralUnloaded
    {
        type            zeroGradient;
    }
    inletCentralUnloaded
    {
        type            zeroGradient;
    }
    outletFuelElement
    {
        type            zeroGradient;
    }
    inletFuelElement
    {
        type            zeroGradient;
    }
    defaultFaces
    {
        type            zeroGradient;
    }
    baffle_master
    {
        type            zeroGradient;
    }
    baffle_slave
    {
        type            zeroGradient;
    }
}


// ************************************************************************* //
