/*--------------------------------*- C++ -*----------------------------------*\
| =========                 |                                                 |
| \\      /  F ield         | OpenFOAM: The Open Source CFD Toolbox           |
|  \\    /   O peration     | Version:  2212                                  |
|   \\  /    A nd           | Website:  www.openfoam.com                      |
|    \\/     M anipulation  |                                                 |
\*---------------------------------------------------------------------------*/
FoamFile
{
    version     2.0;
    format      ascii;
    arch        "LSB;label=32;scalar=64";
    class       volScalarField;
    location    "58/fluidRegion";
    object      Tfi.nuclearFuelPin;
}
// * * * * * * * * * * * * * * * * * * * * * * * * * * * * * * * * * * * * * //

dimensions      [0 0 0 1 0 0 0];

internalField   nonuniform List<scalar> 
350
(
0
0
0
0
0
0
0
0
0
0
0
0
0
0
0
0
0
0
0
0
0
0
0
0
0
0
0
0
0
0
0
0
0
0
0
0
0
0
0
0
0
0
0
0
0
0
0
0
0
0
2422.12
3610.56
4758.78
5849.06
6864.53
7789.45
8609.43
9311.73
9885.39
10321.5
10613.2
10755.9
10747.5
10588.2
10280.4
9829.23
9241.58
8526.32
7693.62
6754.4
5718.98
4595.93
3390.45
2107.59
766.771
2457.13
3659.36
4820.84
5923.63
6950.67
7886.04
8715.2
9425.25
10005.1
10445.8
10740.3
10884.1
10875
10713.2
10401.2
9944.11
9348.98
8624.83
7782
6831.57
5784.02
4648
3428.69
2131.01
774.632
2416.45
3602.72
4748.85
5837.15
6850.8
7774.07
8592.61
9293.68
9866.37
10301.7
10593
10735.6
10727.3
10568.3
10261.3
9811.03
9224.56
8510.71
7679.62
6742.18
5708.69
4587.71
3384.43
2103.91
765.528
2449.22
3648.26
4806.67
5906.57
6930.94
7863.88
8690.92
9399.17
9977.6
10417.2
10711.1
10854.6
10845.7
10684.4
10373.4
9917.66
9324.24
8602.14
7761.64
6813.79
5769.03
4636
3419.88
2125.61
772.821
2449.22
3648.26
4806.67
5906.57
6930.94
7863.88
8690.92
9399.17
9977.6
10417.2
10711.1
10854.6
10845.7
10684.4
10373.4
9917.66
9324.24
8602.14
7761.64
6813.79
5769.03
4636.01
3419.88
2125.61
772.821
2416.45
3602.72
4748.85
5837.16
6850.8
7774.07
8592.61
9293.69
9866.38
10301.7
10593
10735.6
10727.3
10568.3
10261.3
9811.03
9224.56
8510.71
7679.62
6742.18
5708.69
4587.71
3384.43
2103.91
765.528
2457.13
3659.36
4820.84
5923.63
6950.67
7886.04
8715.2
9425.25
10005.1
10445.8
10740.3
10884.1
10875
10713.2
10401.2
9944.11
9348.98
8624.83
7782
6831.57
5784.02
4648
3428.69
2131.01
774.632
2422.12
3610.56
4758.78
5849.06
6864.53
7789.45
8609.43
9311.72
9885.39
10321.5
10613.2
10755.9
10747.5
10588.2
10280.4
9829.23
9241.58
8526.32
7693.62
6754.4
5718.98
4595.93
3390.45
2107.59
766.771
2449.22
3648.26
4806.67
5906.57
6930.94
7863.88
8690.92
9399.17
9977.6
10417.2
10711.1
10854.6
10845.7
10684.4
10373.4
9917.66
9324.24
8602.14
7761.64
6813.79
5769.03
4636.01
3419.88
2125.61
772.821
2416.45
3602.72
4748.85
5837.16
6850.8
7774.07
8592.61
9293.68
9866.37
10301.7
10593
10735.6
10727.3
10568.3
10261.3
9811.03
9224.56
8510.71
7679.62
6742.18
5708.69
4587.71
3384.43
2103.91
765.528
2416.45
3602.72
4748.85
5837.16
6850.8
7774.07
8592.61
9293.69
9866.38
10301.7
10593
10735.6
10727.3
10568.3
10261.3
9811.03
9224.56
8510.71
7679.62
6742.18
5708.69
4587.71
3384.43
2103.91
765.528
2449.22
3648.26
4806.67
5906.57
6930.94
7863.88
8690.92
9399.17
9977.6
10417.2
10711.1
10854.6
10845.7
10684.4
10373.4
9917.65
9324.24
8602.14
7761.64
6813.79
5769.03
4636
3419.88
2125.61
772.821
)
;

boundaryField
{
    outletCentralUnloaded
    {
        type            zeroGradient;
    }
    inletCentralUnloaded
    {
        type            zeroGradient;
    }
    outletFuelElement
    {
        type            zeroGradient;
    }
    inletFuelElement
    {
        type            zeroGradient;
    }
    defaultFaces
    {
        type            zeroGradient;
    }
    baffle_master
    {
        type            zeroGradient;
    }
    baffle_slave
    {
        type            zeroGradient;
    }
}


// ************************************************************************* //
