/*--------------------------------*- C++ -*----------------------------------*\
| =========                 |                                                 |
| \\      /  F ield         | OpenFOAM: The Open Source CFD Toolbox           |
|  \\    /   O peration     | Version:  2212                                  |
|   \\  /    A nd           | Website:  www.openfoam.com                      |
|    \\/     M anipulation  |                                                 |
\*---------------------------------------------------------------------------*/
FoamFile
{
    version     2.0;
    format      ascii;
    arch        "LSB;label=32;scalar=64";
    class       volScalarField;
    location    "58/fluidRegion";
    object      Tfo.nuclearFuelPin;
}
// * * * * * * * * * * * * * * * * * * * * * * * * * * * * * * * * * * * * * //

dimensions      [0 0 0 1 0 0 0];

internalField   nonuniform List<scalar> 
350
(
0
0
0
0
0
0
0
0
0
0
0
0
0
0
0
0
0
0
0
0
0
0
0
0
0
0
0
0
0
0
0
0
0
0
0
0
0
0
0
0
0
0
0
0
0
0
0
0
0
0
2021.58
2410.82
2778.8
3120.09
3429.64
3702.83
3935.56
4124.34
4266.32
4359.36
4402.05
4393.77
4334.7
4225.83
4068.93
3866.53
3621.73
3337.97
3018.64
2666.49
2282.64
1865.34
1408.72
905.89
363.911
2052.03
2445.91
2818.2
3163.42
3476.46
3752.64
3987.82
4178.47
4321.71
4415.37
4458.06
4449.13
4388.77
4277.98
4118.58
3913.11
3664.77
3377.06
3053.47
2696.83
2308.32
1886.14
1424.26
915.554
367.16
2016.64
2405.16
2772.47
3113.16
3422.17
3694.9
3927.26
4115.76
4257.55
4350.5
4393.2
4385.04
4326.18
4217.61
4061.12
3859.2
3614.96
3331.83
3013.17
2661.73
2278.62
1862.1
1406.31
904.4
363.402
2045.17
2437.97
2809.25
3153.55
3465.77
3741.25
3975.85
4166.06
4309
4402.51
4445.18
4436.4
4376.33
4265.97
4107.14
3902.38
3654.85
3368.05
3045.44
2689.84
2302.4
1881.34
1420.67
913.323
366.411
2045.17
2437.97
2809.25
3153.55
3465.77
3741.25
3975.85
4166.06
4309
4402.51
4445.18
4436.4
4376.33
4265.97
4107.14
3902.38
3654.85
3368.05
3045.44
2689.84
2302.4
1881.35
1420.67
913.322
366.411
2016.64
2405.16
2772.47
3113.16
3422.17
3694.9
3927.26
4115.76
4257.56
4350.5
4393.2
4385.04
4326.18
4217.61
4061.12
3859.2
3614.96
3331.83
3013.17
2661.73
2278.62
1862.1
1406.31
904.4
363.402
2052.03
2445.91
2818.2
3163.42
3476.46
3752.64
3987.82
4178.46
4321.71
4415.37
4458.06
4449.13
4388.77
4277.98
4118.58
3913.11
3664.77
3377.06
3053.47
2696.83
2308.32
1886.14
1424.26
915.554
367.16
2021.58
2410.82
2778.8
3120.09
3429.64
3702.83
3935.56
4124.34
4266.32
4359.36
4402.05
4393.77
4334.7
4225.83
4068.93
3866.53
3621.73
3337.97
3018.64
2666.49
2282.64
1865.34
1408.72
905.89
363.911
2045.17
2437.97
2809.25
3153.55
3465.77
3741.25
3975.85
4166.06
4309
4402.51
4445.18
4436.4
4376.33
4265.97
4107.14
3902.38
3654.85
3368.05
3045.44
2689.84
2302.4
1881.35
1420.67
913.323
366.411
2016.64
2405.16
2772.47
3113.16
3422.17
3694.9
3927.26
4115.76
4257.55
4350.5
4393.2
4385.04
4326.18
4217.61
4061.12
3859.2
3614.96
3331.83
3013.17
2661.73
2278.62
1862.1
1406.31
904.399
363.402
2016.64
2405.16
2772.47
3113.16
3422.17
3694.9
3927.26
4115.76
4257.56
4350.5
4393.2
4385.04
4326.18
4217.61
4061.12
3859.2
3614.96
3331.83
3013.17
2661.73
2278.62
1862.1
1406.31
904.4
363.402
2045.17
2437.97
2809.25
3153.55
3465.77
3741.25
3975.85
4166.06
4309
4402.51
4445.18
4436.4
4376.33
4265.97
4107.14
3902.38
3654.85
3368.05
3045.44
2689.84
2302.4
1881.34
1420.67
913.322
366.411
)
;

boundaryField
{
    outletCentralUnloaded
    {
        type            zeroGradient;
    }
    inletCentralUnloaded
    {
        type            zeroGradient;
    }
    outletFuelElement
    {
        type            zeroGradient;
    }
    inletFuelElement
    {
        type            zeroGradient;
    }
    defaultFaces
    {
        type            zeroGradient;
    }
    baffle_master
    {
        type            zeroGradient;
    }
    baffle_slave
    {
        type            zeroGradient;
    }
}


// ************************************************************************* //
