/*--------------------------------*- C++ -*----------------------------------*\
| =========                 |                                                 |
| \\      /  F ield         | OpenFOAM: The Open Source CFD Toolbox           |
|  \\    /   O peration     | Version:  2212                                  |
|   \\  /    A nd           | Website:  www.openfoam.com                      |
|    \\/     M anipulation  |                                                 |
\*---------------------------------------------------------------------------*/
FoamFile
{
    version     2.0;
    format      ascii;
    arch        "LSB;label=32;scalar=64";
    class       volScalarField;
    location    "64/fluidRegion";
    object      alphat;
}
// * * * * * * * * * * * * * * * * * * * * * * * * * * * * * * * * * * * * * //

dimensions      [1 -1 -1 0 0 0 0];

internalField   nonuniform List<scalar> 
350
(
0.00258559
0.00258554
0.00258554
0.00258557
0.00258561
0.00258563
0.00258564
0.00258564
0.00258565
0.00258568
0.00258574
0.00258582
0.00258591
0.00258601
0.00258614
0.00258631
0.00258659
0.00258702
0.00258769
0.00258873
0.00259033
0.00259277
0.00259652
0.00260225
0.00261102
0.00258559
0.00258554
0.00258554
0.00258557
0.00258561
0.00258563
0.00258564
0.00258564
0.00258565
0.00258568
0.00258574
0.00258582
0.00258591
0.00258601
0.00258614
0.00258631
0.00258659
0.00258702
0.00258769
0.00258873
0.00259033
0.00259277
0.00259652
0.00260225
0.00261101
0.00089587
0.000884266
0.000872855
0.000861284
0.000849446
0.000837236
0.000824549
0.000811287
0.000797363
0.000782715
0.00076731
0.000751154
0.000734291
0.000716791
0.000698735
0.000680217
0.000661413
0.00064278
0.000625497
0.000612398
0.00060988
0.000631328
0.000699561
0.000832304
0.00100221
0.000888013
0.000876422
0.000865047
0.000853518
0.000841731
0.00082958
0.000816958
0.000803767
0.00078992
0.000775352
0.000760033
0.000743974
0.000727227
0.000709875
0.00069201
0.000673737
0.00065523
0.000636932
0.00062
0.000607243
0.000605039
0.000626814
0.00069561
0.000829604
0.00100147
0.000897124
0.000885507
0.000874086
0.000862503
0.000850652
0.000838428
0.000825726
0.000812448
0.000798507
0.000783841
0.000768417
0.00075224
0.000735353
0.000717823
0.000699729
0.000681165
0.000662308
0.000643614
0.000626266
0.000613102
0.000610521
0.000631906
0.000700055
0.000832639
0.00100233
0.000889817
0.000878227
0.000866847
0.000855311
0.000843515
0.000831352
0.000818717
0.000805511
0.000791647
0.000777061
0.000761722
0.00074564
0.000728866
0.000711479
0.00069357
0.00067524
0.000656665
0.000638289
0.000621276
0.00060844
0.000606164
0.000627864
0.000696532
0.000830237
0.00100164
0.000889817
0.000878227
0.000866847
0.000855311
0.000843515
0.000831352
0.000818717
0.000805511
0.000791647
0.000777061
0.000761722
0.00074564
0.000728866
0.00071148
0.00069357
0.00067524
0.000656665
0.00063829
0.000621277
0.000608441
0.000606164
0.000627865
0.000696532
0.000830236
0.00100164
0.000897124
0.000885506
0.000874086
0.000862503
0.000850652
0.000838428
0.000825726
0.000812447
0.000798507
0.000783841
0.000768417
0.00075224
0.000735353
0.000717823
0.00069973
0.000681166
0.000662309
0.000643616
0.000626268
0.000613105
0.000610524
0.00063191
0.000700059
0.000832643
0.00100233
0.000888012
0.000876422
0.000865047
0.000853518
0.000841731
0.00082958
0.000816958
0.000803767
0.00078992
0.000775352
0.000760032
0.000743973
0.000727227
0.000709875
0.00069201
0.000673737
0.00065523
0.000636932
0.000620001
0.000607244
0.00060504
0.000626815
0.000695611
0.000829604
0.00100146
0.000895871
0.000884266
0.000872855
0.000861284
0.000849446
0.000837236
0.000824549
0.000811287
0.000797363
0.000782715
0.00076731
0.000751154
0.000734291
0.000716791
0.000698735
0.000680217
0.000661414
0.000642781
0.000625499
0.000612401
0.000609885
0.000631335
0.000699572
0.000832315
0.00100222
0.000889817
0.000878227
0.000866847
0.000855311
0.000843515
0.000831352
0.000818717
0.000805511
0.000791647
0.000777061
0.000761722
0.00074564
0.000728866
0.000711479
0.00069357
0.00067524
0.000656665
0.00063829
0.000621277
0.000608441
0.000606165
0.000627866
0.000696534
0.000830241
0.00100165
0.000897125
0.000885507
0.000874086
0.000862503
0.000850652
0.000838428
0.000825726
0.000812448
0.000798507
0.000783841
0.000768417
0.00075224
0.000735352
0.000717823
0.000699729
0.000681165
0.000662307
0.000643612
0.000626262
0.000613096
0.000610511
0.000631892
0.000700035
0.000832617
0.00100231
0.000897124
0.000885507
0.000874086
0.000862503
0.000850652
0.000838428
0.000825726
0.000812448
0.000798508
0.000783842
0.000768417
0.000752241
0.000735353
0.000717824
0.000699731
0.000681167
0.000662311
0.000643617
0.00062627
0.000613107
0.000610527
0.000631912
0.00070006
0.000832641
0.00100232
0.000889817
0.000878227
0.000866847
0.000855311
0.000843515
0.000831352
0.000818717
0.000805511
0.000791647
0.000777061
0.000761722
0.00074564
0.000728867
0.00071148
0.000693571
0.000675241
0.000656666
0.000638292
0.00062128
0.000608446
0.000606172
0.000627876
0.000696548
0.000830256
0.00100166
)
;

boundaryField
{
    outletCentralUnloaded
    {
        type            zeroGradient;
    }
    inletCentralUnloaded
    {
        type            zeroGradient;
    }
    outletFuelElement
    {
        type            zeroGradient;
    }
    inletFuelElement
    {
        type            zeroGradient;
    }
    defaultFaces
    {
        type            zeroGradient;
    }
    baffle_master
    {
        type            calculated;
        value           nonuniform List<scalar> 
150
(
0.00258559
0.00258559
0.00258559
0.00258554
0.00258554
0.00258554
0.00258554
0.00258554
0.00258554
0.00258557
0.00258557
0.00258557
0.00258561
0.00258561
0.00258561
0.00258563
0.00258563
0.00258563
0.00258564
0.00258564
0.00258564
0.00258564
0.00258564
0.00258564
0.00258565
0.00258565
0.00258565
0.00258568
0.00258568
0.00258568
0.00258574
0.00258574
0.00258574
0.00258582
0.00258582
0.00258582
0.00258591
0.00258591
0.00258591
0.00258601
0.00258601
0.00258601
0.00258614
0.00258614
0.00258614
0.00258631
0.00258631
0.00258631
0.00258659
0.00258659
0.00258659
0.00258702
0.00258702
0.00258702
0.00258769
0.00258769
0.00258769
0.00258873
0.00258873
0.00258873
0.00259033
0.00259033
0.00259033
0.00259277
0.00259277
0.00259277
0.00259652
0.00259652
0.00259652
0.00260225
0.00260225
0.00260225
0.00261102
0.00261102
0.00261102
0.00258559
0.00258559
0.00258559
0.00258554
0.00258554
0.00258554
0.00258554
0.00258554
0.00258554
0.00258557
0.00258557
0.00258557
0.00258561
0.00258561
0.00258561
0.00258563
0.00258563
0.00258563
0.00258564
0.00258564
0.00258564
0.00258564
0.00258564
0.00258564
0.00258565
0.00258565
0.00258565
0.00258568
0.00258568
0.00258568
0.00258574
0.00258574
0.00258574
0.00258582
0.00258582
0.00258582
0.00258591
0.00258591
0.00258591
0.00258601
0.00258601
0.00258601
0.00258614
0.00258614
0.00258614
0.00258631
0.00258631
0.00258631
0.00258659
0.00258659
0.00258659
0.00258702
0.00258702
0.00258702
0.00258769
0.00258769
0.00258769
0.00258873
0.00258873
0.00258873
0.00259033
0.00259033
0.00259033
0.00259277
0.00259277
0.00259277
0.00259652
0.00259652
0.00259652
0.00260225
0.00260225
0.00260225
0.00261101
0.00261101
0.00261101
)
;
    }
    baffle_slave
    {
        type            calculated;
        value           nonuniform List<scalar> 
150
(
0.000888013
0.000889817
0.000889817
0.000876422
0.000878227
0.000878227
0.000865047
0.000866847
0.000866847
0.000853518
0.000855311
0.000855311
0.000841731
0.000843515
0.000843515
0.00082958
0.000831352
0.000831352
0.000816958
0.000818717
0.000818717
0.000803767
0.000805511
0.000805511
0.00078992
0.000791647
0.000791647
0.000775352
0.000777061
0.000777061
0.000760033
0.000761722
0.000761722
0.000743974
0.00074564
0.00074564
0.000727227
0.000728866
0.000728867
0.000709875
0.000711479
0.00071148
0.00069201
0.00069357
0.000693571
0.000673737
0.00067524
0.000675241
0.00065523
0.000656665
0.000656666
0.000636932
0.000638289
0.000638292
0.00062
0.000621276
0.00062128
0.000607243
0.00060844
0.000608446
0.000605039
0.000606164
0.000606172
0.000626814
0.000627864
0.000627876
0.00069561
0.000696532
0.000696548
0.000829604
0.000830237
0.000830256
0.00100147
0.00100164
0.00100166
0.000889817
0.000888012
0.000889817
0.000878227
0.000876422
0.000878227
0.000866847
0.000865047
0.000866847
0.000855311
0.000853518
0.000855311
0.000843515
0.000841731
0.000843515
0.000831352
0.00082958
0.000831352
0.000818717
0.000816958
0.000818717
0.000805511
0.000803767
0.000805511
0.000791647
0.00078992
0.000791647
0.000777061
0.000775352
0.000777061
0.000761722
0.000760032
0.000761722
0.00074564
0.000743973
0.00074564
0.000728866
0.000727227
0.000728866
0.00071148
0.000709875
0.000711479
0.00069357
0.00069201
0.00069357
0.00067524
0.000673737
0.00067524
0.000656665
0.00065523
0.000656665
0.00063829
0.000636932
0.00063829
0.000621277
0.000620001
0.000621277
0.000608441
0.000607244
0.000608441
0.000606164
0.00060504
0.000606165
0.000627865
0.000626815
0.000627866
0.000696532
0.000695611
0.000696534
0.000830236
0.000829604
0.000830241
0.00100164
0.00100146
0.00100165
)
;
    }
}


// ************************************************************************* //
