/*--------------------------------*- C++ -*----------------------------------*\
| =========                 |                                                 |
| \\      /  F ield         | OpenFOAM: The Open Source CFD Toolbox           |
|  \\    /   O peration     | Version:  2212                                  |
|   \\  /    A nd           | Website:  www.openfoam.com                      |
|    \\/     M anipulation  |                                                 |
\*---------------------------------------------------------------------------*/
FoamFile
{
    version     2.0;
    format      ascii;
    arch        "LSB;label=32;scalar=64";
    class       volScalarField;
    location    "64/fluidRegion";
    object      heatFlux.structure;
}
// * * * * * * * * * * * * * * * * * * * * * * * * * * * * * * * * * * * * * //

dimensions      [1 0 -3 0 0 0 0];

internalField   nonuniform List<scalar> 
350
(
-258295
-258299
-258304
-258309
-258316
-258324
-258332
-258339
-258345
-258349
-258352
-258354
-258355
-258355
-258356
-258357
-258358
-258358
-258359
-258360
-258362
-258365
-258369
-258373
-258806
-258295
-258299
-258304
-258309
-258316
-258324
-258332
-258339
-258345
-258349
-258352
-258354
-258355
-258355
-258356
-258357
-258358
-258358
-258359
-258360
-258362
-258365
-258369
-258373
-258806
449656
1.34346e+06
2.21605e+06
3.05369e+06
3.84316e+06
4.57201e+06
5.22875e+06
5.80301e+06
6.28575e+06
6.66935e+06
6.94777e+06
7.11661e+06
7.17321e+06
7.11668e+06
6.9479e+06
6.66956e+06
6.28602e+06
5.80334e+06
5.22911e+06
4.57246e+06
3.84366e+06
3.05427e+06
2.21666e+06
1.34412e+06
450477
454796
1.35883e+06
2.24143e+06
3.08866e+06
3.88718e+06
4.62438e+06
5.28863e+06
5.86948e+06
6.35775e+06
6.74574e+06
7.02735e+06
7.19812e+06
7.25537e+06
7.19819e+06
7.02749e+06
6.74595e+06
6.35802e+06
5.86982e+06
5.28901e+06
4.62484e+06
3.88769e+06
3.08926e+06
2.24205e+06
1.35951e+06
455636
448837
1.34101e+06
2.21201e+06
3.04812e+06
3.83615e+06
4.56367e+06
5.21921e+06
5.79243e+06
6.27429e+06
6.65719e+06
6.9351e+06
7.10363e+06
7.16012e+06
7.1037e+06
6.93523e+06
6.65739e+06
6.27455e+06
5.79276e+06
5.21958e+06
4.56412e+06
3.83665e+06
3.0487e+06
2.21262e+06
1.34167e+06
449656
453612
1.35529e+06
2.23559e+06
3.08061e+06
3.87704e+06
4.61232e+06
5.27485e+06
5.85418e+06
6.34117e+06
6.72816e+06
7.00903e+06
7.17936e+06
7.23646e+06
7.17943e+06
7.00917e+06
6.72837e+06
6.34145e+06
5.85452e+06
5.27522e+06
4.61278e+06
3.87756e+06
3.08121e+06
2.23621e+06
1.35597e+06
454449
453612
1.35529e+06
2.23559e+06
3.08061e+06
3.87704e+06
4.61232e+06
5.27485e+06
5.85418e+06
6.34117e+06
6.72816e+06
7.00903e+06
7.17936e+06
7.23646e+06
7.17943e+06
7.00917e+06
6.72837e+06
6.34145e+06
5.85452e+06
5.27522e+06
4.61278e+06
3.87756e+06
3.08121e+06
2.23621e+06
1.35597e+06
454449
448838
1.34101e+06
2.21201e+06
3.04812e+06
3.83615e+06
4.56367e+06
5.21921e+06
5.79243e+06
6.27429e+06
6.65719e+06
6.9351e+06
7.10363e+06
7.16012e+06
7.10369e+06
6.93523e+06
6.65739e+06
6.27455e+06
5.79276e+06
5.21958e+06
4.56412e+06
3.83665e+06
3.0487e+06
2.21262e+06
1.34167e+06
449656
454796
1.35883e+06
2.24143e+06
3.08866e+06
3.88718e+06
4.62438e+06
5.28863e+06
5.86948e+06
6.35775e+06
6.74574e+06
7.02735e+06
7.19812e+06
7.25537e+06
7.19819e+06
7.02749e+06
6.74595e+06
6.35802e+06
5.86982e+06
5.28901e+06
4.62484e+06
3.88769e+06
3.08926e+06
2.24205e+06
1.35951e+06
455636
449656
1.34346e+06
2.21606e+06
3.05369e+06
3.84316e+06
4.57201e+06
5.22875e+06
5.80301e+06
6.28575e+06
6.66935e+06
6.94777e+06
7.11661e+06
7.17321e+06
7.11667e+06
6.9479e+06
6.66956e+06
6.28602e+06
5.80334e+06
5.22911e+06
4.57246e+06
3.84366e+06
3.05427e+06
2.21666e+06
1.34412e+06
450477
453612
1.35529e+06
2.23559e+06
3.08061e+06
3.87704e+06
4.61232e+06
5.27485e+06
5.85418e+06
6.34117e+06
6.72816e+06
7.00903e+06
7.17936e+06
7.23646e+06
7.17943e+06
7.00917e+06
6.72837e+06
6.34145e+06
5.85452e+06
5.27522e+06
4.61278e+06
3.87756e+06
3.08121e+06
2.23621e+06
1.35597e+06
454449
448837
1.34101e+06
2.21201e+06
3.04812e+06
3.83615e+06
4.56367e+06
5.21921e+06
5.79243e+06
6.27429e+06
6.65719e+06
6.9351e+06
7.10363e+06
7.16012e+06
7.10369e+06
6.93523e+06
6.65739e+06
6.27455e+06
5.79276e+06
5.21958e+06
4.56412e+06
3.83665e+06
3.0487e+06
2.21262e+06
1.34167e+06
449656
448838
1.34101e+06
2.21201e+06
3.04812e+06
3.83615e+06
4.56367e+06
5.21921e+06
5.79243e+06
6.27429e+06
6.65719e+06
6.9351e+06
7.10363e+06
7.16012e+06
7.10369e+06
6.93523e+06
6.65739e+06
6.27455e+06
5.79276e+06
5.21958e+06
4.56412e+06
3.83665e+06
3.0487e+06
2.21262e+06
1.34167e+06
449656
453612
1.35529e+06
2.23559e+06
3.08061e+06
3.87704e+06
4.61232e+06
5.27485e+06
5.85418e+06
6.34117e+06
6.72816e+06
7.00903e+06
7.17936e+06
7.23646e+06
7.17943e+06
7.00917e+06
6.72837e+06
6.34145e+06
5.85452e+06
5.27522e+06
4.61278e+06
3.87755e+06
3.0812e+06
2.23621e+06
1.35597e+06
454449
)
;

boundaryField
{
    outletCentralUnloaded
    {
        type            zeroGradient;
    }
    inletCentralUnloaded
    {
        type            zeroGradient;
    }
    outletFuelElement
    {
        type            zeroGradient;
    }
    inletFuelElement
    {
        type            zeroGradient;
    }
    defaultFaces
    {
        type            zeroGradient;
    }
    baffle_master
    {
        type            zeroGradient;
    }
    baffle_slave
    {
        type            zeroGradient;
    }
}


// ************************************************************************* //
