/*--------------------------------*- C++ -*----------------------------------*\
| =========                 |                                                 |
| \\      /  F ield         | OpenFOAM: The Open Source CFD Toolbox           |
|  \\    /   O peration     | Version:  2212                                  |
|   \\  /    A nd           | Website:  www.openfoam.com                      |
|    \\/     M anipulation  |                                                 |
\*---------------------------------------------------------------------------*/
FoamFile
{
    version     2.0;
    format      ascii;
    arch        "LSB;label=32;scalar=64";
    class       volScalarField;
    location    "64/fluidRegion";
    object      htc;
}
// * * * * * * * * * * * * * * * * * * * * * * * * * * * * * * * * * * * * * //

dimensions      [1 0 -3 -1 0 0 0];

internalField   nonuniform List<scalar> 
350
(
3101.19
3101.22
3101.26
3101.31
3101.38
3101.45
3101.52
3101.59
3101.64
3101.68
3101.7
3101.7
3101.69
3101.68
3101.67
3101.66
3101.66
3101.65
3101.64
3101.64
3101.65
3101.68
3101.71
3101.74
3106.91
3101.19
3101.22
3101.26
3101.31
3101.38
3101.45
3101.52
3101.59
3101.64
3101.68
3101.7
3101.7
3101.69
3101.68
3101.67
3101.66
3101.66
3101.65
3101.64
3101.64
3101.65
3101.68
3101.71
3101.74
3106.91
27256.8
27175.3
26987.9
26675.6
26239.6
25682.1
25006.1
24215.3
23315
22312.3
21216.7
20040.7
18799.4
17509.8
16188.2
14848.6
13501.4
12154.5
10817.2
9505.65
8247.79
7090.24
6104.15
5383.4
4944.14
27345.8
27263.9
27077.2
26764.8
26328.4
25769.9
25092.2
24299.1
23395.6
22388.5
21287.2
20104.2
18854.9
17556.5
16226.4
14879.1
13525.4
12173.2
10831.3
9515.21
8252.78
7090.74
6101.11
5379.15
4942.17
27242.8
27160.8
26973.5
26661.1
26225.2
25668
24992.2
24201.9
23302.2
22300.2
21205.5
20030.6
18790.6
17502.3
16182
14843.6
13497.3
12151.2
10814.6
9503.63
8246.39
7089.4
6103.74
5383.13
4943.99
27326.1
27244.3
27057.4
26745
26308.6
25750.3
25072.9
24280.3
23377.5
22371.3
21271.3
20089.8
18842.3
17545.9
16217.7
14872.2
13520
12169
10828.2
9513.11
8251.73
7090.73
6101.92
5380.25
4942.69
27326.1
27244.3
27057.4
26745
26308.6
25750.3
25072.9
24280.3
23377.5
22371.3
21271.3
20089.8
18842.3
17545.9
16217.7
14872.2
13520
12169
10828.2
9513.11
8251.73
7090.73
6101.92
5380.25
4942.69
27242.8
27160.8
26973.5
26661.1
26225.2
25668
24992.2
24201.9
23302.2
22300.2
21205.5
20030.6
18790.6
17502.3
16182
14843.6
13497.3
12151.2
10814.6
9503.62
8246.38
7089.39
6103.73
5383.12
4943.99
27345.8
27263.9
27077.2
26764.8
26328.4
25769.9
25092.2
24299.1
23395.6
22388.5
21287.2
20104.2
18854.9
17556.5
16226.4
14879.1
13525.4
12173.2
10831.3
9515.22
8252.78
7090.74
6101.11
5379.15
4942.17
27256.8
27175.3
26987.9
26675.6
26239.6
25682.1
25006.1
24215.3
23315
22312.3
21216.7
20040.7
18799.4
17509.8
16188.2
14848.6
13501.4
12154.5
10817.2
9505.64
8247.79
7090.23
6104.15
5383.4
4944.14
27326.1
27244.3
27057.4
26745
26308.6
25750.3
25072.9
24280.3
23377.5
22371.3
21271.3
20089.8
18842.3
17545.9
16217.7
14872.2
13520
12169
10828.2
9513.11
8251.73
7090.73
6101.92
5380.25
4942.69
27242.8
27160.8
26973.5
26661.1
26225.2
25668
24992.2
24201.9
23302.2
22300.2
21205.5
20030.6
18790.6
17502.3
16182
14843.6
13497.3
12151.2
10814.6
9503.63
8246.39
7089.4
6103.74
5383.14
4944
27242.8
27160.8
26973.5
26661.1
26225.2
25668
24992.2
24201.9
23302.2
22300.2
21205.5
20030.6
18790.6
17502.3
16182
14843.6
13497.3
12151.2
10814.6
9503.62
8246.38
7089.39
6103.73
5383.12
4943.99
27326.1
27244.3
27057.4
26745
26308.6
25750.3
25072.9
24280.3
23377.5
22371.3
21271.3
20089.8
18842.3
17545.9
16217.7
14872.2
13520
12169
10828.2
9513.11
8251.73
7090.72
6101.92
5380.25
4942.69
)
;

boundaryField
{
    outletCentralUnloaded
    {
        type            zeroGradient;
    }
    inletCentralUnloaded
    {
        type            zeroGradient;
    }
    outletFuelElement
    {
        type            zeroGradient;
    }
    inletFuelElement
    {
        type            zeroGradient;
    }
    defaultFaces
    {
        type            zeroGradient;
    }
    baffle_master
    {
        type            zeroGradient;
    }
    baffle_slave
    {
        type            zeroGradient;
    }
}


// ************************************************************************* //
