/*--------------------------------*- C++ -*----------------------------------*\
| =========                 |                                                 |
| \\      /  F ield         | OpenFOAM: The Open Source CFD Toolbox           |
|  \\    /   O peration     | Version:  2212                                  |
|   \\  /    A nd           | Website:  www.openfoam.com                      |
|    \\/     M anipulation  |                                                 |
\*---------------------------------------------------------------------------*/
FoamFile
{
    version     2.0;
    format      ascii;
    arch        "LSB;label=32;scalar=64";
    class       volScalarField;
    location    "64/fluidRegion";
    object      p_rgh;
}
// * * * * * * * * * * * * * * * * * * * * * * * * * * * * * * * * * * * * * //

dimensions      [1 -1 -2 0 0 0 0];

internalField   nonuniform List<scalar> 
350
(
3.44743e+06
3.44773e+06
3.44802e+06
3.44832e+06
3.44862e+06
3.44891e+06
3.44921e+06
3.4495e+06
3.44979e+06
3.45009e+06
3.45038e+06
3.45068e+06
3.45097e+06
3.45127e+06
3.45156e+06
3.45186e+06
3.45216e+06
3.45245e+06
3.45275e+06
3.45305e+06
3.45334e+06
3.45364e+06
3.45393e+06
3.45422e+06
3.45451e+06
3.44743e+06
3.44773e+06
3.44802e+06
3.44832e+06
3.44862e+06
3.44891e+06
3.44921e+06
3.4495e+06
3.44979e+06
3.45009e+06
3.45038e+06
3.45068e+06
3.45097e+06
3.45127e+06
3.45156e+06
3.45186e+06
3.45216e+06
3.45245e+06
3.45275e+06
3.45305e+06
3.45334e+06
3.45364e+06
3.45393e+06
3.45422e+06
3.45451e+06
3.47385e+06
3.52569e+06
3.57692e+06
3.62724e+06
3.67633e+06
3.72391e+06
3.76972e+06
3.81353e+06
3.85513e+06
3.89433e+06
3.93097e+06
3.96492e+06
3.99605e+06
4.02431e+06
4.04963e+06
4.07201e+06
4.0915e+06
4.1082e+06
4.12223e+06
4.13378e+06
4.14305e+06
4.15025e+06
4.15563e+06
4.15948e+06
4.16216e+06
3.47385e+06
3.52569e+06
3.57692e+06
3.62724e+06
3.67633e+06
3.72391e+06
3.76972e+06
3.81353e+06
3.85513e+06
3.89433e+06
3.93097e+06
3.96492e+06
3.99605e+06
4.02431e+06
4.04963e+06
4.07201e+06
4.0915e+06
4.1082e+06
4.12223e+06
4.13378e+06
4.14305e+06
4.15025e+06
4.15563e+06
4.15948e+06
4.16216e+06
3.47385e+06
3.52569e+06
3.57692e+06
3.62724e+06
3.67633e+06
3.72391e+06
3.76972e+06
3.81353e+06
3.85513e+06
3.89433e+06
3.93097e+06
3.96492e+06
3.99605e+06
4.02431e+06
4.04962e+06
4.07201e+06
4.0915e+06
4.1082e+06
4.12223e+06
4.13378e+06
4.14305e+06
4.15025e+06
4.15563e+06
4.15948e+06
4.16216e+06
3.47385e+06
3.52569e+06
3.57692e+06
3.62724e+06
3.67633e+06
3.72391e+06
3.76972e+06
3.81353e+06
3.85513e+06
3.89433e+06
3.93097e+06
3.96492e+06
3.99605e+06
4.02431e+06
4.04963e+06
4.07201e+06
4.0915e+06
4.1082e+06
4.12223e+06
4.13378e+06
4.14305e+06
4.15025e+06
4.15563e+06
4.15948e+06
4.16216e+06
3.47385e+06
3.52569e+06
3.57692e+06
3.62724e+06
3.67633e+06
3.72391e+06
3.76972e+06
3.81353e+06
3.85513e+06
3.89433e+06
3.93097e+06
3.96492e+06
3.99605e+06
4.02431e+06
4.04963e+06
4.07201e+06
4.0915e+06
4.1082e+06
4.12223e+06
4.13378e+06
4.14305e+06
4.15025e+06
4.15563e+06
4.15948e+06
4.16216e+06
3.47385e+06
3.52569e+06
3.57692e+06
3.62724e+06
3.67633e+06
3.72391e+06
3.76972e+06
3.81353e+06
3.85513e+06
3.89433e+06
3.93097e+06
3.96492e+06
3.99605e+06
4.02431e+06
4.04962e+06
4.07201e+06
4.0915e+06
4.1082e+06
4.12223e+06
4.13378e+06
4.14305e+06
4.15025e+06
4.15563e+06
4.15948e+06
4.16216e+06
3.47385e+06
3.52569e+06
3.57692e+06
3.62724e+06
3.67633e+06
3.72391e+06
3.76972e+06
3.81353e+06
3.85513e+06
3.89433e+06
3.93097e+06
3.96492e+06
3.99605e+06
4.02431e+06
4.04963e+06
4.07201e+06
4.0915e+06
4.1082e+06
4.12223e+06
4.13378e+06
4.14305e+06
4.15025e+06
4.15563e+06
4.15948e+06
4.16216e+06
3.47385e+06
3.52569e+06
3.57692e+06
3.62724e+06
3.67633e+06
3.72391e+06
3.76972e+06
3.81353e+06
3.85513e+06
3.89433e+06
3.93097e+06
3.96492e+06
3.99605e+06
4.02431e+06
4.04963e+06
4.07201e+06
4.0915e+06
4.1082e+06
4.12223e+06
4.13378e+06
4.14305e+06
4.15025e+06
4.15563e+06
4.15948e+06
4.16216e+06
3.47385e+06
3.52569e+06
3.57692e+06
3.62724e+06
3.67633e+06
3.72391e+06
3.76972e+06
3.81353e+06
3.85513e+06
3.89433e+06
3.93097e+06
3.96492e+06
3.99605e+06
4.02431e+06
4.04963e+06
4.07201e+06
4.0915e+06
4.1082e+06
4.12223e+06
4.13378e+06
4.14305e+06
4.15025e+06
4.15563e+06
4.15948e+06
4.16216e+06
3.47385e+06
3.52569e+06
3.57692e+06
3.62724e+06
3.67633e+06
3.72391e+06
3.76972e+06
3.81353e+06
3.85513e+06
3.89433e+06
3.93097e+06
3.96492e+06
3.99605e+06
4.02431e+06
4.04962e+06
4.07201e+06
4.0915e+06
4.1082e+06
4.12223e+06
4.13378e+06
4.14305e+06
4.15025e+06
4.15563e+06
4.15948e+06
4.16216e+06
3.47385e+06
3.52569e+06
3.57692e+06
3.62724e+06
3.67633e+06
3.72391e+06
3.76972e+06
3.81353e+06
3.85513e+06
3.89433e+06
3.93097e+06
3.96492e+06
3.99605e+06
4.02431e+06
4.04963e+06
4.07201e+06
4.0915e+06
4.1082e+06
4.12223e+06
4.13378e+06
4.14305e+06
4.15025e+06
4.15563e+06
4.15948e+06
4.16216e+06
3.47385e+06
3.52569e+06
3.57692e+06
3.62724e+06
3.67633e+06
3.72391e+06
3.76972e+06
3.81353e+06
3.85513e+06
3.89433e+06
3.93097e+06
3.96492e+06
3.99605e+06
4.02431e+06
4.04963e+06
4.07201e+06
4.0915e+06
4.1082e+06
4.12223e+06
4.13378e+06
4.14305e+06
4.15025e+06
4.15563e+06
4.15948e+06
4.16216e+06
)
;

boundaryField
{
    outletCentralUnloaded
    {
        type            fixedValue;
        value           uniform 3.44728e+06;
    }
    inletCentralUnloaded
    {
        type            zeroGradient;
    }
    outletFuelElement
    {
        type            fixedValue;
        value           uniform 3.44728e+06;
    }
    inletFuelElement
    {
        type            zeroGradient;
    }
    defaultFaces
    {
        type            zeroGradient;
    }
    baffle_master
    {
        type            zeroGradient;
    }
    baffle_slave
    {
        type            zeroGradient;
    }
}


// ************************************************************************* //
