/*--------------------------------*- C++ -*----------------------------------*\
| =========                 |                                                 |
| \\      /  F ield         | OpenFOAM: The Open Source CFD Toolbox           |
|  \\    /   O peration     | Version:  2212                                  |
|   \\  /    A nd           | Website:  www.openfoam.com                      |
|    \\/     M anipulation  |                                                 |
\*---------------------------------------------------------------------------*/
FoamFile
{
    version     2.0;
    format      ascii;
    arch        "LSB;label=32;scalar=64";
    class       volScalarField;
    location    "64/fluidRegion";
    object      Re;
}
// * * * * * * * * * * * * * * * * * * * * * * * * * * * * * * * * * * * * * //

dimensions      [0 0 0 0 0 0 0];

internalField   nonuniform List<scalar> 
350
(
174019
174020
174021
174024
174027
174031
174035
174039
174042
174043
174043
174042
174040
174038
174036
174035
174033
174031
174030
174029
174028
174029
174030
174031
174393
174019
174020
174021
174024
174027
174031
174035
174039
174042
174043
174043
174042
174040
174038
174036
174035
174033
174031
174030
174029
174028
174029
174030
174031
174393
55431.5
55382.4
55383.7
55383.9
55382.9
55380.5
55376.6
55371
55363.5
55353.8
55341.9
55327.7
55311.2
55292.5
55271.2
55246.4
55216.2
55178.6
55133
55085.1
55054.4
55100.5
55367.5
56113.7
56604.8
54940.5
54883.8
54880.9
54876.9
54872
54866.1
54858.9
54850.2
54839.8
54827.5
54813.5
54798
54781.9
54766
54751.2
54737.5
54723.6
54707.8
54689.3
54674.4
54683.9
54780.8
55115.5
55952
56552
55513.7
55464.2
55465.8
55466.3
55465.5
55463.4
55459.6
55454.1
55446.6
55436.9
55424.9
55410.3
55393.1
55373.3
55350.2
55322.8
55289.1
55247.2
55196.2
55141.9
55103.3
55139.6
55394.3
56125.9
56606.7
55050.3
54995.8
54994
54991.2
54987.4
54982.5
54976.2
54968.4
54958.8
54947.4
54934
54919
54903
54886.7
54870.6
54854.5
54837.1
54816.5
54791.9
54769.6
54770.1
54855.6
55175
55990.9
56565.1
55050.3
54995.8
54994
54991.2
54987.4
54982.5
54976.2
54968.4
54958.8
54947.4
54934
54919
54903
54886.7
54870.6
54854.5
54837.1
54816.5
54791.9
54769.6
54770.1
54855.6
55175
55990.9
56565.1
55513.7
55464.1
55465.8
55466.3
55465.5
55463.3
55459.6
55454.1
55446.6
55436.9
55424.8
55410.3
55393.1
55373.2
55350.2
55322.8
55289.1
55247.1
55196.1
55141.8
55103.2
55139.5
55394.2
56125.7
56606.6
54940.5
54883.8
54880.9
54876.9
54872
54866.1
54858.9
54850.2
54839.8
54827.5
54813.5
54798
54781.9
54766
54751.2
54737.5
54723.6
54707.8
54689.3
54674.4
54683.9
54780.8
55115.4
55952
56552
55431.5
55382.4
55383.7
55383.9
55382.9
55380.5
55376.6
55371
55363.5
55353.8
55341.9
55327.7
55311.2
55292.5
55271.2
55246.4
55216.2
55178.6
55133
55085.1
55054.4
55100.4
55367.5
56113.7
56604.8
55050.3
54995.8
54994
54991.2
54987.4
54982.5
54976.2
54968.4
54958.8
54947.4
54934
54919
54903
54886.7
54870.6
54854.5
54837.1
54816.5
54791.9
54769.6
54770.1
54855.6
55175
55990.9
56565.1
55513.7
55464.2
55465.8
55466.3
55465.5
55463.4
55459.6
55454.1
55446.6
55436.9
55424.9
55410.3
55393.1
55373.3
55350.2
55322.8
55289.1
55247.2
55196.2
55141.9
55103.3
55139.6
55394.4
56126
56606.7
55513.7
55464.1
55465.8
55466.3
55465.5
55463.3
55459.6
55454.1
55446.6
55436.9
55424.8
55410.3
55393.1
55373.2
55350.2
55322.8
55289.1
55247.1
55196.1
55141.8
55103.2
55139.5
55394.2
56125.7
56606.6
55050.3
54995.8
54994
54991.2
54987.4
54982.5
54976.2
54968.4
54958.8
54947.4
54934
54919
54903
54886.7
54870.6
54854.5
54837.1
54816.5
54791.9
54769.6
54770.1
54855.6
55174.9
55991
56565.2
)
;

boundaryField
{
    outletCentralUnloaded
    {
        type            zeroGradient;
    }
    inletCentralUnloaded
    {
        type            zeroGradient;
    }
    outletFuelElement
    {
        type            zeroGradient;
    }
    inletFuelElement
    {
        type            zeroGradient;
    }
    defaultFaces
    {
        type            zeroGradient;
    }
    baffle_master
    {
        type            zeroGradient;
    }
    baffle_slave
    {
        type            zeroGradient;
    }
}


// ************************************************************************* //
