/*--------------------------------*- C++ -*----------------------------------*\
| =========                 |                                                 |
| \\      /  F ield         | OpenFOAM: The Open Source CFD Toolbox           |
|  \\    /   O peration     | Version:  2212                                  |
|   \\  /    A nd           | Website:  www.openfoam.com                      |
|    \\/     M anipulation  |                                                 |
\*---------------------------------------------------------------------------*/
FoamFile
{
    version     2.0;
    format      ascii;
    arch        "LSB;label=32;scalar=64";
    class       volScalarField;
    location    "64/fluidRegion";
    object      Tci.nuclearFuelPin;
}
// * * * * * * * * * * * * * * * * * * * * * * * * * * * * * * * * * * * * * //

dimensions      [0 0 0 1 0 0 0];

internalField   nonuniform List<scalar> 
350
(
0
0
0
0
0
0
0
0
0
0
0
0
0
0
0
0
0
0
0
0
0
0
0
0
0
0
0
0
0
0
0
0
0
0
0
0
0
0
0
0
0
0
0
0
0
0
0
0
0
0
1851.82
1902.04
1939.03
1962.6
1972.7
1969.42
1953.04
1923.99
1882.85
1830.36
1767.42
1695.07
1614.5
1527.03
1434.11
1337.25
1237.88
1137.16
1035.58
932.458
825.003
707.082
568.11
396.158
193.019
1880.34
1931.32
1968.83
1992.69
2002.84
1999.39
1982.6
1952.92
1910.94
1857.41
1793.26
1719.52
1637.42
1548.28
1453.58
1354.86
1253.61
1151.04
1047.7
942.946
833.988
714.613
574.022
399.985
194.312
1847.19
1897.31
1934.24
1957.78
1967.89
1964.66
1948.36
1919.42
1878.42
1826.11
1763.38
1691.26
1610.94
1523.74
1431.1
1334.53
1235.46
1135.03
1033.73
930.861
823.644
705.953
567.236
395.597
192.822
1873.93
1924.71
1962.09
1985.87
1995.99
1992.57
1975.86
1946.31
1904.51
1851.22
1787.33
1713.91
1632.15
1543.39
1449.09
1350.8
1249.98
1147.83
1044.9
940.521
831.91
712.87
572.653
399.097
194.013
1873.93
1924.71
1962.09
1985.87
1995.99
1992.57
1975.86
1946.31
1904.51
1851.22
1787.33
1713.91
1632.15
1543.39
1449.09
1350.8
1249.98
1147.83
1044.9
940.521
831.91
712.87
572.653
399.097
194.013
1847.19
1897.31
1934.24
1957.78
1967.89
1964.66
1948.36
1919.42
1878.43
1826.11
1763.38
1691.26
1610.94
1523.74
1431.11
1334.53
1235.46
1135.03
1033.73
930.862
823.644
705.954
567.237
395.598
192.822
1880.34
1931.32
1968.83
1992.69
2002.84
1999.39
1982.6
1952.92
1910.94
1857.41
1793.26
1719.52
1637.42
1548.28
1453.58
1354.86
1253.61
1151.04
1047.7
942.946
833.988
714.613
574.023
399.985
194.312
1851.82
1902.04
1939.03
1962.6
1972.7
1969.42
1953.04
1923.99
1882.85
1830.36
1767.42
1695.07
1614.5
1527.03
1434.11
1337.25
1237.88
1137.16
1035.58
932.458
825.003
707.082
568.11
396.158
193.019
1873.93
1924.71
1962.09
1985.87
1995.99
1992.57
1975.86
1946.31
1904.51
1851.22
1787.33
1713.91
1632.15
1543.39
1449.09
1350.8
1249.98
1147.83
1044.9
940.521
831.91
712.87
572.653
399.097
194.013
1847.19
1897.31
1934.24
1957.78
1967.89
1964.66
1948.36
1919.42
1878.42
1826.11
1763.38
1691.26
1610.94
1523.74
1431.11
1334.53
1235.46
1135.03
1033.73
930.861
823.644
705.953
567.236
395.597
192.822
1847.19
1897.31
1934.24
1957.78
1967.89
1964.66
1948.36
1919.42
1878.43
1826.11
1763.38
1691.26
1610.94
1523.74
1431.11
1334.53
1235.46
1135.03
1033.73
930.862
823.644
705.954
567.237
395.598
192.822
1873.93
1924.71
1962.09
1985.87
1995.99
1992.57
1975.86
1946.31
1904.51
1851.22
1787.33
1713.91
1632.15
1543.39
1449.09
1350.8
1249.98
1147.83
1044.9
940.521
831.91
712.87
572.653
399.097
194.013
)
;

boundaryField
{
    outletCentralUnloaded
    {
        type            zeroGradient;
    }
    inletCentralUnloaded
    {
        type            zeroGradient;
    }
    outletFuelElement
    {
        type            zeroGradient;
    }
    inletFuelElement
    {
        type            zeroGradient;
    }
    defaultFaces
    {
        type            zeroGradient;
    }
    baffle_master
    {
        type            zeroGradient;
    }
    baffle_slave
    {
        type            zeroGradient;
    }
}


// ************************************************************************* //
