/*--------------------------------*- C++ -*----------------------------------*\
| =========                 |                                                 |
| \\      /  F ield         | OpenFOAM: The Open Source CFD Toolbox           |
|  \\    /   O peration     | Version:  2212                                  |
|   \\  /    A nd           | Website:  www.openfoam.com                      |
|    \\/     M anipulation  |                                                 |
\*---------------------------------------------------------------------------*/
FoamFile
{
    version     2.0;
    format      ascii;
    arch        "LSB;label=32;scalar=64";
    class       volScalarField;
    location    "64/fluidRegion";
    object      Tco.nuclearFuelPin;
}
// * * * * * * * * * * * * * * * * * * * * * * * * * * * * * * * * * * * * * //

dimensions      [0 0 0 1 0 0 0];

internalField   nonuniform List<scalar> 
350
(
0
0
0
0
0
0
0
0
0
0
0
0
0
0
0
0
0
0
0
0
0
0
0
0
0
0
0
0
0
0
0
0
0
0
0
0
0
0
0
0
0
0
0
0
0
0
0
0
0
0
1840.02
1866.79
1880.88
1882.47
1871.85
1849.45
1815.84
1771.72
1717.91
1655.35
1585.11
1508.33
1426.27
1340.29
1251.8
1162.24
1072.93
984.876
898.37
812.474
724.144
626.936
509.944
360.887
181.198
1868.41
1895.66
1910.01
1911.64
1900.84
1878.04
1843.82
1798.9
1744.11
1680.4
1608.86
1530.64
1447.03
1359.4
1269.18
1177.85
1086.78
997.015
908.918
821.588
731.973
633.549
515.19
364.311
182.356
1835.41
1862.12
1876.19
1877.8
1867.22
1844.9
1811.4
1767.42
1713.78
1651.43
1581.4
1504.86
1423.05
1337.34
1249.12
1159.84
1070.81
983.026
896.768
811.096
722.968
625.954
509.176
360.391
181.023
1862.02
1889.15
1903.43
1905.03
1894.26
1871.54
1837.44
1792.69
1738.11
1674.67
1603.41
1525.52
1442.26
1355
1265.17
1174.24
1083.58
994.208
906.479
819.479
730.161
632.017
513.974
363.516
182.088
1862.02
1889.15
1903.43
1905.03
1894.26
1871.54
1837.44
1792.69
1738.11
1674.67
1603.41
1525.52
1442.26
1355
1265.17
1174.24
1083.58
994.208
906.479
819.479
730.161
632.018
513.974
363.516
182.088
1835.41
1862.12
1876.19
1877.8
1867.22
1844.9
1811.4
1767.42
1713.78
1651.43
1581.4
1504.86
1423.05
1337.34
1249.12
1159.84
1070.82
983.026
896.769
811.097
722.969
625.955
509.177
360.392
181.023
1868.41
1895.66
1910.01
1911.64
1900.84
1878.04
1843.82
1798.9
1744.11
1680.4
1608.86
1530.64
1447.03
1359.4
1269.18
1177.85
1086.78
997.014
908.918
821.588
731.973
633.549
515.19
364.311
182.356
1840.02
1866.79
1880.88
1882.47
1871.85
1849.45
1815.84
1771.72
1717.91
1655.35
1585.11
1508.33
1426.27
1340.29
1251.8
1162.24
1072.93
984.876
898.37
812.474
724.144
626.936
509.944
360.887
181.198
1862.02
1889.15
1903.43
1905.03
1894.26
1871.54
1837.44
1792.69
1738.11
1674.67
1603.41
1525.52
1442.26
1355
1265.17
1174.24
1083.58
994.208
906.479
819.479
730.161
632.018
513.974
363.516
182.088
1835.41
1862.12
1876.19
1877.8
1867.22
1844.9
1811.4
1767.42
1713.78
1651.43
1581.4
1504.86
1423.05
1337.34
1249.12
1159.84
1070.81
983.026
896.768
811.097
722.968
625.954
509.176
360.391
181.023
1835.41
1862.12
1876.19
1877.8
1867.22
1844.9
1811.4
1767.42
1713.78
1651.43
1581.4
1504.86
1423.05
1337.34
1249.12
1159.84
1070.81
983.026
896.769
811.097
722.969
625.954
509.177
360.392
181.023
1862.02
1889.15
1903.43
1905.03
1894.26
1871.54
1837.44
1792.69
1738.11
1674.66
1603.41
1525.52
1442.26
1355
1265.17
1174.24
1083.58
994.208
906.479
819.479
730.161
632.017
513.974
363.516
182.088
)
;

boundaryField
{
    outletCentralUnloaded
    {
        type            zeroGradient;
    }
    inletCentralUnloaded
    {
        type            zeroGradient;
    }
    outletFuelElement
    {
        type            zeroGradient;
    }
    inletFuelElement
    {
        type            zeroGradient;
    }
    defaultFaces
    {
        type            zeroGradient;
    }
    baffle_master
    {
        type            zeroGradient;
    }
    baffle_slave
    {
        type            zeroGradient;
    }
}


// ************************************************************************* //
