/*--------------------------------*- C++ -*----------------------------------*\
| =========                 |                                                 |
| \\      /  F ield         | OpenFOAM: The Open Source CFD Toolbox           |
|  \\    /   O peration     | Version:  2212                                  |
|   \\  /    A nd           | Website:  www.openfoam.com                      |
|    \\/     M anipulation  |                                                 |
\*---------------------------------------------------------------------------*/
FoamFile
{
    version     2.0;
    format      ascii;
    arch        "LSB;label=32;scalar=64";
    class       volScalarField;
    location    "64/fluidRegion";
    object      Tfi.nuclearFuelPin;
}
// * * * * * * * * * * * * * * * * * * * * * * * * * * * * * * * * * * * * * //

dimensions      [0 0 0 1 0 0 0];

internalField   nonuniform List<scalar> 
350
(
0
0
0
0
0
0
0
0
0
0
0
0
0
0
0
0
0
0
0
0
0
0
0
0
0
0
0
0
0
0
0
0
0
0
0
0
0
0
0
0
0
0
0
0
0
0
0
0
0
0
2424.28
3612.71
4760.92
5851.18
6866.63
7791.51
8611.45
9313.7
9887.31
10323.3
10614.9
10757.6
10749.1
10589.7
10281.8
9830.52
9242.74
8527.36
7694.55
6755.21
5719.68
4596.51
3390.89
2107.81
766.686
2459.34
3661.57
4823.02
5925.8
6952.82
7888.15
8717.27
9427.27
10007.1
10447.7
10742.1
10885.9
10876.7
10714.7
10402.7
9945.42
9350.17
8625.9
7782.94
6832.4
5784.73
4648.6
3429.14
2131.25
774.548
2418.6
3604.86
4750.97
5839.27
6852.89
7776.12
8594.62
9295.65
9868.29
10303.6
10594.8
10737.3
10728.9
10569.8
10262.7
9812.31
9225.72
8511.76
7680.55
6742.99
5709.39
4588.29
3384.87
2104.13
765.442
2451.42
3650.45
4808.85
5908.73
6933.07
7865.98
8692.98
9401.18
9979.55
10419.1
10712.9
10856.3
10847.3
10685.9
10374.8
9918.96
9325.43
8603.2
7762.58
6814.62
5769.74
4636.6
3420.33
2125.84
772.737
2451.42
3650.45
4808.85
5908.73
6933.07
7865.98
8692.98
9401.18
9979.55
10419.1
10712.9
10856.3
10847.3
10685.9
10374.8
9918.96
9325.43
8603.2
7762.58
6814.62
5769.74
4636.6
3420.33
2125.84
772.737
2418.61
3604.86
4750.98
5839.27
6852.89
7776.13
8594.63
9295.65
9868.29
10303.6
10594.8
10737.3
10728.9
10569.8
10262.7
9812.31
9225.72
8511.76
7680.55
6742.99
5709.39
4588.29
3384.87
2104.13
765.442
2459.34
3661.57
4823.02
5925.8
6952.82
7888.15
8717.27
9427.27
10007.1
10447.7
10742.1
10885.9
10876.7
10714.7
10402.6
9945.42
9350.17
8625.9
7782.94
6832.4
5784.73
4648.6
3429.14
2131.25
774.548
2424.28
3612.71
4760.92
5851.18
6866.63
7791.51
8611.45
9313.7
9887.31
10323.3
10614.9
10757.6
10749.1
10589.7
10281.8
9830.52
9242.74
8527.36
7694.55
6755.21
5719.68
4596.51
3390.89
2107.81
766.686
2451.42
3650.46
4808.85
5908.73
6933.07
7865.98
8692.98
9401.18
9979.55
10419.1
10712.9
10856.3
10847.3
10685.9
10374.8
9918.96
9325.43
8603.2
7762.58
6814.62
5769.74
4636.6
3420.33
2125.84
772.737
2418.6
3604.86
4750.97
5839.27
6852.89
7776.12
8594.62
9295.65
9868.29
10303.6
10594.8
10737.3
10728.9
10569.8
10262.7
9812.31
9225.72
8511.76
7680.55
6742.99
5709.39
4588.29
3384.87
2104.13
765.442
2418.61
3604.86
4750.98
5839.27
6852.89
7776.13
8594.63
9295.65
9868.29
10303.6
10594.8
10737.3
10728.9
10569.8
10262.7
9812.31
9225.72
8511.76
7680.55
6742.99
5709.39
4588.29
3384.87
2104.13
765.442
2451.42
3650.45
4808.85
5908.73
6933.07
7865.98
8692.97
9401.18
9979.55
10419.1
10712.9
10856.3
10847.3
10685.9
10374.8
9918.96
9325.43
8603.2
7762.58
6814.62
5769.74
4636.6
3420.33
2125.84
772.737
)
;

boundaryField
{
    outletCentralUnloaded
    {
        type            zeroGradient;
    }
    inletCentralUnloaded
    {
        type            zeroGradient;
    }
    outletFuelElement
    {
        type            zeroGradient;
    }
    inletFuelElement
    {
        type            zeroGradient;
    }
    defaultFaces
    {
        type            zeroGradient;
    }
    baffle_master
    {
        type            zeroGradient;
    }
    baffle_slave
    {
        type            zeroGradient;
    }
}


// ************************************************************************* //
