/*--------------------------------*- C++ -*----------------------------------*\
| =========                 |                                                 |
| \\      /  F ield         | OpenFOAM: The Open Source CFD Toolbox           |
|  \\    /   O peration     | Version:  2212                                  |
|   \\  /    A nd           | Website:  www.openfoam.com                      |
|    \\/     M anipulation  |                                                 |
\*---------------------------------------------------------------------------*/
FoamFile
{
    version     2.0;
    format      ascii;
    arch        "LSB;label=32;scalar=64";
    class       scalarFieldField;
    location    "64/fluidRegion";
    object      Trad.nuclearFuelPin;
}
// * * * * * * * * * * * * * * * * * * * * * * * * * * * * * * * * * * * * * //


350
(
0()
0()
0()
0()
0()
0()
0()
0()
0()
0()
0()
0()
0()
0()
0()
0()
0()
0()
0()
0()
0()
0()
0()
0()
0()
0()
0()
0()
0()
0()
0()
0()
0()
0()
0()
0()
0()
0()
0()
0()
0()
0()
0()
0()
0()
0()
0()
0()
0()
0()

20
(
2424.28
2422.49
2417.14
2408.21
2395.71
2379.64
2360
2336.78
2310
2279.63
2245.7
2208.19
2167.1
2122.43
2074.19
2022.37
1851.82
1847.76
1843.83
1840.02
)


20
(
3612.71
3607.37
3591.36
3564.67
3527.31
3479.27
3420.56
3351.17
3271.1
3180.35
3078.93
2966.82
2844.04
2710.57
2566.43
2411.6
1902.04
1889.9
1878.16
1866.79
)


20
(
4760.92
4752.11
4725.69
4681.67
4620.03
4540.78
4443.92
4329.45
4197.36
4047.67
3880.35
3695.43
3492.88
3272.73
3034.95
2779.55
1939.03
1919.01
1899.64
1880.88
)


20
(
5851.18
5839.05
5802.64
5741.97
5657.03
5547.83
5414.35
5256.6
5074.58
4868.29
4637.73
4382.9
4103.8
3800.42
3472.76
3120.83
1962.6
1935.01
1908.32
1882.47
)


20
(
6866.63
6851.36
6805.54
6729.18
6622.28
6484.84
6316.85
6118.32
5889.24
5629.61
5339.44
5018.72
4667.46
4285.64
3873.28
3430.36
1972.7
1937.98
1904.38
1871.85
)


20
(
7791.51
7773.34
7718.84
7628
7500.82
7337.31
7137.46
6901.27
6628.74
6319.88
5974.67
5593.13
5175.24
4721.01
4230.44
3703.53
1969.42
1928.11
1888.15
1849.45
)


20
(
8611.45
8590.68
8528.34
8424.45
8279.01
8092
7863.44
7593.33
7281.65
6928.42
6533.62
6097.27
5619.35
5099.88
4538.84
3936.24
1953.04
1905.8
1860.1
1815.84
)


20
(
9313.7
9290.64
9221.46
9106.16
8944.74
8737.2
8483.53
8183.75
7837.84
7445.81
7007.65
6523.37
5992.97
5416.44
4793.78
4124.99
1923.99
1871.56
1820.84
1771.72
)


20
(
9887.31
9862.33
9787.4
9662.5
9487.65
9262.84
8988.07
8663.35
8288.66
7864.02
7389.41
6864.84
6290.31
5665.82
4991.37
4266.95
1882.85
1826.06
1771.11
1717.91
)


20
(
10323.3
10296.8
10217.3
10084.8
9899.27
9660.74
9369.21
9024.66
8627.11
8176.55
7672.98
7116.4
6506.8
5844.2
5128.58
4359.95
1830.36
1770.1
1711.81
1655.35
)


20
(
10614.9
10587.3
10504.5
10366.5
10173.2
9924.7
9620.99
9262.06
8847.91
8378.54
7853.94
7274.13
6639.09
5948.82
5203.33
4402.61
1767.42
1704.65
1643.92
1585.11
)


20
(
10757.6
10729.3
10644.5
10503.1
10305.1
10050.6
9739.5
9371.85
8947.63
8466.85
7929.51
7335.6
6685.13
5978.09
5214.48
4394.3
1695.07
1630.77
1568.57
1508.33
)


20
(
10749.1
10720.6
10635.1
10492.6
10293
10036.5
9722.91
9352.33
8924.74
8440.14
7898.52
7299.89
6644.24
5931.58
5161.9
4335.2
1614.5
1549.69
1486.99
1426.27
)


20
(
10589.7
10561.4
10476.5
10335.1
10137.2
9882.64
9571.55
9203.89
8779.67
8298.88
7761.53
7167.62
6517.14
5810.09
5046.47
4226.29
1527.03
1462.73
1400.53
1340.29
)


20
(
10281.8
10254.2
10171.4
10033.3
9840.07
9591.57
9287.86
8928.92
8514.76
8045.37
7520.76
6940.93
6305.88
5615.6
4870.09
4069.36
1434.11
1371.34
1310.61
1251.8
)


20
(
9830.52
9804.01
9724.5
9591.98
9406.45
9167.9
8876.36
8531.8
8134.23
7683.65
7180.06
6623.45
6013.84
5351.21
4635.57
3866.92
1337.25
1276.99
1218.69
1162.24
)


20
(
9242.74
9217.76
9142.82
9017.92
8843.06
8618.23
8343.45
8018.7
7644
7219.33
6744.69
6220.1
5645.54
5021.02
4346.53
3622.08
1237.88
1181.08
1126.14
1072.93
)


20
(
8527.36
8504.3
8435.12
8319.8
8158.37
7950.81
7697.12
7397.31
7051.38
6659.32
6221.13
5736.82
5206.37
4629.81
4007.11
3338.29
1137.16
1084.72
1034
984.876
)


20
(
7694.55
7673.76
7611.42
7507.52
7362.06
7175.04
6946.46
6676.31
6364.6
6011.34
5616.51
5180.12
4702.16
4182.64
3621.56
3018.92
1035.58
988.339
942.633
898.37
)


20
(
6755.21
6737.04
6682.53
6591.67
6464.48
6300.94
6101.06
5864.84
5592.28
5283.37
4938.13
4556.53
4138.6
3684.32
3193.7
2666.73
932.458
891.146
851.179
812.474
)


20
(
5719.68
5704.4
5658.58
5582.21
5475.28
5337.81
5169.79
4971.22
4742.1
4482.43
4192.21
3871.44
3520.12
3138.25
2725.83
2282.85
825.003
790.276
756.68
724.144
)


20
(
4596.51
4584.38
4547.96
4487.28
4402.31
4293.08
4159.56
4001.77
3819.71
3613.37
3382.75
3127.86
2848.69
2545.25
2217.53
1865.53
707.082
679.486
652.79
626.936
)


20
(
3390.89
3382.08
3355.66
3311.61
3249.95
3170.67
3073.77
2959.26
2827.12
2677.37
2510
2325.01
2122.4
1902.17
1664.33
1408.86
568.11
548.082
528.707
509.944
)


20
(
2107.81
2102.47
2086.45
2059.74
2022.35
1974.28
1915.52
1846.08
1765.96
1675.15
1573.66
1461.49
1338.63
1205.09
1060.87
905.964
396.158
384.014
372.265
360.887
)


20
(
766.686
764.895
759.524
750.573
738.041
721.928
702.235
678.962
652.108
621.673
587.658
550.063
508.887
464.131
415.795
363.878
193.019
188.949
185.012
181.198
)


20
(
2459.34
2457.54
2452.12
2443.09
2430.45
2414.19
2394.33
2370.85
2343.75
2313.04
2278.72
2240.78
2199.22
2154.05
2105.26
2052.84
1880.34
1876.23
1872.26
1868.41
)


20
(
3661.57
3656.17
3639.97
3612.98
3575.19
3526.6
3467.21
3397.03
3316.04
3224.26
3121.67
3008.29
2884.1
2749.1
2603.31
2446.71
1931.32
1919.04
1907.16
1895.66
)


20
(
4823.02
4814.12
4787.4
4742.87
4680.53
4600.37
4502.4
4386.62
4253.02
4101.61
3932.38
3745.34
3540.47
3317.79
3077.3
2818.98
1968.83
1948.58
1928.99
1910.01
)


20
(
5925.8
5913.52
5876.7
5815.34
5729.43
5618.97
5483.96
5324.41
5140.31
4931.66
4698.46
4440.71
4158.4
3851.55
3520.14
3164.18
1992.69
1964.78
1937.79
1911.64
)


20
(
6952.82
6937.37
6891.03
6813.8
6705.67
6566.65
6396.74
6195.93
5964.23
5701.63
5408.14
5083.75
4728.46
4342.27
3925.18
3477.2
2002.84
1967.72
1933.74
1900.84
)


20
(
7888.15
7869.78
7814.65
7722.77
7594.13
7428.75
7226.61
6987.72
6712.07
6399.66
6050.51
5664.59
5241.92
4782.49
4286.3
3753.35
1999.39
1957.6
1917.18
1878.04
)


20
(
8717.27
8696.25
8633.21
8528.13
8381.01
8191.87
7960.69
7687.48
7372.24
7014.96
6615.64
6174.29
5690.9
5165.47
4598.01
3988.51
1982.6
1934.82
1888.59
1843.82
)


20
(
9427.27
9403.94
9333.97
9217.35
9054.08
8844.16
8587.59
8284.37
7934.5
7537.98
7094.8
6604.98
6068.5
5485.36
4855.58
4179.13
1952.92
1899.89
1848.58
1798.9
)


20
(
10007.1
9981.82
9906.02
9779.7
9602.84
9375.46
9097.55
8769.1
8390.12
7960.61
7480.57
6950
6368.89
5737.24
5055.06
4322.34
1910.94
1853.49
1797.92
1744.11
)


20
(
10447.7
10420.9
10340.4
10206.4
10018.7
9777.49
9482.61
9134.12
8732.01
8276.29
7766.95
7204
6587.42
5917.23
5193.42
4415.98
1857.41
1796.47
1737.5
1680.4
)


20
(
10742.1
10714.2
10630.4
10490.8
10295.3
10044
9736.78
9373.74
8954.85
8480.1
7949.5
7363.04
6720.72
6022.55
5268.52
4458.64
1793.26
1729.77
1668.34
1608.86
)


20
(
10885.9
10857.3
10771.4
10628.4
10428.2
10170.7
9856.09
9484.23
9055.15
8568.87
8025.37
7424.66
6766.73
6051.6
5279.24
4449.67
1719.52
1654.49
1591.57
1530.64
)


20
(
10876.7
10847.8
10761.3
10617.2
10415.4
10155.9
9838.7
9463.88
9031.39
8541.24
7993.42
7387.93
6724.77
6003.94
5225.45
4389.28
1637.42
1571.86
1508.45
1447.03
)


20
(
10714.7
10686.1
10600.3
10457.3
10257
9999.6
9684.94
9313.07
8883.99
8397.7
7854.19
7253.47
6595.54
5880.4
5108.03
4278.46
1548.28
1483.24
1420.33
1359.4
)


20
(
10402.7
10374.7
10290.9
10151.3
9955.82
9704.48
9397.28
9034.23
8615.33
8140.57
7609.95
7023.48
6381.15
5682.96
4928.92
4119.01
1453.58
1390.09
1328.66
1269.18
)


20
(
9945.42
9918.61
9838.19
9704.15
9516.49
9275.22
8980.33
8631.82
8229.7
7773.96
7264.6
6701.62
6085.02
5414.81
4690.97
3913.51
1354.86
1293.91
1234.95
1177.85
)


20
(
9350.17
9324.9
9249.1
9122.77
8945.9
8718.51
8440.57
8112.11
7733.11
7303.58
6823.51
6292.9
5711.76
5080.09
4397.88
3665.13
1253.61
1196.17
1140.6
1086.78
)


20
(
8625.9
8602.57
8532.59
8415.96
8252.68
8042.74
7786.15
7482.9
7133.01
6736.45
6293.25
5803.39
5266.87
4683.7
4053.87
3377.38
1151.04
1098.01
1046.7
997.015
)


20
(
7782.94
7761.92
7698.87
7593.78
7446.65
7257.48
7026.28
6753.04
6437.77
6080.45
5681.1
5239.71
4756.28
4230.81
3663.3
3053.75
1047.7
999.918
953.689
908.918
)


20
(
6832.4
6814.02
6758.88
6666.99
6538.33
6372.92
6170.76
5931.83
5656.14
5343.7
4994.5
4608.53
4185.81
3726.33
3230.09
2697.08
942.946
901.16
860.736
821.588
)


20
(
5784.73
5769.28
5722.93
5645.68
5537.54
5398.49
5228.55
5027.7
4795.96
4533.31
4239.77
3915.32
3559.98
3173.73
2756.59
2308.54
833.988
798.863
764.882
731.973
)


20
(
4648.6
4636.32
4599.49
4538.11
4452.17
4341.68
4206.64
4047.04
3862.89
3654.19
3420.93
3163.12
2880.76
2573.83
2242.36
1886.33
714.613
686.701
659.699
633.549
)


20
(
3429.14
3420.23
3393.5
3348.95
3286.58
3206.39
3108.39
2992.56
2858.91
2707.44
2538.15
2351.05
2146.12
1923.37
1682.8
1424.4
574.022
553.765
534.168
515.19
)


20
(
2131.25
2125.84
2109.64
2082.62
2044.8
1996.18
1936.75
1866.52
1785.47
1693.63
1590.98
1477.52
1353.26
1218.19
1072.31
915.63
399.985
387.702
375.819
364.311
)


20
(
774.548
772.737
767.305
758.251
745.576
729.279
709.36
685.82
658.658
627.875
593.471
555.445
513.798
468.529
419.639
367.128
194.312
190.195
186.213
182.356
)


20
(
2418.6
2416.82
2411.48
2402.56
2390.09
2374.05
2354.44
2331.27
2304.53
2274.22
2240.35
2202.9
2161.89
2117.31
2069.16
2017.43
1847.19
1843.13
1839.21
1835.41
)


20
(
3604.86
3599.53
3583.55
3556.91
3519.62
3471.66
3413.06
3343.79
3263.87
3173.29
3072.05
2960.15
2837.59
2704.37
2560.48
2405.94
1897.31
1885.19
1873.47
1862.12
)


20
(
4750.97
4742.18
4715.82
4671.87
4610.35
4531.24
4434.56
4320.29
4188.45
4039.03
3872.02
3687.43
3485.25
3265.5
3028.15
2773.23
1934.24
1914.25
1894.92
1876.19
)


20
(
5839.27
5827.15
5790.82
5730.26
5645.47
5536.46
5403.23
5245.77
5064.08
4858.17
4628.03
4373.66
4095.07
3792.24
3465.18
3113.89
1957.78
1930.24
1903.6
1877.8
)


20
(
6852.89
6837.65
6791.92
6715.7
6608.99
6471.8
6304.11
6105.94
5877.28
5618.13
5328.49
5008.35
4657.73
4276.61
3865
3422.89
1967.89
1933.23
1899.7
1867.22
)


20
(
7776.12
7757.99
7703.58
7612.91
7485.97
7322.75
7123.26
6887.51
6615.48
6307.17
5962.6
5581.75
5164.62
4711.23
4221.55
3695.6
1964.66
1923.42
1883.53
1844.9
)


20
(
8594.62
8573.88
8511.66
8407.96
8262.78
8076.12
7847.98
7578.35
7267.25
6914.66
6520.58
6085.02
5607.98
5089.45
4529.44
3927.93
1948.36
1901.2
1855.58
1811.4
)


20
(
9295.65
9272.64
9203.58
9088.49
8927.36
8720.2
8467
8167.76
7822.48
7431.16
6993.81
6510.41
5980.97
5405.49
4783.97
4116.41
1919.42
1867.08
1816.45
1767.42
)


20
(
9868.29
9843.35
9768.56
9643.89
9469.36
9244.96
8970.69
8646.56
8272.56
7848.68
7374.94
6851.33
6277.85
5654.5
4981.27
4258.18
1878.42
1821.74
1766.89
1713.78
)


20
(
10303.6
10277.1
10197.8
10065.5
9880.31
9642.22
9351.21
9007.3
8610.47
8160.73
7658.07
7102.51
6494.03
5832.63
5118.32
4351.09
1826.11
1765.97
1707.78
1651.43
)


20
(
10594.8
10567.2
10484.5
10346.7
10153.8
9905.78
9602.62
9244.35
8830.95
8362.44
7838.8
7260.04
6626.16
5937.15
5193.02
4393.77
1763.38
1700.72
1640.1
1581.4
)


20
(
10737.3
10709
10624.3
10483.2
10285.6
10031.5
9721.01
9354.03
8930.59
8450.69
7914.32
7321.5
6672.21
5966.46
5204.25
4385.57
1691.26
1627.08
1564.99
1504.86
)


20
(
10728.9
10700.4
10615.1
10472.8
10273.6
10017.6
9704.56
9334.66
8907.85
8424.13
7883.5
7285.96
6631.51
5920.14
5151.86
4326.68
1610.94
1546.25
1483.66
1423.05
)


20
(
10569.8
10541.6
10456.9
10315.8
10118.2
9864.11
9553.58
9186.59
8763.15
8283.24
7746.87
7154.04
6504.74
5798.98
5036.76
4218.07
1523.74
1459.56
1397.47
1337.34
)


20
(
10262.7
10235.1
10152.4
10014.6
9821.73
9573.68
9270.52
8912.24
8498.83
8030.3
7506.65
6927.88
6293.98
5604.96
4860.81
4061.54
1431.1
1368.44
1307.83
1249.12
)


20
(
9812.31
9785.85
9706.49
9574.21
9389.01
9150.91
8859.89
8515.96
8119.11
7669.36
7166.68
6611.1
6002.59
5341.18
4626.84
3859.59
1334.53
1274.38
1216.19
1159.84
)


20
(
9225.72
9200.79
9125.98
9001.31
8826.77
8602.35
8328.07
8003.92
7629.89
7206
6732.23
6208.59
5635.08
5011.7
4338.44
3615.31
1235.46
1178.77
1123.93
1070.81
)


20
(
8511.76
8488.74
8419.68
8304.58
8143.43
7936.25
7683.03
7383.77
7038.46
6647.12
6209.73
5726.3
5196.82
4621.31
3999.75
3332.14
1135.03
1082.69
1032.06
983.026
)


20
(
7680.55
7659.8
7597.58
7493.87
7348.67
7161.99
6933.82
6664.17
6353.03
6000.41
5606.3
5170.7
4693.62
4175.05
3614.99
3013.45
1033.73
986.573
940.951
896.768
)


20
(
6742.99
6724.85
6670.44
6579.75
6452.79
6289.55
6090.04
5854.25
5582.18
5273.84
4929.22
4548.33
4131.15
3677.7
3187.98
2661.97
930.861
889.624
849.731
811.096
)


20
(
5709.39
5694.14
5648.4
5572.17
5465.44
5328.22
5160.51
4962.3
4733.6
4474.4
4184.71
3864.53
3513.85
3132.67
2721
2278.83
823.644
788.979
755.444
722.968
)


20
(
4588.29
4576.17
4539.83
4479.25
4394.44
4285.41
4152.14
3994.64
3812.9
3606.94
3376.74
3122.32
2843.66
2540.77
2213.64
1862.28
705.953
678.408
651.76
625.954
)


20
(
3384.87
3376.08
3349.7
3305.73
3244.19
3165.05
3068.33
2954.02
2822.13
2672.65
2505.58
2320.93
2118.69
1898.87
1661.45
1406.45
567.236
547.245
527.905
509.176
)


20
(
2104.13
2098.8
2082.8
2056.14
2018.82
1970.84
1912.19
1842.88
1762.9
1672.26
1570.95
1458.99
1336.35
1203.06
1059.1
904.473
395.597
383.475
371.748
360.391
)


20
(
765.442
763.655
758.294
749.359
736.85
720.767
701.109
677.878
651.073
620.694
586.741
549.215
508.114
463.44
415.191
363.369
192.822
188.759
184.829
181.023
)


20
(
2451.42
2449.62
2444.22
2435.21
2422.6
2406.39
2386.58
2363.16
2336.13
2305.5
2271.27
2233.43
2191.98
2146.92
2098.26
2045.98
1873.93
1869.83
1865.86
1862.02
)


20
(
3650.45
3645.07
3628.92
3601.99
3564.3
3515.84
3456.61
3386.61
3305.83
3214.29
3111.97
2998.88
2875.01
2740.37
2594.95
2438.76
1924.71
1912.47
1900.62
1889.15
)


20
(
4808.85
4799.96
4773.32
4728.9
4666.72
4586.77
4489.06
4373.58
4240.33
4089.31
3920.52
3733.97
3529.64
3307.54
3067.67
2810.02
1962.09
1941.89
1922.35
1903.43
)


20
(
5908.73
5896.48
5859.76
5798.56
5712.87
5602.7
5468.04
5308.91
5125.28
4917.18
4684.58
4427.5
4145.94
3839.88
3509.34
3154.31
1985.87
1958.04
1931.11
1905.03
)


20
(
6933.07
6917.66
6871.44
6794.41
6686.57
6547.91
6378.44
6178.16
5947.06
5685.15
5392.42
5068.87
4714.51
4329.33
3913.33
3466.51
1995.99
1960.96
1927.08
1894.26
)


20
(
7865.98
7847.65
7792.67
7701.03
7572.73
7407.78
7206.16
6967.89
6692.96
6381.37
6033.13
5648.22
5226.65
4768.41
4273.52
3741.96
1992.57
1950.89
1910.58
1871.54
)


20
(
8692.98
8672.01
8609.13
8504.32
8357.6
8168.94
7938.37
7665.87
7351.45
6995.1
6596.82
6156.62
5674.49
5150.44
4584.45
3976.54
1975.86
1928.2
1882.1
1837.44
)


20
(
9401.18
9377.91
9308.12
9191.8
9028.96
8819.59
8563.69
8261.26
7912.3
7516.81
7074.79
6586.24
6051.16
5469.55
4841.4
4166.72
1946.31
1893.42
1842.25
1792.69
)


20
(
9979.55
9954.35
9878.75
9752.76
9576.37
9349.57
9072.38
8744.8
8366.81
7938.42
7459.63
6930.43
6350.84
5720.84
5040.44
4309.63
1904.51
1847.22
1791.79
1738.11
)


20
(
10419.1
10392.3
10312.1
10178.4
9991.28
9750.64
9456.54
9108.95
8707.89
8253.36
7745.35
7183.86
6568.89
5900.45
5178.52
4403.11
1851.22
1790.43
1731.62
1674.67
)


20
(
10712.9
10685
10601.4
10462.2
10267.2
10016.5
9710.15
9348.05
8930.25
8456.74
7927.52
7342.59
6701.95
6005.6
5253.53
4445.76
1787.33
1724
1662.74
1603.41
)


20
(
10856.3
10827.8
10742.2
10599.6
10399.9
10143.1
9829.26
9458.37
9030.41
8545.4
8003.31
7404.17
6747.96
6034.69
5264.35
4436.94
1713.91
1649.04
1586.29
1525.52
)


20
(
10847.3
10818.6
10732.3
10588.5
10387.2
10128.4
9812.05
9438.21
9006.85
8517.97
7971.58
7367.67
6706.24
5987.29
5210.82
4376.83
1632.15
1566.76
1503.51
1442.26
)


20
(
10685.9
10657.4
10571.8
10429.2
10229.4
9972.67
9658.83
9287.93
8859.97
8374.95
7832.86
7233.71
6577.49
5864.21
5093.86
4266.45
1543.39
1478.52
1415.77
1355
)


20
(
10374.8
10347
10263.4
10124.1
9929.17
9678.48
9372.09
9009.98
8592.17
8118.65
7589.41
7004.47
6363.82
5667.45
4915.37
4107.58
1449.09
1385.77
1324.5
1265.17
)


20
(
9918.96
9892.22
9812.01
9678.31
9491.15
9250.5
8956.38
8608.79
8207.71
7753.16
7245.13
6683.62
6068.63
5400.16
4678.21
3902.78
1350.8
1290.01
1231.2
1174.24
)


20
(
9325.43
9300.23
9224.62
9098.62
8922.22
8695.41
8418.21
8090.6
7712.58
7284.17
6805.35
6276.13
5696.51
5066.48
4386.04
3655.21
1249.98
1192.69
1137.26
1083.58
)


20
(
8603.2
8579.94
8510.14
8393.81
8230.96
8021.56
7765.64
7463.19
7114.2
6718.69
6276.63
5788.05
5252.93
4671.28
4043.09
3368.37
1147.83
1094.94
1043.77
994.208
)


20
(
7762.58
7741.62
7678.73
7573.91
7427.17
7238.49
7007.89
6735.37
6420.91
6064.53
5666.22
5225.98
4743.81
4219.71
3653.68
3045.72
1044.9
997.241
951.132
906.479
)


20
(
6814.62
6796.29
6741.29
6649.64
6521.32
6356.34
6154.7
5916.4
5641.43
5329.8
4981.51
4596.55
4174.93
3716.65
3221.7
2690.09
940.521
898.844
858.525
819.479
)


20
(
5769.74
5754.33
5708.11
5631.06
5523.2
5384.51
5215.01
5014.69
4783.55
4521.59
4228.81
3905.21
3550.79
3165.55
2749.5
2302.61
831.91
796.876
762.984
730.161
)


20
(
4636.6
4624.35
4587.62
4526.4
4440.68
4330.48
4195.79
4036.61
3852.94
3644.78
3412.14
3155
2873.37
2567.24
2236.63
1881.53
712.87
685.031
658.099
632.017
)


20
(
3420.33
3411.44
3384.78
3340.35
3278.14
3198.16
3100.41
2984.88
2851.58
2700.51
2531.66
2345.04
2140.65
1918.48
1678.53
1420.82
572.653
552.449
532.903
513.974
)


20
(
2125.84
2120.46
2104.29
2077.35
2039.63
1991.13
1931.86
1861.8
1780.97
1689.37
1586.98
1473.82
1349.88
1215.17
1069.67
913.398
399.097
386.846
374.994
363.516
)


20
(
772.737
770.931
765.513
756.482
743.84
727.585
707.719
684.24
657.149
626.446
592.132
554.205
512.666
467.516
418.753
366.379
194.013
189.907
185.935
182.088
)


20
(
2451.42
2449.62
2444.22
2435.21
2422.6
2406.39
2386.58
2363.16
2336.13
2305.5
2271.27
2233.43
2191.98
2146.92
2098.26
2045.98
1873.93
1869.83
1865.86
1862.02
)


20
(
3650.45
3645.07
3628.92
3601.99
3564.3
3515.84
3456.61
3386.61
3305.83
3214.29
3111.97
2998.88
2875.01
2740.37
2594.95
2438.76
1924.71
1912.47
1900.62
1889.15
)


20
(
4808.85
4799.96
4773.32
4728.9
4666.72
4586.77
4489.06
4373.58
4240.33
4089.31
3920.53
3733.97
3529.64
3307.54
3067.67
2810.02
1962.09
1941.89
1922.35
1903.43
)


20
(
5908.73
5896.48
5859.76
5798.56
5712.87
5602.7
5468.04
5308.91
5125.28
4917.18
4684.58
4427.5
4145.94
3839.88
3509.34
3154.31
1985.87
1958.04
1931.11
1905.03
)


20
(
6933.07
6917.66
6871.44
6794.41
6686.57
6547.91
6378.44
6178.16
5947.06
5685.15
5392.42
5068.87
4714.51
4329.33
3913.33
3466.5
1995.99
1960.96
1927.08
1894.26
)


20
(
7865.98
7847.65
7792.67
7701.03
7572.73
7407.77
7206.16
6967.89
6692.96
6381.37
6033.13
5648.22
5226.65
4768.41
4273.52
3741.96
1992.57
1950.89
1910.58
1871.54
)


20
(
8692.98
8672.01
8609.13
8504.32
8357.6
8168.94
7938.37
7665.87
7351.45
6995.1
6596.82
6156.62
5674.49
5150.44
4584.45
3976.54
1975.86
1928.2
1882.1
1837.44
)


20
(
9401.18
9377.91
9308.12
9191.8
9028.96
8819.59
8563.69
8261.26
7912.3
7516.81
7074.79
6586.24
6051.16
5469.55
4841.4
4166.72
1946.31
1893.42
1842.25
1792.69
)


20
(
9979.55
9954.35
9878.75
9752.76
9576.37
9349.57
9072.38
8744.8
8366.81
7938.42
7459.63
6930.43
6350.84
5720.84
5040.44
4309.63
1904.51
1847.22
1791.79
1738.11
)


20
(
10419.1
10392.3
10312.1
10178.4
9991.28
9750.64
9456.54
9108.95
8707.89
8253.36
7745.35
7183.86
6568.89
5900.45
5178.52
4403.11
1851.22
1790.43
1731.62
1674.67
)


20
(
10712.9
10685
10601.4
10462.2
10267.2
10016.5
9710.14
9348.05
8930.25
8456.74
7927.52
7342.59
6701.95
6005.6
5253.53
4445.76
1787.33
1724
1662.74
1603.41
)


20
(
10856.3
10827.8
10742.2
10599.6
10399.9
10143.1
9829.26
9458.37
9030.41
8545.39
8003.31
7404.17
6747.96
6034.68
5264.34
4436.94
1713.91
1649.04
1586.29
1525.52
)


20
(
10847.3
10818.6
10732.3
10588.5
10387.2
10128.4
9812.05
9438.21
9006.85
8517.97
7971.58
7367.66
6706.24
5987.29
5210.82
4376.83
1632.15
1566.76
1503.51
1442.26
)


20
(
10685.9
10657.4
10571.8
10429.2
10229.4
9972.67
9658.83
9287.93
8859.97
8374.95
7832.86
7233.71
6577.49
5864.21
5093.86
4266.45
1543.39
1478.52
1415.77
1355
)


20
(
10374.8
10347
10263.4
10124.1
9929.17
9678.48
9372.09
9009.98
8592.17
8118.65
7589.41
7004.47
6363.81
5667.45
4915.37
4107.58
1449.09
1385.77
1324.5
1265.17
)


20
(
9918.96
9892.22
9812.01
9678.31
9491.15
9250.5
8956.38
8608.79
8207.71
7753.16
7245.13
6683.62
6068.63
5400.16
4678.21
3902.78
1350.8
1290.01
1231.2
1174.24
)


20
(
9325.43
9300.23
9224.62
9098.62
8922.22
8695.41
8418.2
8090.6
7712.58
7284.17
6805.35
6276.13
5696.51
5066.48
4386.04
3655.21
1249.98
1192.69
1137.26
1083.58
)


20
(
8603.2
8579.94
8510.14
8393.81
8230.95
8021.56
7765.64
7463.19
7114.2
6718.68
6276.63
5788.05
5252.93
4671.28
4043.09
3368.37
1147.83
1094.94
1043.77
994.208
)


20
(
7762.58
7741.62
7678.73
7573.91
7427.17
7238.49
7007.89
6735.37
6420.91
6064.53
5666.22
5225.98
4743.81
4219.71
3653.68
3045.72
1044.9
997.241
951.132
906.479
)


20
(
6814.62
6796.29
6741.29
6649.64
6521.32
6356.34
6154.7
5916.4
5641.43
5329.8
4981.51
4596.55
4174.93
3716.65
3221.7
2690.08
940.521
898.844
858.525
819.479
)


20
(
5769.74
5754.33
5708.11
5631.06
5523.19
5384.51
5215.01
5014.69
4783.55
4521.59
4228.81
3905.21
3550.79
3165.55
2749.49
2302.61
831.91
796.876
762.984
730.161
)


20
(
4636.6
4624.35
4587.62
4526.4
4440.69
4330.48
4195.79
4036.61
3852.94
3644.79
3412.14
3155
2873.37
2567.24
2236.63
1881.53
712.87
685.031
658.099
632.018
)


20
(
3420.33
3411.44
3384.78
3340.35
3278.14
3198.16
3100.41
2984.88
2851.58
2700.51
2531.66
2345.04
2140.65
1918.48
1678.54
1420.82
572.653
552.449
532.903
513.974
)


20
(
2125.84
2120.46
2104.29
2077.35
2039.63
1991.13
1931.86
1861.8
1780.97
1689.37
1586.98
1473.82
1349.88
1215.17
1069.67
913.398
399.097
386.846
374.994
363.516
)


20
(
772.737
770.931
765.513
756.483
743.84
727.585
707.719
684.24
657.149
626.447
592.132
554.205
512.666
467.516
418.753
366.379
194.013
189.907
185.935
182.088
)


20
(
2418.61
2416.82
2411.48
2402.57
2390.09
2374.05
2354.44
2331.27
2304.53
2274.22
2240.35
2202.91
2161.89
2117.31
2069.16
2017.43
1847.19
1843.13
1839.21
1835.41
)


20
(
3604.86
3599.53
3583.55
3556.91
3519.62
3471.67
3413.06
3343.79
3263.87
3173.29
3072.05
2960.15
2837.59
2704.37
2560.49
2405.94
1897.31
1885.19
1873.47
1862.12
)


20
(
4750.98
4742.19
4715.82
4671.87
4610.35
4531.24
4434.56
4320.3
4188.45
4039.03
3872.02
3687.43
3485.26
3265.5
3028.16
2773.23
1934.24
1914.25
1894.92
1876.19
)


20
(
5839.27
5827.16
5790.82
5730.26
5645.48
5536.47
5403.23
5245.77
5064.09
4858.17
4628.03
4373.67
4095.07
3792.24
3465.18
3113.9
1957.78
1930.24
1903.6
1877.8
)


20
(
6852.89
6837.65
6791.92
6715.7
6608.99
6471.8
6304.11
6105.94
5877.28
5618.13
5328.49
5008.35
4657.73
4276.61
3865
3422.89
1967.89
1933.23
1899.7
1867.22
)


20
(
7776.13
7757.99
7703.59
7612.91
7485.97
7322.75
7123.26
6887.51
6615.48
6307.18
5962.6
5581.75
5164.63
4711.23
4221.55
3695.6
1964.66
1923.42
1883.53
1844.9
)


20
(
8594.63
8573.89
8511.67
8407.97
8262.78
8076.12
7847.98
7578.35
7267.25
6914.66
6520.58
6085.03
5607.98
5089.45
4529.44
3927.94
1948.36
1901.2
1855.58
1811.4
)


20
(
9295.65
9272.64
9203.58
9088.49
8927.36
8720.2
8467
8167.76
7822.48
7431.16
6993.81
6510.41
5980.98
5405.5
4783.97
4116.41
1919.42
1867.09
1816.46
1767.42
)


20
(
9868.29
9843.36
9768.56
9643.89
9469.36
9244.96
8970.69
8646.56
8272.56
7848.69
7374.95
6851.34
6277.85
5654.5
4981.28
4258.18
1878.43
1821.74
1766.9
1713.78
)


20
(
10303.6
10277.1
10197.8
10065.5
9880.31
9642.22
9351.21
9007.3
8610.47
8160.73
7658.08
7102.51
6494.03
5832.63
5118.32
4351.1
1826.11
1765.97
1707.78
1651.43
)


20
(
10594.8
10567.2
10484.5
10346.7
10153.8
9905.78
9602.62
9244.35
8830.95
8362.44
7838.8
7260.04
6626.16
5937.15
5193.02
4393.77
1763.38
1700.72
1640.1
1581.4
)


20
(
10737.3
10709
10624.3
10483.2
10285.6
10031.5
9721.01
9354.03
8930.59
8450.69
7914.32
7321.5
6672.21
5966.46
5204.25
4385.57
1691.26
1627.08
1564.99
1504.86
)


20
(
10728.9
10700.4
10615.1
10472.8
10273.6
10017.6
9704.56
9334.66
8907.85
8424.13
7883.5
7285.96
6631.51
5920.14
5151.87
4326.68
1610.94
1546.25
1483.66
1423.05
)


20
(
10569.8
10541.6
10456.9
10315.8
10118.2
9864.11
9553.58
9186.59
8763.15
8283.24
7746.87
7154.04
6504.74
5798.98
5036.76
4218.08
1523.74
1459.56
1397.47
1337.34
)


20
(
10262.7
10235.1
10152.4
10014.6
9821.73
9573.69
9270.52
8912.24
8498.83
8030.3
7506.65
6927.88
6293.98
5604.96
4860.82
4061.54
1431.11
1368.45
1307.83
1249.12
)


20
(
9812.31
9785.86
9706.49
9574.21
9389.01
9150.91
8859.89
8515.96
8119.12
7669.36
7166.69
6611.1
6002.6
5341.18
4626.84
3859.59
1334.53
1274.39
1216.2
1159.84
)


20
(
9225.72
9200.79
9125.99
9001.31
8826.77
8602.36
8328.07
8003.92
7629.89
7206
6732.23
6208.6
5635.08
5011.7
4338.45
3615.32
1235.46
1178.77
1123.93
1070.82
)


20
(
8511.76
8488.74
8419.68
8304.58
8143.44
7936.25
7683.03
7383.77
7038.46
6647.12
6209.73
5726.3
5196.83
4621.31
3999.75
3332.15
1135.03
1082.69
1032.06
983.026
)


20
(
7680.55
7659.81
7597.58
7493.87
7348.67
7161.99
6933.82
6664.17
6353.03
6000.41
5606.3
5170.7
4693.62
4175.05
3614.99
3013.45
1033.73
986.574
940.951
896.769
)


20
(
6742.99
6724.86
6670.44
6579.75
6452.79
6289.55
6090.04
5854.25
5582.18
5273.84
4929.22
4548.33
4131.15
3677.7
3187.98
2661.97
930.862
889.625
849.732
811.097
)


20
(
5709.39
5694.14
5648.4
5572.17
5465.44
5328.22
5160.51
4962.3
4733.6
4474.4
4184.71
3864.53
3513.85
3132.67
2721
2278.83
823.644
788.98
755.445
722.969
)


20
(
4588.29
4576.18
4539.83
4479.25
4394.45
4285.41
4152.14
3994.64
3812.91
3606.94
3376.75
3122.32
2843.66
2540.77
2213.64
1862.29
705.954
678.409
651.761
625.955
)


20
(
3384.87
3376.08
3349.7
3305.74
3244.19
3165.05
3068.33
2954.02
2822.13
2672.65
2505.58
2320.93
2118.69
1898.87
1661.45
1406.45
567.237
547.246
527.906
509.177
)


20
(
2104.13
2098.8
2082.8
2056.15
2018.82
1970.84
1912.19
1842.88
1762.9
1672.26
1570.95
1458.99
1336.35
1203.06
1059.1
904.474
395.598
383.476
371.749
360.392
)


20
(
765.442
763.655
758.294
749.359
736.85
720.767
701.11
677.879
651.073
620.694
586.742
549.215
508.114
463.44
415.191
363.37
192.822
188.759
184.829
181.023
)


20
(
2459.34
2457.54
2452.12
2443.09
2430.45
2414.19
2394.33
2370.85
2343.75
2313.04
2278.72
2240.78
2199.22
2154.05
2105.26
2052.84
1880.34
1876.23
1872.26
1868.41
)


20
(
3661.57
3656.17
3639.97
3612.98
3575.19
3526.6
3467.21
3397.03
3316.04
3224.26
3121.67
3008.29
2884.1
2749.1
2603.31
2446.71
1931.32
1919.04
1907.16
1895.66
)


20
(
4823.02
4814.12
4787.4
4742.87
4680.53
4600.37
4502.4
4386.62
4253.02
4101.61
3932.38
3745.34
3540.47
3317.79
3077.3
2818.98
1968.83
1948.58
1928.99
1910.01
)


20
(
5925.8
5913.52
5876.71
5815.34
5729.43
5618.97
5483.96
5324.41
5140.31
4931.66
4698.46
4440.71
4158.4
3851.55
3520.14
3164.18
1992.69
1964.78
1937.79
1911.64
)


20
(
6952.82
6937.37
6891.03
6813.8
6705.67
6566.65
6396.74
6195.93
5964.23
5701.63
5408.14
5083.75
4728.46
4342.27
3925.18
3477.2
2002.84
1967.72
1933.74
1900.84
)


20
(
7888.15
7869.78
7814.65
7722.77
7594.13
7428.75
7226.61
6987.71
6712.07
6399.66
6050.51
5664.59
5241.92
4782.49
4286.3
3753.35
1999.39
1957.6
1917.18
1878.04
)


20
(
8717.27
8696.25
8633.21
8528.13
8381.01
8191.87
7960.69
7687.48
7372.24
7014.96
6615.64
6174.29
5690.9
5165.47
4598.01
3988.51
1982.6
1934.82
1888.59
1843.82
)


20
(
9427.27
9403.94
9333.97
9217.35
9054.08
8844.16
8587.59
8284.37
7934.5
7537.98
7094.8
6604.98
6068.5
5485.36
4855.57
4179.13
1952.92
1899.89
1848.58
1798.9
)


20
(
10007.1
9981.82
9906.02
9779.7
9602.84
9375.46
9097.55
8769.1
8390.12
7960.61
7480.57
6950
6368.89
5737.24
5055.06
4322.34
1910.94
1853.49
1797.92
1744.11
)


20
(
10447.7
10420.9
10340.4
10206.4
10018.7
9777.49
9482.61
9134.12
8732.01
8276.29
7766.95
7204
6587.42
5917.23
5193.42
4415.98
1857.41
1796.47
1737.5
1680.4
)


20
(
10742.1
10714.2
10630.4
10490.8
10295.3
10044
9736.78
9373.74
8954.85
8480.1
7949.5
7363.04
6720.72
6022.55
5268.52
4458.64
1793.26
1729.77
1668.34
1608.86
)


20
(
10885.9
10857.3
10771.4
10628.4
10428.2
10170.7
9856.09
9484.23
9055.15
8568.87
8025.37
7424.66
6766.73
6051.6
5279.24
4449.67
1719.52
1654.49
1591.57
1530.64
)


20
(
10876.7
10847.8
10761.3
10617.2
10415.3
10155.9
9838.7
9463.88
9031.39
8541.24
7993.42
7387.93
6724.77
6003.94
5225.45
4389.28
1637.42
1571.86
1508.45
1447.03
)


20
(
10714.7
10686.1
10600.3
10457.3
10257
9999.59
9684.94
9313.07
8883.99
8397.7
7854.19
7253.47
6595.54
5880.39
5108.03
4278.46
1548.28
1483.24
1420.33
1359.4
)


20
(
10402.6
10374.7
10290.9
10151.3
9955.82
9704.48
9397.28
9034.23
8615.33
8140.57
7609.95
7023.48
6381.15
5682.96
4928.92
4119.01
1453.58
1390.09
1328.66
1269.18
)


20
(
9945.42
9918.61
9838.19
9704.15
9516.49
9275.22
8980.33
8631.82
8229.7
7773.96
7264.6
6701.62
6085.02
5414.81
4690.97
3913.51
1354.86
1293.91
1234.95
1177.85
)


20
(
9350.17
9324.9
9249.1
9122.77
8945.9
8718.51
8440.57
8112.11
7733.11
7303.58
6823.51
6292.9
5711.76
5080.09
4397.88
3665.13
1253.61
1196.17
1140.6
1086.78
)


20
(
8625.9
8602.57
8532.59
8415.96
8252.68
8042.74
7786.15
7482.9
7133.01
6736.45
6293.25
5803.39
5266.87
4683.7
4053.87
3377.38
1151.04
1098.01
1046.7
997.014
)


20
(
7782.94
7761.92
7698.87
7593.78
7446.65
7257.48
7026.28
6753.04
6437.77
6080.45
5681.1
5239.71
4756.28
4230.81
3663.3
3053.75
1047.7
999.918
953.689
908.918
)


20
(
6832.4
6814.02
6758.88
6666.99
6538.33
6372.92
6170.76
5931.83
5656.14
5343.7
4994.5
4608.53
4185.81
3726.33
3230.09
2697.08
942.946
901.16
860.736
821.588
)


20
(
5784.73
5769.28
5722.93
5645.68
5537.54
5398.49
5228.54
5027.7
4795.96
4533.31
4239.77
3915.32
3559.98
3173.73
2756.59
2308.54
833.988
798.863
764.882
731.973
)


20
(
4648.6
4636.32
4599.49
4538.11
4452.17
4341.68
4206.64
4047.05
3862.9
3654.19
3420.93
3163.12
2880.76
2573.84
2242.36
1886.33
714.613
686.701
659.699
633.549
)


20
(
3429.14
3420.23
3393.5
3348.95
3286.58
3206.39
3108.39
2992.56
2858.91
2707.44
2538.16
2351.05
2146.12
1923.37
1682.8
1424.4
574.023
553.766
534.169
515.19
)


20
(
2131.25
2125.84
2109.63
2082.62
2044.8
1996.18
1936.75
1866.51
1785.47
1693.63
1590.98
1477.52
1353.26
1218.19
1072.31