/*--------------------------------*- C++ -*----------------------------------*\
| =========                 |                                                 |
| \\      /  F ield         | OpenFOAM: The Open Source CFD Toolbox           |
|  \\    /   O peration     | Version:  2212                                  |
|   \\  /    A nd           | Website:  www.openfoam.com                      |
|    \\/     M anipulation  |                                                 |
\*---------------------------------------------------------------------------*/
FoamFile
{
    version     2.0;
    format      ascii;
    arch        "LSB;label=32;scalar=64";
    class       volScalarField;
    location    "83/fluidRegion";
    object      Tci.nuclearFuelPin;
}
// * * * * * * * * * * * * * * * * * * * * * * * * * * * * * * * * * * * * * //

dimensions      [0 0 0 1 0 0 0];

internalField   nonuniform List<scalar> 
350
(
0
0
0
0
0
0
0
0
0
0
0
0
0
0
0
0
0
0
0
0
0
0
0
0
0
0
0
0
0
0
0
0
0
0
0
0
0
0
0
0
0
0
0
0
0
0
0
0
0
0
1852
1902.21
1939.19
1962.75
1972.83
1969.55
1953.16
1924.1
1882.95
1830.45
1767.5
1695.15
1614.57
1527.09
1434.17
1337.3
1237.92
1137.2
1035.62
932.487
825.03
707.107
568.133
396.17
193.01
1880.52
1931.49
1968.99
1992.84
2002.98
1999.51
1982.72
1953.03
1911.04
1857.51
1793.34
1719.6
1637.49
1548.34
1453.64
1354.91
1253.66
1151.08
1047.74
942.975
834.015
714.639
574.046
399.998
194.303
1847.36
1897.47
1934.39
1957.92
1968.02
1964.78
1948.47
1919.52
1878.52
1826.2
1763.46
1691.33
1611.01
1523.8
1431.16
1334.58
1235.5
1135.07
1033.76
930.89
823.67
705.978
567.259
395.61
192.813
1874.11
1924.88
1962.25
1986.02
1996.13
1992.69
1975.98
1946.42
1904.61
1851.31
1787.41
1713.98
1632.21
1543.45
1449.15
1350.85
1250.02
1147.87
1044.94
940.55
831.937
712.895
572.676
399.11
194.004
1874.11
1924.88
1962.25
1986.02
1996.13
1992.69
1975.98
1946.42
1904.61
1851.31
1787.41
1713.98
1632.21
1543.45
1449.15
1350.85
1250.02
1147.87
1044.94
940.55
831.937
712.895
572.676
399.11
194.004
1847.37
1897.47
1934.39
1957.92
1968.02
1964.78
1948.47
1919.53
1878.52
1826.2
1763.46
1691.33
1611.01
1523.8
1431.16
1334.58
1235.5
1135.07
1033.77
930.891
823.671
705.979
567.259
395.61
192.813
1880.52
1931.49
1968.99
1992.84
2002.98
1999.51
1982.72
1953.03
1911.04
1857.51
1793.34
1719.6
1637.49
1548.34
1453.64
1354.91
1253.66
1151.08
1047.74
942.975
834.015
714.639
574.046
399.998
194.303
1852
1902.21
1939.19
1962.75
1972.83
1969.55
1953.16
1924.1
1882.95
1830.45
1767.5
1695.15
1614.57
1527.09
1434.17
1337.3
1237.92
1137.19
1035.62
932.487
825.03
707.107
568.133
396.17
193.01
1874.11
1924.88
1962.25
1986.02
1996.13
1992.69
1975.98
1946.42
1904.61
1851.31
1787.41
1713.98
1632.21
1543.45
1449.15
1350.85
1250.02
1147.87
1044.94
940.55
831.937
712.895
572.676
399.11
194.004
1847.36
1897.47
1934.39
1957.92
1968.02
1964.78
1948.47
1919.52
1878.52
1826.2
1763.46
1691.33
1611.01
1523.8
1431.16
1334.58
1235.5
1135.07
1033.76
930.89
823.67
705.978
567.259
395.609
192.813
1847.37
1897.47
1934.39
1957.92
1968.02
1964.78
1948.47
1919.53
1878.52
1826.2
1763.46
1691.33
1611.01
1523.8
1431.16
1334.58
1235.5
1135.07
1033.77
930.891
823.671
705.979
567.259
395.61
192.813
1874.11
1924.88
1962.25
1986.02
1996.13
1992.69
1975.98
1946.42
1904.61
1851.31
1787.41
1713.98
1632.21
1543.45
1449.15
1350.85
1250.02
1147.87
1044.94
940.55
831.937
712.895
572.676
399.11
194.004
)
;

boundaryField
{
    outletCentralUnloaded
    {
        type            zeroGradient;
    }
    inletCentralUnloaded
    {
        type            zeroGradient;
    }
    outletFuelElement
    {
        type            zeroGradient;
    }
    inletFuelElement
    {
        type            zeroGradient;
    }
    defaultFaces
    {
        type            zeroGradient;
    }
    baffle_master
    {
        type            zeroGradient;
    }
    baffle_slave
    {
        type            zeroGradient;
    }
}


// ************************************************************************* //
