/*--------------------------------*- C++ -*----------------------------------*\
| =========                 |                                                 |
| \\      /  F ield         | OpenFOAM: The Open Source CFD Toolbox           |
|  \\    /   O peration     | Version:  2212                                  |
|   \\  /    A nd           | Website:  www.openfoam.com                      |
|    \\/     M anipulation  |                                                 |
\*---------------------------------------------------------------------------*/
FoamFile
{
    version     2.0;
    format      ascii;
    arch        "LSB;label=32;scalar=64";
    class       volScalarField;
    location    "83/fluidRegion";
    object      Tfi.nuclearFuelPin;
}
// * * * * * * * * * * * * * * * * * * * * * * * * * * * * * * * * * * * * * //

dimensions      [0 0 0 1 0 0 0];

internalField   nonuniform List<scalar> 
350
(
0
0
0
0
0
0
0
0
0
0
0
0
0
0
0
0
0
0
0
0
0
0
0
0
0
0
0
0
0
0
0
0
0
0
0
0
0
0
0
0
0
0
0
0
0
0
0
0
0
0
2425.57
3613.97
4762.15
5852.38
6867.8
7792.65
8612.56
9314.77
9888.33
10324.3
10615.9
10758.5
10749.9
10590.4
10282.5
9831.16
9243.33
8527.89
7695.01
6755.62
5720.03
4596.81
3391.13
2107.93
766.632
2460.66
3662.86
4824.29
5927.03
6954.02
7889.32
8718.4
9428.36
10008.1
10448.7
10743.1
10886.8
10877.5
10715.5
10403.4
9946.08
9350.76
8626.43
7783.41
6832.81
5785.09
4648.9
3429.38
2131.37
774.496
2419.89
3606.11
4752.2
5840.46
6854.06
7777.26
8595.72
9296.72
9869.31
10304.6
10595.7
10738.1
10729.7
10570.6
10263.4
9812.96
9226.31
8512.28
7681.01
6743.4
5709.74
4588.59
3385.1
2104.25
765.389
2452.73
3651.74
4810.1
5909.95
6934.26
7867.14
8694.1
9402.26
9980.59
10420.1
10713.8
10857.2
10848.1
10686.7
10375.6
9919.62
9326.02
8603.74
7763.05
6815.03
5770.1
4636.9
3420.56
2125.97
772.685
2452.73
3651.74
4810.1
5909.95
6934.26
7867.14
8694.1
9402.26
9980.59
10420.1
10713.8
10857.2
10848.1
10686.7
10375.6
9919.62
9326.02
8603.73
7763.05
6815.03
5770.1
4636.9
3420.56
2125.97
772.685
2419.89
3606.12
4752.2
5840.47
6854.06
7777.26
8595.73
9296.72
9869.31
10304.6
10595.7
10738.1
10729.7
10570.6
10263.4
9812.96
9226.31
8512.28
7681.01
6743.4
5709.74
4588.59
3385.11
2104.25
765.389
2460.66
3662.86
4824.29
5927.03
6954.02
7889.32
8718.4
9428.36
10008.1
10448.7
10743.1
10886.8
10877.5
10715.5
10403.4
9946.08
9350.76
8626.43
7783.41
6832.81
5785.09
4648.9
3429.38
2131.37
774.496
2425.57
3613.97
4762.15
5852.38
6867.8
7792.65
8612.56
9314.77
9888.33
10324.3
10615.9
10758.5
10749.9
10590.4
10282.5
9831.16
9243.33
8527.89
7695.01
6755.62
5720.03
4596.82
3391.13
2107.93
766.632
2452.73
3651.74
4810.1
5909.95
6934.26
7867.14
8694.1
9402.26
9980.59
10420.1
10713.8
10857.2
10848.1
10686.7
10375.6
9919.62
9326.02
8603.73
7763.05
6815.03
5770.1
4636.9
3420.56
2125.97
772.685
2419.89
3606.12
4752.2
5840.46
6854.06
7777.26
8595.72
9296.71
9869.31
10304.6
10595.7
10738.1
10729.7
10570.6
10263.4
9812.96
9226.31
8512.28
7681.01
6743.4
5709.74
4588.59
3385.1
2104.25
765.389
2419.89
3606.12
4752.2
5840.47
6854.06
7777.26
8595.73
9296.72
9869.31
10304.6
10595.7
10738.1
10729.7
10570.6
10263.4
9812.96
9226.31
8512.28
7681.01
6743.4
5709.74
4588.59
3385.11
2104.25
765.389
2452.73
3651.74
4810.1
5909.95
6934.26
7867.14
8694.1
9402.26
9980.59
10420.1
10713.8
10857.2
10848.1
10686.7
10375.6
9919.62
9326.02
8603.73
7763.05
6815.03
5770.1
4636.9
3420.56
2125.97
772.685
)
;

boundaryField
{
    outletCentralUnloaded
    {
        type            zeroGradient;
    }
    inletCentralUnloaded
    {
        type            zeroGradient;
    }
    outletFuelElement
    {
        type            zeroGradient;
    }
    inletFuelElement
    {
        type            zeroGradient;
    }
    defaultFaces
    {
        type            zeroGradient;
    }
    baffle_master
    {
        type            zeroGradient;
    }
    baffle_slave
    {
        type            zeroGradient;
    }
}


// ************************************************************************* //
