/*--------------------------------*- C++ -*----------------------------------*\
| =========                 |                                                 |
| \\      /  F ield         | OpenFOAM: The Open Source CFD Toolbox           |
|  \\    /   O peration     | Version:  2212                                  |
|   \\  /    A nd           | Website:  www.openfoam.com                      |
|    \\/     M anipulation  |                                                 |
\*---------------------------------------------------------------------------*/
FoamFile
{
    version     2.0;
    format      ascii;
    arch        "LSB;label=32;scalar=64";
    class       scalarFieldField;
    location    "83/fluidRegion";
    object      Trad.nuclearFuelPin;
}
// * * * * * * * * * * * * * * * * * * * * * * * * * * * * * * * * * * * * * //


350
(
0()
0()
0()
0()
0()
0()
0()
0()
0()
0()
0()
0()
0()
0()
0()
0()
0()
0()
0()
0()
0()
0()
0()
0()
0()
0()
0()
0()
0()
0()
0()
0()
0()
0()
0()
0()
0()
0()
0()
0()
0()
0()
0()
0()
0()
0()
0()
0()
0()
0()

20
(
2425.57
2423.78
2418.41
2409.46
2396.93
2380.82
2361.13
2337.86
2311.01
2280.58
2246.58
2208.99
2167.82
2123.07
2074.74
2022.83
1852
1847.93
1843.99
1840.18
)


20
(
3613.97
3608.63
3592.6
3565.89
3528.5
3480.42
3421.66
3352.22
3272.09
3181.28
3079.78
2967.6
2844.74
2711.19
2566.96
2412.04
1902.21
1890.06
1878.31
1866.93
)


20
(
4762.15
4753.34
4726.91
4682.86
4621.19
4541.91
4445
4330.48
4198.33
4048.57
3881.19
3696.19
3493.56
3273.32
3035.46
2779.98
1939.19
1919.16
1899.78
1881.02
)


20
(
5852.38
5840.24
5803.83
5743.14
5658.17
5548.92
5415.4
5257.6
5075.53
4869.17
4638.54
4383.64
4104.45
3800.99
3473.26
3121.24
1962.75
1935.15
1908.45
1882.6
)


20
(
6867.8
6852.53
6806.7
6730.32
6623.39
6485.91
6317.87
6119.29
5890.15
5630.47
5340.23
5019.44
4668.09
4286.2
3873.75
3430.76
1972.83
1938.1
1904.51
1871.97
)


20
(
7792.65
7774.48
7719.96
7629.1
7501.9
7338.35
7138.45
6902.21
6629.63
6320.7
5975.43
5593.82
5175.86
4721.55
4230.9
3703.91
1969.55
1928.23
1888.26
1849.56
)


20
(
8612.56
8591.78
8529.43
8425.52
8280.05
8093.01
7864.41
7594.24
7282.51
6929.22
6534.36
6097.93
5619.95
5100.4
4539.28
3936.6
1953.16
1905.91
1860.2
1815.94
)


20
(
9314.77
9291.7
9222.51
9107.19
8945.74
8738.17
8484.46
8184.63
7838.67
7446.58
7008.36
6524.01
5993.54
5416.93
4794.2
4125.34
1924.1
1871.66
1820.93
1771.81
)


20
(
9888.33
9863.35
9788.4
9663.49
9488.61
9263.77
8988.97
8664.19
8289.46
7864.76
7390.09
6865.46
6290.86
5666.3
4991.77
4267.28
1882.95
1826.15
1771.2
1717.99
)


20
(
10324.3
10297.8
10218.3
10085.7
9900.2
9661.63
9370.06
9025.47
8627.87
8177.25
7673.62
7116.98
6507.32
5844.65
5128.97
4360.27
1830.45
1770.19
1711.89
1655.43
)


20
(
10615.9
10588.3
10505.4
10367.4
10174.1
9925.54
9621.8
9262.83
8848.63
8379.21
7854.56
7274.68
6639.58
5949.25
5203.69
4402.91
1767.5
1704.72
1643.99
1585.18
)


20
(
10758.5
10730.2
10645.4
10503.9
10305.9
10051.4
9740.26
9372.57
8948.31
8467.48
7930.09
7336.12
6685.59
5978.49
5214.82
4394.58
1695.15
1630.84
1568.63
1508.39
)


20
(
10749.9
10721.4
10635.9
10493.4
10293.8
10037.2
9723.63
9353.01
8925.38
8440.73
7899.06
7300.38
6644.67
5931.95
5162.21
4335.46
1614.57
1549.75
1487.05
1426.33
)


20
(
10590.4
10562.2
10477.3
10335.9
10137.9
9883.34
9572.21
9204.52
8780.26
8299.43
7762.03
7168.07
6517.54
5810.44
5046.77
4226.53
1527.09
1462.79
1400.58
1340.34
)


20
(
10282.5
10254.9
10172.1
10034
9840.73
9592.22
9288.47
8929.5
8515.3
8045.88
7521.23
6941.35
6306.25
5615.92
4870.36
4069.58
1434.17
1371.39
1310.66
1251.84
)


20
(
9831.16
9804.66
9725.14
9592.6
9407.05
9168.49
8876.92
8532.33
8134.72
7684.11
7180.48
6623.83
6014.17
5351.5
4635.82
3867.12
1337.3
1277.03
1218.73
1162.27
)


20
(
9243.33
9218.34
9143.4
9018.48
8843.61
8618.76
8343.96
8019.18
7644.45
7219.74
6745.07
6220.44
5645.84
5021.28
4346.75
3622.26
1237.92
1181.12
1126.18
1072.96
)


20
(
8527.89
8504.82
8435.63
8320.31
8158.86
7951.28
7697.58
7397.74
7051.78
6659.69
6221.47
5737.12
5206.64
4630.04
4007.31
3338.44
1137.2
1084.76
1034.03
984.904
)


20
(
7695.01
7674.23
7611.88
7507.97
7362.5
7175.46
6946.86
6676.69
6364.96
6011.67
5616.81
5180.39
4702.4
4182.85
3621.73
3019.06
1035.62
988.369
942.661
898.395
)


20
(
6755.62
6737.44
6682.93
6592.07
6464.86
6301.31
6101.42
5865.18
5592.59
5283.66
4938.39
4556.77
4138.81
3684.5
3193.85
2666.85
932.487
891.172
851.204
812.497
)


20
(
5720.03
5704.75
5658.93
5582.55
5475.62
5338.13
5170.1
4971.51
4742.37
4482.68
4192.44
3871.65
3520.31
3138.41
2725.96
2282.96
825.03
790.3
756.702
724.165
)


20
(
4596.81
4584.68
4548.26
4487.57
4402.6
4293.35
4159.82
4002.02
3819.94
3613.58
3382.95
3128.04
2848.85
2545.38
2217.64
1865.62
707.107
679.51
652.812
626.956
)


20
(
3391.13
3382.32
3355.89
3311.84
3250.17
3170.88
3073.98
2959.45
2827.3
2677.54
2510.15
2325.15
2122.52
1902.28
1664.42
1408.94
568.133
548.104
528.727
509.963
)


20
(
2107.93
2102.59
2086.57
2059.86
2022.46
1974.39
1915.63
1846.18
1766.05
1675.24
1573.74
1461.56
1338.7
1205.15
1060.92
906.004
396.17
384.025
372.276
360.898
)


20
(
766.632
764.842
759.472
750.521
737.99
721.879
702.188
678.917
652.065
621.633
587.621
550.029
508.857
464.104
415.771
363.858
193.01
188.941
185.003
181.19
)


20
(
2460.66
2458.85
2453.42
2444.37
2431.7
2415.4
2395.49
2371.95
2344.8
2314.02
2279.62
2241.6
2199.96
2154.7
2105.82
2053.32
1880.52
1876.41
1872.43
1868.57
)


20
(
3662.86
3657.46
3641.25
3614.23
3576.41
3527.78
3468.35
3398.11
3317.06
3225.21
3122.55
3009.09
2884.81
2749.74
2603.85
2447.16
1931.49
1919.2
1907.32
1895.81
)


20
(
4824.29
4815.38
4788.64
4744.09
4681.72
4601.52
4503.51
4387.67
4254.01
4102.53
3933.23
3746.11
3541.17
3318.41
3077.82
2819.42
1968.99
1948.73
1929.13
1910.15
)


20
(
5927.03
5914.75
5877.92
5816.53
5730.59
5620.09
5485.04
5325.44
5141.27
4932.56
4699.29
4441.46
4159.08
3852.14
3520.65
3164.6
1992.84
1964.93
1937.92
1911.77
)


20
(
6954.02
6938.57
6892.21
6814.96
6706.81
6567.75
6397.79
6196.93
5965.17
5702.51
5408.95
5084.48
4729.11
4342.84
3925.67
3477.6
2002.98
1967.85
1933.87
1900.96
)


20
(
7889.32
7870.94
7815.8
7723.9
7595.23
7429.81
7227.63
6988.68
6712.98
6400.51
6051.29
5665.3
5242.55
4783.04
4286.77
3753.74
1999.51
1957.73
1917.3
1878.15
)


20
(
8718.4
8697.38
8634.32
8529.22
8382.08
8192.9
7961.68
7688.42
7373.12
7015.77
6616.39
6174.97
5691.51
5166.01
4598.46
3988.88
1982.72
1934.93
1888.7
1843.92
)


20
(
9428.36
9405.03
9335.04
9218.4
9055.11
8845.15
8588.54
8285.27
7935.35
7538.77
7095.53
6605.63
6069.08
5485.87
4856.01
4179.49
1953.03
1899.99
1848.68
1798.99
)


20
(
10008.1
9982.86
9907.05
9780.71
9603.83
9376.41
9098.46
8769.97
8390.94
7961.37
7481.26
6950.62
6369.44
5737.73
5055.47
4322.68
1911.04
1853.59
1798.01
1744.19
)


20
(
10448.7
10421.8
10341.4
10207.4
10019.7
9778.4
9483.48
9134.95
8732.79
8277.01
7767.61
7204.59
6587.95
5917.69
5193.81
4416.3
1857.51
1796.55
1737.59
1680.48
)


20
(
10743.1
10715.1
10631.4
10491.7
10296.2
10044.8
9737.61
9374.53
8955.58
8480.78
7950.12
7363.6
6721.23
6022.99
5268.89
4458.94
1793.34
1729.84
1668.42
1608.93
)


20
(
10886.8
10858.2
10772.3
10629.3
10429
10171.6
9856.87
9484.97
9055.85
8569.51
8025.96
7425.19
6767.21
6052.01
5279.59
4449.96
1719.6
1654.56
1591.64
1530.7
)


20
(
10877.5
10848.7
10762.2
10618
10416.1
10156.6
9839.44
9464.58
9032.05
8541.84
7993.97
7388.43
6725.21
6004.33
5225.77
4389.54
1637.49
1571.93
1508.51
1447.09
)


20
(
10715.5
10686.9
10601.1
10458
10257.8
10000.3
9685.62
9313.72
8884.59
8398.26
7854.71
7253.94
6595.95
5880.75
5108.33
4278.7
1548.34
1483.3
1420.38
1359.45
)


20
(
10403.4
10375.4
10291.7
10152
9956.5
9705.14
9397.91
9034.83
8615.89
8141.09
7610.43
7023.91
6381.53
5683.29
4929.19
4119.24
1453.64
1390.14
1328.71
1269.22
)


20
(
9946.08
9919.27
9838.84
9704.78
9517.11
9275.82
8980.9
8632.36
8230.21
7774.43
7265.03
6702.01
6085.37
5415.1
4691.22
3913.71
1354.91
1293.96
1234.99
1177.89
)


20
(
9350.76
9325.5
9249.69
9123.35
8946.47
8719.05
8441.09
8112.6
7733.57
7304
6823.9
6293.25
5712.07
5080.35
4398.1
3665.31
1253.66
1196.21
1140.63
1086.81
)


20
(
8626.43
8603.1
8533.12
8416.48
8253.18
8043.22
7786.61
7483.34
7133.42
6736.83
6293.59
5803.7
5267.14
4683.93
4054.07
3377.54
1151.08
1098.04
1046.73
997.044
)


20
(
7783.41
7762.39
7699.33
7594.23
7447.09
7257.91
7026.69
6753.43
6438.13
6080.79
5681.41
5239.99
4756.52
4231.02
3663.48
3053.9
1047.74
999.949
953.717
908.944
)


20
(
6832.81
6814.43
6759.29
6667.39
6538.72
6373.3
6171.11
5932.17
5656.46
5343.99
4994.77
4608.78
4186.03
3726.51
3230.24
2697.21
942.975
901.187
860.761
821.611
)


20
(
5785.09
5769.64
5723.28
5646.03
5537.87
5398.82
5228.86
5028
4796.23
4533.57
4240
3915.53
3560.17
3173.89
2756.72
2308.65
834.015
798.888
764.905
731.995
)


20
(
4648.9
4636.63
4599.79
4538.4
4452.46
4341.96
4206.91
4047.3
3863.13
3654.41
3421.13
3163.3
2880.92
2573.97
2242.48
1886.42
714.639
686.725
659.722
633.57
)


20
(
3429.38
3420.47
3393.74
3349.18
3286.81
3206.61
3108.59
2992.76
2859.1
2707.62
2538.31
2351.19
2146.24
1923.48
1682.89
1424.48
574.046
553.787
534.189
515.209
)


20
(
2131.37
2125.97
2109.76
2082.74
2044.92
1996.29
1936.86
1866.62
1785.57
1693.72
1591.06
1477.6
1353.32
1218.25
1072.36
915.672
399.998
387.714
375.83
364.322
)


20
(
774.496
772.686
767.254
758.201
745.526
729.231
709.314
685.776
658.617
627.836
593.435
555.412
513.768
468.503
419.616
367.108
194.303
190.187
186.205
182.348
)


20
(
2419.89
2418.1
2412.74
2403.81
2391.3
2375.22
2355.57
2332.34
2305.54
2275.17
2241.22
2203.7
2162.61
2117.94
2069.7
2017.89
1847.36
1843.3
1839.37
1835.57
)


20
(
3606.11
3600.78
3584.79
3558.13
3520.8
3472.81
3414.16
3344.84
3264.86
3174.21
3072.9
2960.93
2838.29
2704.98
2561.01
2406.38
1897.47
1885.35
1873.62
1862.27
)


20
(
4752.2
4743.41
4717.03
4673.06
4611.5
4532.36
4435.63
4321.32
4189.42
4039.93
3872.85
3688.18
3485.93
3266.09
3028.67
2773.65
1934.39
1914.4
1895.06
1876.33
)


20
(
5840.46
5828.35
5792
5731.42
5646.6
5537.56
5404.28
5246.77
5065.02
4859.05
4628.84
4374.4
4095.72
3792.82
3465.68
3114.3
1957.92
1930.38
1903.73
1877.92
)


20
(
6854.06
6838.81
6793.07
6716.83
6610.09
6472.86
6305.13
6106.91
5878.19
5618.98
5329.27
5009.06
4658.36
4277.17
3865.47
3423.28
1968.02
1933.35
1899.82
1867.34
)


20
(
7777.26
7759.12
7704.7
7614.01
7487.04
7323.78
7124.25
6888.45
6616.36
6308
5963.36
5582.44
5165.24
4711.76
4222.01
3695.97
1964.78
1923.54
1883.64
1845.01
)


20
(
8595.72
8574.98
8512.75
8409.03
8263.82
8077.12
7848.94
7579.26
7268.1
6915.45
6521.31
6085.69
5608.57
5089.97
4529.88
3928.3
1948.47
1901.31
1855.69
1811.5
)


20
(
9296.72
9273.69
9204.63
9089.52
8928.36
8721.16
8467.92
8168.64
7823.31
7431.93
6994.51
6511.05
5981.54
5405.99
4784.39
4116.75
1919.52
1867.18
1816.55
1767.51
)


20
(
9869.31
9844.37
9769.56
9644.88
9470.32
9245.89
8971.58
8647.4
8273.35
7849.42
7375.62
6851.94
6278.4
5654.97
4981.68
4258.5
1878.52
1821.83
1766.98
1713.86
)


20
(
10304.6
10278.1
10198.7
10066.4
9881.23
9643.1
9352.06
9008.1
8611.22
8161.43
7658.72
7103.09
6494.54
5833.08
5118.7
4351.41
1826.2
1766.05
1707.86
1651.5
)


20
(
10595.7
10568.1
10485.4
10347.6
10154.7
9906.62
9603.43
9245.11
8831.67
8363.1
7839.41
7260.59
6626.65
5937.58
5193.38
4394.06
1763.46
1700.8
1640.17
1581.46
)


20
(
10738.1
10709.9
10625.2
10484.1
10286.4
10032.3
9721.77
9354.75
8931.27
8451.32
7914.9
7322.02
6672.67
5966.86
5204.58
4385.84
1691.33
1627.15
1565.05
1504.92
)


20
(
10729.7
10701.3
10615.9
10473.6
10274.4
10018.3
9705.27
9335.34
8908.48
8424.72
7884.04
7286.44
6631.94
5920.51
5152.18
4326.93
1611.01
1546.31
1483.72
1423.11
)


20
(
10570.6
10542.4
10457.7
10316.5
10118.9
9864.8
9554.25
9187.22
8763.74
8283.79
7747.37
7154.49
6505.14
5799.33
5037.05
4218.31
1523.8
1459.61
1397.52
1337.38
)


20
(
10263.4
10235.8
10153.1
10015.3
9822.39
9574.33
9271.14
8912.82
8499.38
8030.81
7507.11
6928.29
6294.35
5605.28
4861.08
4061.76
1431.16
1368.49
1307.87
1249.16
)


20
(
9812.96
9786.5
9707.12
9574.83
9389.62
9151.49
8860.45
8516.49
8119.61
7669.82
7167.1
6611.48
6002.93
5341.47
4627.08
3859.79
1334.58
1274.43
1216.23
1159.88
)


20
(
9226.31
9201.37
9126.56
9001.87
8827.32
8602.88
8328.58
8004.4
7630.34
7206.41
6732.61
6208.94
5635.38
5011.96
4338.66
3615.49
1235.5
1178.81
1123.96
1070.85
)


20
(
8512.28
8489.26
8420.19
8305.08
8143.92
7936.73
7683.48
7384.2
7038.86
6647.49
6210.07
5726.6
5197.09
4621.54
3999.94
3332.3
1135.07
1082.73
1032.09
983.054
)


20
(
7681.01
7660.27
7598.03
7494.31
7349.1
7162.41
6934.22
6664.55
6353.39
6000.74
5606.6
5170.97
4693.86
4175.26
3615.16
3013.58
1033.76
986.603
940.978
896.793
)


20
(
6743.4
6725.26
6670.84
6580.15
6453.17
6289.92
6090.39
5854.58
5582.49
5274.13
4929.48
4548.56
4131.36
3677.88
3188.13
2662.09
930.89
889.651
849.755
811.119
)


20
(
5709.74
5694.49
5648.75
5572.51
5465.77
5328.54
5160.81
4962.59
4733.87
4474.65
4184.94
3864.73
3514.03
3132.83
2721.13
2278.94
823.67
789.004
755.467
722.989
)


20
(
4588.59
4576.47
4540.12
4479.54
4394.73
4285.68
4152.4
3994.88
3813.13
3607.15
3376.94
3122.49
2843.81
2540.9
2213.76
1862.38
705.978
678.431
651.782
625.974
)


20
(
3385.1
3376.31
3349.93
3305.96
3244.41
3165.26
3068.53
2954.21
2822.31
2672.82
2505.74
2321.07
2118.82
1898.97
1661.54
1406.53
567.259
547.266
527.925
509.195
)


20
(
2104.25
2098.92
2082.92
2056.26
2018.94
1970.95
1912.29
1842.98
1762.99
1672.35
1571.03
1459.06
1336.42
1203.11
1059.15
904.513
395.61
383.487
371.759
360.402
)


20
(
765.389
763.602
758.241
749.307
736.799
720.717
701.062
677.833
651.031
620.654
586.704
549.181
508.083
463.412
415.167
363.349
192.813
188.751
184.821
181.015
)


20
(
2452.73
2450.93
2445.51
2436.48
2423.84
2407.59
2387.73
2364.26
2337.17
2306.47
2272.17
2234.25
2192.71
2147.57
2098.82
2046.45
1874.11
1870
1866.03
1862.19
)


20
(
3651.74
3646.35
3630.18
3603.24
3565.52
3517.02
3457.74
3387.68
3306.85
3215.23
3112.84
2999.67
2875.73
2741
2595.5
2439.21
1924.88
1912.63
1900.78
1889.3
)


20
(
4810.1
4801.22
4774.55
4730.12
4667.91
4587.92
4490.16
4374.63
4241.32
4090.23
3921.37
3734.74
3530.33
3308.15
3068.19
2810.46
1962.25
1942.04
1922.5
1903.57
)


20
(
5909.95
5897.71
5860.97
5799.74
5714.03
5603.82
5469.12
5309.93
5126.25
4918.07
4685.41
4428.26
4146.61
3840.47
3509.85
3154.73
1986.02
1958.18
1931.24
1905.16
)


20
(
6934.26
6918.85
6872.62
6795.57
6687.7
6549
6379.49
6179.15
5947.99
5686.02
5393.22
5069.6
4715.16
4329.9
3913.81
3466.91
1996.13
1961.09
1927.2
1894.38
)


20
(
7867.14
7848.81
7793.81
7702.15
7573.82
7408.83
7207.18
6968.85
6693.87
6382.22
6033.9
5648.92
5227.27
4768.96
4273.99
3742.34
1992.69
1951.01
1910.69
1871.64
)


20
(
8694.1
8673.13
8610.24
8505.41
8358.66
8169.97
7939.35
7666.8
7352.32
6995.91
6597.57
6157.3
5675.1
5150.97
4584.9
3976.91
1975.98
1928.31
1882.2
1837.54
)


20
(
9402.26
9378.99
9309.19
9192.85
9029.98
8820.57
8564.63
8262.15
7913.14
7517.59
7075.51
6586.89
6051.74
5470.05
4841.83
4167.07
1946.42
1893.52
1842.34
1792.78
)


20
(
9980.59
9955.39
9879.78
9753.77
9577.35
9350.52
9073.29
8745.66
8367.62
7939.17
7460.32
6931.06
6351.39
5721.32
5040.85
4309.97
1904.61
1847.31
1791.88
1738.2
)


20
(
10420.1
10393.3
10313.1
10179.4
9992.21
9751.55
9457.4
9109.78
8708.67
8254.08
7746.01
7184.45
6569.42
5900.91
5178.91
4403.43
1851.31
1790.51
1731.7
1674.74
)


20
(
10713.8
10686
10602.4
10463.1
10268.1
10017.4
9710.97
9348.83
8930.98
8457.42
7928.14
7343.15
6702.45
6006.03
5253.9
4446.06
1787.41
1724.08
1662.81
1603.48
)


20
(
10857.2
10828.7
10743.1
10600.4
10400.7
10143.9
9830.04
9459.11
9031.11
8546.04
8003.9
7404.7
6748.43
6035.09
5264.69
4437.22
1713.98
1649.11
1586.35
1525.58
)


20
(
10848.1
10819.4
10733.1
10589.3
10388
10129.1
9812.78
9438.9
9007.49
8518.57
7972.13
7368.16
6706.68
5987.67
5211.14
4377.1
1632.21
1566.83
1503.57
1442.31
)


20
(
10686.7
10658.2
10572.6
10429.9
10230.2
9973.38
9659.51
9288.58
8860.58
8375.51
7833.37
7234.17
6577.9
5864.56
5094.16
4266.69
1543.45
1478.58
1415.82
1355.04
)


20
(
10375.6
10347.7
10264.1
10124.8
9929.85
9679.14
9372.71
9010.58
8592.73
8119.16
7589.88
7004.89
6364.19
5667.77
4915.64
4107.8
1449.15
1385.82
1324.55
1265.21
)


20
(
9919.62
9892.88
9812.65
9678.95
9491.77
9251.1
8956.95
8609.33
8208.22
7753.63
7245.56
6684
6068.97
5400.45
4678.46
3902.98
1350.85
1290.05
1231.24
1174.28
)


20
(
9326.02
9300.82
9225.21
9099.2
8922.78
8695.95
8418.72
8091.08
7713.04
7284.59
6805.74
6276.48
5696.81
5066.74
4386.27
3655.38
1250.02
1192.72
1137.29
1083.61
)


20
(
8603.74
8580.47
8510.67
8394.33
8231.45
8022.05
7766.1
7463.62
7114.61
6719.06
6276.98
5788.36
5253.21
4671.52
4043.29
3368.53
1147.87
1094.97
1043.8
994.237
)


20
(
7763.05
7742.09
7679.19
7574.36
7427.61
7238.92
7008.3
6735.75
6421.27
6064.86
5666.52
5226.25
4744.05
4219.92
3653.86
3045.86
1044.94
997.272
951.16
906.504
)


20
(
6815.03
6796.7
6741.7
6650.04
6521.71
6356.72
6155.06
5916.74
5641.75
5330.09
4981.78
4596.79
4175.14
3716.83
3221.85
2690.21
940.55
898.871
858.55
819.502
)


20
(
5770.1
5754.69
5708.46
5631.41
5523.53
5384.84
5215.32
5014.98
4783.82
4521.85
4229.04
3905.42
3550.98
3165.72
2749.63
2302.72
831.937
796.901
763.007
730.182
)


20
(
4636.9
4624.66
4587.92
4526.69
4440.97
4330.76
4196.06
4036.86
3853.18
3645
3412.33
3155.18
2873.53
2567.38
2236.75
1881.62
712.895
685.055
658.122
632.038
)


20
(
3420.56
3411.68
3385.01
3340.58
3278.37
3198.38
3100.62
2985.08
2851.77
2700.68
2531.82
2345.19
2140.77
1918.59
1678.63
1420.89
572.676
552.47
532.923
513.993
)


20
(
2125.97
2120.58
2104.41
2077.47
2039.74
1991.24
1931.96
1861.91
1781.07
1689.46
1587.07
1473.9
1349.95
1215.22
1069.72
913.439
399.11
386.858
375.005
363.527
)


20
(
772.685
770.879
765.461
756.432
743.79
727.537
707.672
684.196
657.107
626.407
592.095
554.172
512.636
467.489
418.73
366.359
194.004
189.899
185.927
182.08
)


20
(
2452.73
2450.93
2445.51
2436.48
2423.84
2407.59
2387.73
2364.26
2337.17
2306.47
2272.17
2234.25
2192.71
2147.57
2098.82
2046.45
1874.11
1870
1866.03
1862.19
)


20
(
3651.74
3646.35
3630.18
3603.24
3565.52
3517.02
3457.74
3387.68
3306.85
3215.23
3112.84
2999.67
2875.73
2741
2595.5
2439.21
1924.88
1912.63
1900.78
1889.3
)


20
(
4810.1
4801.22
4774.55
4730.12
4667.91
4587.92
4490.16
4374.63
4241.32
4090.23
3921.37
3734.74
3530.33
3308.15
3068.19
2810.46
1962.25
1942.04
1922.5
1903.57
)


20
(
5909.95
5897.71
5860.97
5799.74
5714.03
5603.82
5469.12
5309.93
5126.25
4918.07
4685.41
4428.26
4146.61
3840.47
3509.85
3154.73
1986.02
1958.18
1931.24
1905.16
)


20
(
6934.26
6918.85
6872.62
6795.57
6687.69
6549
6379.49
6179.15
5947.99
5686.02
5393.22
5069.6
4715.16
4329.9
3913.81
3466.91
1996.13
1961.09
1927.2
1894.38
)


20
(
7867.14
7848.81
7793.81
7702.15
7573.82
7408.83
7207.18
6968.85
6693.87
6382.22
6033.9
5648.92
5227.27
4768.96
4273.99
3742.34
1992.69
1951.01
1910.69
1871.64
)


20
(
8694.1
8673.13
8610.24
8505.41
8358.66
8169.97
7939.35
7666.8
7352.32
6995.91
6597.57
6157.3
5675.1
5150.97
4584.9
3976.91
1975.98
1928.31
1882.2
1837.54
)


20
(
9402.26
9378.99
9309.19
9192.85
9029.98
8820.57
8564.63
8262.15
7913.14
7517.59
7075.51
6586.89
6051.74
5470.05
4841.83
4167.07
1946.42
1893.52
1842.34
1792.78
)


20
(
9980.59
9955.39
9879.78
9753.77
9577.35
9350.52
9073.29
8745.66
8367.61
7939.17
7460.32
6931.06
6351.39
5721.32
5040.85
4309.97
1904.61
1847.31
1791.88
1738.2
)


20
(
10420.1
10393.3
10313.1
10179.4
9992.21
9751.55
9457.4
9109.77
8708.67
8254.08
7746.01
7184.45
6569.42
5900.91
5178.91
4403.43
1851.31
1790.51
1731.7
1674.74
)


20
(
10713.8
10686
10602.4
10463.1
10268.1
10017.4
9710.97
9348.83
8930.98
8457.42
7928.14
7343.15
6702.45
6006.03
5253.9
4446.06
1787.41
1724.08
1662.81
1603.48
)


20
(
10857.2
10828.7
10743.1
10600.4
10400.7
10143.9
9830.04
9459.11
9031.1
8546.04
8003.9
7404.7
6748.43
6035.09
5264.69
4437.22
1713.98
1649.11
1586.35
1525.58
)


20
(
10848.1
10819.4
10733.1
10589.3
10388
10129.1
9812.78
9438.9
9007.49
8518.57
7972.13
7368.16
6706.68
5987.67
5211.14
4377.1
1632.21
1566.83
1503.57
1442.31
)


20
(
10686.7
10658.2
10572.6
10429.9
10230.2
9973.38
9659.51
9288.58
8860.57
8375.51
7833.37
7234.17
6577.9
5864.56
5094.16
4266.69
1543.45
1478.58
1415.82
1355.04
)


20
(
10375.6
10347.7
10264.1
10124.8
9929.85
9679.14
9372.71
9010.58
8592.72
8119.16
7589.88
7004.89
6364.19
5667.77
4915.64
4107.8
1449.15
1385.82
1324.55
1265.21
)


20
(
9919.62
9892.88
9812.65
9678.95
9491.77
9251.1
8956.95
8609.33
8208.22
7753.63
7245.56
6684
6068.97
5400.45
4678.46
3902.98
1350.85
1290.05
1231.24
1174.28
)


20
(
9326.02
9300.82
9225.21
9099.2
8922.78
8695.95
8418.72
8091.08
7713.04
7284.59
6805.74
6276.48
5696.81
5066.74
4386.27
3655.38
1250.02
1192.72
1137.29
1083.61
)


20
(
8603.73
8580.47
8510.66
8394.33
8231.45
8022.05
7766.1
7463.62
7114.61
6719.06
6276.98
5788.36
5253.21
4671.52
4043.29
3368.53
1147.87
1094.97
1043.8
994.237
)


20
(
7763.05
7742.09
7679.19
7574.36
7427.61
7238.92
7008.3
6735.75
6421.27
6064.86
5666.52
5226.25
4744.05
4219.92
3653.86
3045.86
1044.94
997.272
951.16
906.504
)


20
(
6815.03
6796.7
6741.7
6650.04
6521.71
6356.72
6155.06
5916.73
5641.75
5330.09
4981.78
4596.79
4175.14
3716.83
3221.85
2690.21
940.55
898.871
858.55
819.502
)


20
(
5770.1
5754.69
5708.46
5631.41
5523.53
5384.84
5215.32
5014.98
4783.82
4521.85
4229.04
3905.42
3550.98
3165.72
2749.63
2302.72
831.937
796.901
763.007
730.182
)


20
(
4636.9
4624.66
4587.92
4526.69
4440.97
4330.76
4196.06
4036.87
3853.18
3645
3412.34
3155.18
2873.53
2567.38
2236.75
1881.63
712.895
685.055
658.122
632.038
)


20
(
3420.56
3411.68
3385.01
3340.58
3278.37
3198.38
3100.62
2985.08
2851.77
2700.68
2531.82
2345.19
2140.78
1918.59
1678.63
1420.89
572.676
552.47
532.923
513.993
)


20
(
2125.97
2120.58
2104.41
2077.47
2039.74
1991.24
1931.96
1861.91
1781.07
1689.46
1587.07
1473.9
1349.95
1215.22
1069.72
913.439
399.11
386.858
375.005
363.527
)


20
(
772.685
770.879
765.461
756.432
743.79
727.537
707.672
684.196
657.107
626.407
592.095
554.172
512.636
467.489
418.73
366.359
194.004
189.899
185.927
182.08
)


20
(
2419.89
2418.1
2412.74
2403.81
2391.3
2375.22
2355.57
2332.34
2305.54
2275.17
2241.22
2203.7
2162.61
2117.94
2069.7
2017.89
1847.37
1843.3
1839.37
1835.57
)


20
(
3606.12
3600.78
3584.79
3558.13
3520.8
3472.81
3414.16
3344.84
3264.86
3174.21
3072.9
2960.93
2838.29
2704.98
2561.01
2406.38
1897.47
1885.35
1873.62
1862.27
)


20
(
4752.2
4743.41
4717.03
4673.06
4611.51
4532.37
4435.64
4321.32
4189.42
4039.93
3872.85
3688.18
3485.93
3266.09
3028.67
2773.65
1934.39
1914.4
1895.06
1876.33
)


20
(
5840.47
5828.35
5792
5731.42
5646.61
5537.56
5404.28
5246.77
5065.03
4859.05
4628.84
4374.4
4095.73
3792.82
3465.68
3114.31
1957.92
1930.38
1903.73
1877.92
)


20
(
6854.06
6838.81
6793.07
6716.83
6610.09
6472.86
6305.14
6106.91
5878.19
5618.98
5329.27
5009.07
4658.36
4277.17
3865.47
3423.28
1968.02
1933.35
1899.82
1867.34
)


20
(
7777.26
7759.12
7704.7
7614.01
7487.04
7323.79
7124.26
6888.45
6616.36
6308
5963.36
5582.44
5165.24
4711.76
4222.01
3695.98
1964.78
1923.54
1883.65
1845.01
)


20
(
8595.73
8574.98
8512.75
8409.03
8263.82
8077.12
7848.94
7579.27
7268.1
6915.45
6521.32
6085.69
5608.57
5089.97
4529.88
3928.3
1948.47
1901.31
1855.69
1811.5
)


20
(
9296.72
9273.69
9204.63
9089.52
8928.36
8721.17
8467.92
8168.64
7823.31
7431.93
6994.51
6511.05
5981.54
5405.99
4784.4
4116.75
1919.53
1867.19
1816.55
1767.51
)


20
(
9869.31
9844.37
9769.56
9644.88
9470.32
9245.89
8971.58
8647.4
8273.35
7849.42
7375.62
6851.95
6278.4
5654.97
4981.68
4258.51
1878.52
1821.83
1766.98
1713.87
)


20
(
10304.6
10278.1
10198.7
10066.4
9881.23
9643.11
9352.06
9008.1
8611.22
8161.43
7658.72
7103.09
6494.55
5833.08
5118.7
4351.41
1826.2
1766.05
1707.86
1651.5
)


20
(
10595.7
10568.1
10485.4
10347.6
10154.7
9906.62
9603.43
9245.11
8831.67
8363.1
7839.41
7260.59
6626.65
5937.58
5193.38
4394.06
1763.46
1700.8
1640.18
1581.47
)


20
(
10738.1
10709.9
10625.2
10484.1
10286.4
10032.3
9721.78
9354.75
8931.27
8451.32
7914.9
7322.02
6672.67
5966.86
5204.58
4385.84
1691.33
1627.15
1565.05
1504.92
)


20
(
10729.7
10701.3
10615.9
10473.6
10274.4
10018.3
9705.28
9335.34
8908.48
8424.72
7884.04
7286.44
6631.94
5920.52
5152.18
4326.93
1611.01
1546.31
1483.72
1423.11
)


20
(
10570.6
10542.4
10457.7
10316.5
10118.9
9864.8
9554.25
9187.22
8763.74
8283.79
7747.37
7154.49
6505.14
5799.33
5037.05
4218.31
1523.8
1459.62
1397.52
1337.38
)


20
(
10263.4
10235.8
10153.1
10015.3
9822.39
9574.33
9271.14
8912.82
8499.38
8030.81
7507.12
6928.3
6294.35
5605.28
4861.08
4061.76
1431.16
1368.5
1307.87
1249.16
)


20
(
9812.96
9786.5
9707.12
9574.83
9389.62
9151.49
8860.45
8516.49
8119.61
7669.82
7167.11
6611.48
6002.93
5341.47
4627.09
3859.79
1334.58
1274.43
1216.24
1159.88
)


20
(
9226.31
9201.37
9126.56
9001.88
8827.32
8602.88
8328.58
8004.4
7630.34
7206.41
6732.61
6208.94
5635.39
5011.96
4338.66
3615.49
1235.5
1178.81
1123.96
1070.85
)


20
(
8512.28
8489.26
8420.19
8305.08
8143.93
7936.73
7683.48
7384.2
7038.86
6647.49
6210.07
5726.6
5197.09
4621.54
3999.94
3332.3
1135.07
1082.73
1032.09
983.055
)


20
(
7681.01
7660.27
7598.03
7494.31
7349.1
7162.41
6934.22
6664.55
6353.39
6000.74
5606.6
5170.97
4693.86
4175.26
3615.17
3013.59
1033.77
986.603
940.979
896.793
)


20
(
6743.4
6725.26
6670.84
6580.15
6453.17
6289.92
6090.39
5854.58
5582.49
5274.13
4929.49
4548.56
4131.36
3677.88
3188.13
2662.09
930.891
889.651
849.756
811.119
)


20
(
5709.74
5694.49
5648.75
5572.51
5465.77
5328.54
5160.81
4962.59
4733.87
4474.65
4184.94
3864.73
3514.03
3132.83
2721.13
2278.94
823.671
789.004
755.468
722.989
)


20
(
4588.59
4576.48
4540.13
4479.54
4394.73
4285.68
4152.4
3994.88
3813.14
3607.16
3376.94
3122.5
2843.82
2540.9
2213.76
1862.38
705.979
678.432
651.783
625.975
)


20
(
3385.11
3376.31
3349.93
3305.96
3244.41
3165.26
3068.53
2954.22
2822.31
2672.82
2505.74
2321.07
2118.82
1898.98
1661.55
1406.53
567.259
547.267
527.926
509.196
)


20
(
2104.25
2098.92
2082.92
2056.26
2018.94
1970.95
1912.29
1842.98
1762.99
1672.35
1571.04
1459.06
1336.42
1203.12
1059.15
904.513
395.61
383.487
371.76
360.402
)


20
(
765.389
763.602
758.241
749.307
736.799
720.718
701.062
677.833
651.031
620.654
586.704
549.181
508.083
463.412
415.168
363.349
192.813
188.751
184.821
181.015
)


20
(
2460.66
2458.85
2453.42
2444.37
2431.7
2415.4
2395.49
2371.95
2344.8
2314.02
2279.62
2241.6
2199.96
2154.7
2105.82
2053.32
1880.52
1876.41
1872.43
1868.57
)


20
(
3662.86
3657.45
3641.25
3614.23
3576.41
3527.78
3468.35
3398.11
3317.06
3225.21
3122.55
3009.09
2884.81
2749.74
2603.85
2447.16
1931.49
1919.2
1907.32
1895.81
)


20
(
4824.29
4815.38
4788.65
4744.09
4681.72
4601.52
4503.51
4387.67
4254.01
4102.54
3933.24
3746.11
3541.17
3318.41
3077.82
2819.42
1968.99
1948.73
1929.13
1910.15
)


20
(
5927.03
5914.75
5877.92
5816.53
5730.59
5620.09
5485.04
5325.44
5141.28
4932.56
4699.29
4441.46
4159.08
3852.14
3520.65
3164.6
1992.84
1964.93
1937.92
1911.77
)


20
(
6954.02
6938.57
6892.21
6814.96
6706.81
6567.75
6397.79
6196.93
5965.17
5702.51
5408.95
5084.48
4729.11
4342.84
3925.67
3477.6
2002.98
1967.85
1933.87
1900.96
)


20
(
7889.32
7870.94
7815.8
7723.9
7595.23
7429.81
7227.63
6988.68
6712.98
6400.51
6051.29
5665.3
5242.55
4783.04
4286.77
3753.74
1999.51
1957.73
1917.3
1878.15
)


20
(
8718.4
8697.38
8634.32
8529.22
8382.08
8192.9
7961.68
7688.42
7373.12
7015.77
6616.39
6174.97
5691.51
5166.01
4598.46
3988.88
1982.72
1934.93
1888.7
1843.92
)


20
(
9428.36
9405.03
9335.04
9218.4
9055.1
8845.15
8588.54
8285.27
7935.35
7538.76
7095.53
6605.63
6069.08
5485.87
4856.01
4179.49
1953.03
1899.99
1848.68
1798.99
)


20
(
10008.1
9982.86
9907.05
9780.71
9603.83
9376.41
9098.46
8769.97
8390.94
7961.37
7481.26
6950.62
6369.44
5737.73
5055.47
4322.68
1911.04
1853.59
1798.01
1744.19
)


20
(
10448.7
10421.8
10341.4
10207.4
10019.7
9778.4
9483.48
9134.95
8732.79
8277.01
7767.61
7204.59
6587.95
5917.69
5193.81
4416.3
1857.51
1796.55
1737.59
1680.48
)


20
(
10743.1
10715.1
10631.4
10491.7
10296.2
10044.8
9737.61
9374.53
8955.58
8480.78
7950.12
7363.6
6721.23
6022.99
5268.89
4458.94
1793.34
1729.84
1668.42
1608.93
)


20
(
10886.8
10858.2
10772.3
10629.3
10429
10171.6
9856.87
9484.97
9055.85
8569.51
8025.96
7425.19
6767.21
6052.01
5279.59
4449.96
1719.6
1654.56
1591.64
1530.7
)


20
(
10877.5
10848.7
10762.2
10618
10416.1
10156.6
9839.43
9464.57
9032.04
8541.84
7993.97
7388.43
6725.21
6004.33
5225.77
4389.54
1637.49
1571.93
1508.51
1447.09
)


20
(
10715.5
10686.9
10601.1
10458
10257.8
10000.3
9685.62
9313.71
8884.59
8398.26
7854.7
7253.94
6595.95
5880.75
5108.33
4278.7
1548.34
1483.3
1420.38
1359.45
)


20
(
10403.4
10375.4
10291.7
10152
9956.5
9705.14
9397.91
9034.83
8615.89
8141.09
7610.42
7023.9
6381.53
5683.29
4929.19
4119.24
1453.64
1390.14
1328.71
1269.22
)


20
(
9946.08
9919.27
9838.84
9704.78
9517.11
9275.82
8980.9
8632.36
8230.21
7774.43
7265.03
6702.01
6085.37
5415.1
4691.22
3913.71
1354.91
1293.96
1234.99
1177.89
)


20
(
9350.76
9325.5
9249.69
9123.35
8946.47
8719.05
8441.09
8112.6
7733.57
7304
6823.9
6293.25
5712.07
5080.35
4398.1
3665.31
1253.66
1196.21
1140.63
1086.81
)


20
(
8626.43
8603.1
8533.12
8416.48
8253.18
8043.22
7786.61
7483.34
7133.41
6736.83
6293.59
5803.7
5267.14
4683.93
4054.07
3377.54
1151.08
1098.04
1046.73
997.044
)


20
(
7783.41
7762.39
7699.33
7594.23
7447.09
7257.91
7026.69
6753.43
6438.13
6080.79
5681.41
5239.99
4756.52
4231.02
3663.48
3053.9
1047.74
999.949
953.717
908.944
)


20
(
6832.81
6814.43
6759.29
6667.39
6538.72
6373.3
6171.11
5932.17
5656.46
5343.99
4994.76
4608.78
4186.03
3726.51
3230.24
2697.21
942.975
901.187
860.761
821.611
)


20
(
5785.09
5769.64
5723.28
5646.03
5537.87
5398.82
5228.86
5028
4796.23
4533.57
4240
3915.53
3560.17
3173.89
2756.72
2308.65
834.015
798.888
764.905
731.995
)


20
(
4648.9
4636.63
4599.79
4538.4
4452.46
4341.96
4206.91
4047.3
3863.13
3654.41
3421.14
3163.3
2880.92
2573.97
2242.48
1886.42
714.639
686.725
659.722
633.57
)


20
(
3429.38
3420.47
3393.74
3349.18
3286.81
3206.61
3108.6
2992.76
2859.1
2707.62
2538.31
2351.19
2146.24
1923.48
1682.89
1424.48
574.046
553.787
534.189
515.209
)


20
(
2131.37
2125.97
2109.76
2082.74
2044.92
1996.29
1936.86
1866.62
1785.57
1693.72
1591.06
1477.59
1353.32