/*--------------------------------*- C++ -*----------------------------------*\
| =========                 |                                                 |
| \\      /  F ield         | OpenFOAM: The Open Source CFD Toolbox           |
|  \\    /   O peration     | Version:  2212                                  |
|   \\  /    A nd           | Website:  www.openfoam.com                      |
|    \\/     M anipulation  |                                                 |
\*---------------------------------------------------------------------------*/
FoamFile
{
    version     2.0;
    format      ascii;
    arch        "LSB;label=32;scalar=64";
    class       volVectorField;
    location    "83/fluidRegion";
    object      U;
}
// * * * * * * * * * * * * * * * * * * * * * * * * * * * * * * * * * * * * * //

dimensions      [0 1 -1 0 0 0 0];

internalField   nonuniform List<vector> 
350
(
(-4.48996e-10 -2.59227e-10 -14.9681)
(-4.30895e-10 -2.48776e-10 -14.9669)
(-1.02472e-10 -5.91623e-11 -14.9658)
(2.93903e-10 1.69685e-10 -14.9647)
(5.72109e-10 3.30306e-10 -14.9635)
(5.90496e-10 3.40922e-10 -14.9623)
(3.88666e-10 2.24396e-10 -14.9611)
(1.48505e-10 8.57389e-11 -14.9598)
(3.24152e-11 1.87148e-11 -14.9584)
(5.98e-11 3.45254e-11 -14.9571)
(1.18229e-10 6.82596e-11 -14.9558)
(7.29368e-11 4.211e-11 -14.9545)
(-1.32522e-10 -7.65115e-11 -14.9531)
(-4.36045e-10 -2.5175e-10 -14.9518)
(-7.03134e-10 -4.05953e-10 -14.9506)
(-7.9635e-10 -4.59772e-10 -14.9494)
(-6.44323e-10 -3.71999e-10 -14.9482)
(-2.77335e-10 -1.60119e-10 -14.9471)
(1.8997e-10 1.09679e-10 -14.946)
(6.01594e-10 3.4733e-10 -14.9449)
(8.31684e-10 4.80171e-10 -14.9437)
(8.50173e-10 4.90846e-10 -14.9425)
(6.89899e-10 3.98312e-10 -14.9413)
(1.8284e-10 1.05563e-10 -14.94)
(-7.52092e-10 -4.34219e-10 -14.9697)
(-4.48996e-10 -2.59227e-10 -14.9681)
(-4.30895e-10 -2.48776e-10 -14.9669)
(-1.02472e-10 -5.91623e-11 -14.9658)
(2.93903e-10 1.69685e-10 -14.9647)
(5.72109e-10 3.30306e-10 -14.9635)
(5.90495e-10 3.40922e-10 -14.9623)
(3.88666e-10 2.24396e-10 -14.9611)
(1.48505e-10 8.57389e-11 -14.9598)
(3.24151e-11 1.87148e-11 -14.9584)
(5.98e-11 3.45254e-11 -14.9571)
(1.18229e-10 6.82596e-11 -14.9558)
(7.29368e-11 4.21099e-11 -14.9545)
(-1.32522e-10 -7.65115e-11 -14.9531)
(-4.36045e-10 -2.5175e-10 -14.9518)
(-7.03134e-10 -4.05953e-10 -14.9506)
(-7.9635e-10 -4.59772e-10 -14.9494)
(-6.44323e-10 -3.71999e-10 -14.9482)
(-2.77335e-10 -1.60119e-10 -14.9471)
(1.8997e-10 1.09679e-10 -14.946)
(6.01594e-10 3.4733e-10 -14.9449)
(8.31684e-10 4.80171e-10 -14.9437)
(8.50173e-10 4.90846e-10 -14.9425)
(6.89899e-10 3.98312e-10 -14.9413)
(1.8284e-10 1.05563e-10 -14.94)
(-7.52092e-10 -4.34219e-10 -14.9697)
(-0.00197633 -0.00114103 -423.826)
(-0.000938463 -0.000541821 -415.837)
(-0.00101676 -0.000587028 -405.731)
(-0.000914997 -0.000528273 -393.301)
(-0.00082831 -0.000478225 -378.74)
(-0.000748013 -0.000431865 -362.249)
(-0.000673656 -0.000388935 -344.039)
(-0.000601581 -0.000347323 -324.325)
(-0.00052376 -0.000302393 -303.326)
(-0.000426995 -0.000246525 -281.27)
(-0.0002947 -0.000170145 -258.396)
(-0.000110605 -6.38578e-05 -234.962)
(0.00013021 7.51768e-05 -211.248)
(0.000408229 0.000235691 -187.565)
(0.000692007 0.00039953 -164.252)
(0.000933769 0.000539111 -141.663)
(0.00109614 0.000632858 -120.144)
(0.00116916 0.000675011 -100.01)
(0.00117205 0.000676684 -81.5295)
(0.00113904 0.000657626 -64.9231)
(0.00110086 0.00063558 -50.3825)
(0.00106491 0.000614828 -38.0955)
(0.00101584 0.000586497 -28.2707)
(0.000882547 0.000509538 -21.1346)
(0.000840655 0.000485352 -16.6338)
(-0.00191608 -0.00112196 -426.56)
(-0.000693464 -0.000398723 -418.527)
(-0.000783853 -0.000452257 -408.389)
(-0.000713408 -0.000411408 -395.905)
(-0.0006537 -0.000376979 -381.273)
(-0.000598388 -0.000344838 -364.696)
(-0.000546986 -0.00031479 -346.384)
(-0.000496679 -0.000285497 -326.553)
(-0.000441656 -0.000253315 -305.425)
(-0.000372403 -0.000212848 -283.228)
(-0.000277446 -0.000157661 -260.202)
(-0.00014544 -8.09646e-05 -236.604)
(2.79378e-05 1.96451e-05 -212.717)
(0.00022152 0.000132155 -188.855)
(0.000418041 0.00024648 -165.359)
(0.000583565 0.000342888 -142.588)
(0.000693339 0.000407103 -120.893)
(0.00074169 0.00043567 -100.597)
(0.000742378 0.000436763 -81.969)
(0.000719228 0.000423691 -65.2341)
(0.0006934 0.000409288 -50.5856)
(0.000671974 0.000397618 -38.2128)
(0.000648755 0.000386296 -28.3258)
(0.000590874 0.000353421 -21.1517)
(0.000620028 0.000361632 -16.6358)
(-0.000874557 -0.000656782 -423.389)
(-0.000504552 -0.000952503 -415.398)
(-0.000491078 -0.000911254 -405.3)
(-0.000446611 -0.00080131 -392.88)
(-0.000405129 -0.000704643 -378.332)
(-0.000367125 -0.000615522 -361.857)
(-0.000331465 -0.000533333 -343.664)
(-0.000295469 -0.000454068 -323.969)
(-0.000253681 -0.000368791 -302.992)
(-0.000197976 -0.000262828 -280.959)
(-0.000119084 -0.00011692 -258.111)
(-1.03149e-05 8.58968e-05 -234.703)
(0.000131133 0.000348918 -211.016)
(0.000283765 0.000664042 -187.362)
(0.000433677 0.000985113 -164.078)
(0.000553483 0.00125913 -141.517)
(0.000626127 0.00144223 -120.025)
(0.000650468 0.0015223 -99.9169)
(0.000639763 0.00152161 -81.4588)
(0.000613004 0.0014794 -64.872)
(0.00058441 0.00142925 -50.3475)
(0.000558656 0.0013748 -38.0733)
(0.000519276 0.00128103 -28.2577)
(0.00045361 0.00103956 -21.1277)
(0.000395995 0.000820624 -16.6315)
(-0.000973228 -0.000561892 -425.95)
(-0.00091355 -0.000527437 -417.928)
(-0.000879706 -0.000507897 -407.795)
(-0.00078306 -0.000452098 -395.322)
(-0.000696709 -0.000402244 -380.705)
(-0.00061722 -0.000356351 -364.146)
(-0.00054341 -0.000313737 -345.856)
(-0.000471269 -0.000272087 -326.051)
(-0.00039163 -0.000226107 -304.951)
(-0.000290177 -0.000167533 -282.785)
(-0.0001492 -8.61401e-05 -259.793)
(4.61933e-05 2.66696e-05 -236.231)
(0.000299831 0.000173107 -212.383)
(0.000592965 0.000342347 -188.561)
(0.000888111 0.00051275 -165.107)
(0.00113486 0.000655211 -142.377)
(0.00129501 0.000747675 -120.722)
(0.00136025 0.000785337 -100.463)
(0.00135301 0.000781158 -81.8687)
(0.00130968 0.000756141 -65.1632)
(0.00126015 0.000727545 -50.5395)
(0.00120991 0.000698539 -38.1864)
(0.00112674 0.00065052 -28.3136)
(0.000935347 0.000540022 -21.1483)
(0.000763379 0.000440736 -16.6356)
(0.000953772 0.000550659 -425.951)
(0.000913876 0.000527625 -417.928)
(0.000878321 0.000507098 -407.795)
(0.000781824 0.000451385 -395.322)
(0.000695025 0.000401272 -380.705)
(0.000615271 0.000355226 -364.146)
(0.000541557 0.000312667 -345.856)
(0.000469262 0.000270928 -326.051)
(0.00038967 0.000224976 -304.951)
(0.00028848 0.000166554 -282.785)
(0.000147455 8.51329e-05 -259.793)
(-4.80018e-05 -2.77138e-05 -236.231)
(-0.000301689 -0.00017418 -212.383)
(-0.000594595 -0.000343289 -188.561)
(-0.000889212 -0.000513386 -165.107)
(-0.00113519 -0.000655403 -142.377)
(-0.00129472 -0.000747507 -120.722)
(-0.00135972 -0.000785033 -100.463)
(-0.00135215 -0.00078066 -81.8687)
(-0.00130872 -0.000755589 -65.1632)
(-0.0012594 -0.000727111 -50.5395)
(-0.0012089 -0.000697958 -38.1864)
(-0.00112473 -0.000649362 -28.3136)
(-0.000932311 -0.000538269 -21.1483)
(-0.000758259 -0.00043778 -16.6356)
(0.000992173 0.000436765 -423.39)
(0.00107785 -4.04471e-05 -415.398)
(0.00103393 -3.06586e-05 -405.301)
(0.000916522 -1.41282e-05 -392.881)
(0.000811886 -1.9976e-06 -378.332)
(0.000715617 9.45404e-06 -361.857)
(0.00062664 1.95894e-05 -343.664)
(0.000539966 2.77897e-05 -323.969)
(0.000445255 3.412e-05 -302.992)
(0.000325722 3.88536e-05 -280.959)
(0.00015991 4.32792e-05 -258.111)
(-7.01138e-05 5.01401e-05 -234.703)
(-0.000368563 5.87164e-05 -211.016)
(-0.000717615 8.37752e-05 -187.362)
(-0.00107033 0.000114281 -164.078)
(-0.00136715 0.000147427 -141.517)
(-0.00156168 0.000175837 -120.025)
(-0.00164295 0.000194428 -99.917)
(-0.00163676 0.00020331 -81.4589)
(-0.00158672 0.00020553 -64.872)
(-0.00152896 0.00020531 -50.3475)
(-0.00146876 0.000200867 -38.0732)
(-0.00136738 0.000189217 -28.2577)
(-0.00112503 0.0001266 -21.1277)
(-0.000904938 6.55613e-05 -16.6315)
(0.00191574 0.00112236 -426.56)
(0.000692911 0.000399341 -418.527)
(0.000783273 0.000453229 -408.389)
(0.000712793 0.000412601 -395.905)
(0.000652902 0.000378089 -381.273)
(0.000597325 0.000346196 -364.696)
(0.000545681 0.000316561 -346.384)
(0.000495138 0.000287445 -326.553)
(0.000439908 0.000255688 -305.425)
(0.000370478 0.000215741 -283.228)
(0.000275286 0.000160844 -260.202)
(0.000142995 8.44491e-05 -236.604)
(-3.05812e-05 -1.59808e-05 -212.717)
(-0.00022428 -0.000128079 -188.855)
(-0.000420699 -0.000241981 -165.359)
(-0.000585813 -0.00033816 -142.588)
(-0.000695015 -0.000402373 -120.893)
(-0.000742577 -0.000431293 -100.597)
(-0.000742063 -0.000432641 -81.969)
(-0.000717163 -0.000420226 -65.2341)
(-0.000689428 -0.000406175 -50.5856)
(-0.000666411 -0.000394093 -38.2128)
(-0.000642005 -0.00037968 -28.3258)
(-0.000582991 -0.000344832 -21.1517)
(-0.000604819 -0.000367911 -16.6358)
(0.00197633 0.00114103 -423.826)
(0.000938451 0.000541815 -415.836)
(0.00101683 0.000587067 -405.731)
(0.000915096 0.00052833 -393.301)
(0.000828322 0.000478231 -378.74)
(0.000747985 0.000431849 -362.249)
(0.000673626 0.000388918 -344.039)
(0.000601507 0.00034728 -324.325)
(0.000523712 0.000302365 -303.326)
(0.000426997 0.000246527 -281.27)
(0.000294669 0.000170127 -258.396)
(0.000110531 6.38149e-05 -234.962)
(-0.000130315 -7.52376e-05 -211.248)
(-0.000408277 -0.000235719 -187.565)
(-0.000691909 -0.000399473 -164.252)
(-0.000933454 -0.000538929 -141.663)
(-0.00109561 -0.000632549 -120.144)
(-0.00116839 -0.000674568 -100.01)
(-0.00117086 -0.000675996 -81.5295)
(-0.00113727 -0.000656605 -64.9231)
(-0.00109829 -0.0006341 -50.3825)
(-0.00106148 -0.000612843 -38.0955)
(-0.00101082 -0.000583598 -28.2707)
(-0.000876156 -0.000505848 -21.1346)
(-0.000834647 -0.000481883 -16.6338)
(0.000972468 0.000561453 -425.951)
(0.000912485 0.000526822 -417.928)
(0.000878708 0.000507321 -407.795)
(0.000782112 0.000451551 -395.322)
(0.000695367 0.000401469 -380.705)
(0.000615574 0.000355401 -364.146)
(0.000541707 0.000312753 -345.856)
(0.000469285 0.000270941 -326.051)
(0.000389492 0.000224872 -304.951)
(0.000288053 0.000166307 -282.785)
(0.000146842 8.47792e-05 -259.793)
(-4.89191e-05 -2.82434e-05 -236.231)
(-0.000302993 -0.000174933 -212.383)
(-0.000596444 -0.000344356 -188.561)
(-0.000891753 -0.000514852 -165.107)
(-0.00113854 -0.000657335 -142.377)
(-0.00129897 -0.000749959 -120.722)
(-0.00136485 -0.000787993 -100.463)
(-0.00135832 -0.000784224 -81.8687)
(-0.00131596 -0.000759769 -65.1632)
(-0.00126824 -0.000732214 -50.5395)
(-0.00121972 -0.000704206 -38.1864)
(-0.00113859 -0.000657363 -28.3136)
(-0.000949191 -0.000548014 -21.1483)
(-0.00077589 -0.000447959 -16.6356)
(0.000873859 0.000656895 -423.389)
(0.000503512 0.000952734 -415.398)
(0.000490035 0.000911526 -405.3)
(0.000445549 0.000801589 -392.88)
(0.000403727 0.000704967 -378.332)
(0.000365359 0.000615977 -361.857)
(0.000329463 0.000533929 -343.664)
(0.000293136 0.000454779 -323.969)
(0.000251088 0.000369621 -302.992)
(0.000195222 0.00026376 -280.959)
(0.000116059 0.000117959 -258.111)
(6.90688e-06 -8.47415e-05 -234.703)
(-0.000134888 -0.000347708 -211.016)
(-0.000287743 -0.000662809 -187.362)
(-0.000437619 -0.000983985 -164.078)
(-0.000557075 -0.00125831 -141.517)
(-0.000629333 -0.00144192 -120.025)
(-0.00065328 -0.00152272 -99.9169)
(-0.000641958 -0.00152313 -81.4589)
(-0.000614408 -0.00148252 -64.872)
(-0.000585566 -0.00143426 -50.3475)
(-0.000560016 -0.00138152 -38.0733)
(-0.000521886 -0.001289 -28.2577)
(-0.00045751 -0.00104852 -21.1277)
(-0.000393909 -0.000834168 -16.6315)
(-0.000992449 -0.000436849 -423.39)
(-0.00107819 4.0355e-05 -415.398)
(-0.00103425 3.09074e-05 -405.301)
(-0.000916847 1.45954e-05 -392.881)
(-0.000812338 2.17245e-06 -378.332)
(-0.000716167 -9.27541e-06 -361.857)
(-0.000627228 -1.91563e-05 -343.664)
(-0.000540647 -2.74027e-05 -323.969)
(-0.000445999 -3.34938e-05 -302.992)
(-0.000326473 -3.78039e-05 -280.959)
(-0.000160727 -4.21053e-05 -258.111)
(6.92006e-05 -4.88943e-05 -234.703)
(0.000367506 -5.75145e-05 -211.016)
(0.000716467 -8.22991e-05 -187.362)
(0.00106914 -0.00011234 -164.078)
(0.00136599 -0.000144958 -141.517)
(0.00156051 -0.000172973 -120.025)
(0.00164177 -0.000191416 -99.917)
(0.00163572 -0.000199703 -81.4588)
(0.00158601 -0.000201354 -64.8719)
(0.00152882 -0.000200225 -50.3475)
(0.00146969 -0.000194086 -38.0732)
(0.00136945 -0.000178833 -28.2577)
(0.00112844 -0.000113883 -21.1277)
(0.000907737 -6.42559e-05 -16.6315)
(-0.000954412 -0.000551028 -425.95)
(-0.000914732 -0.00052812 -417.928)
(-0.000879028 -0.000507506 -407.795)
(-0.000782425 -0.000451732 -395.322)
(-0.00069601 -0.000401841 -380.705)
(-0.00061649 -0.00035593 -364.146)
(-0.000542739 -0.00031335 -345.856)
(-0.000470673 -0.000271743 -326.051)
(-0.000391138 -0.000225823 -304.951)
(-0.000289795 -0.000167313 -282.785)
(-0.00014892 -8.59788e-05 -259.793)
(4.62776e-05 2.67183e-05 -236.231)
(0.000299583 0.000172964 -212.383)
(0.000592292 0.000341959 -188.561)
(0.000886866 0.000512031 -165.107)
(0.00113294 0.0006541 -142.377)
(0.00129234 0.000746133 -120.722)
(0.00135693 0.000783422 -100.463)
(0.0013492 0.000778959 -81.8686)
(0.0013057 0.000753844 -65.1632)
(0.00125629 0.000725319 -50.5395)
(0.00120659 0.000696623 -38.1864)
(0.00112384 0.000648847 -28.3136)
(0.000932586 0.000538428 -21.1483)
(0.000755507 0.000436191 -16.6356)
)
;

boundaryField
{
    outletCentralUnloaded
    {
        type            zeroGradient;
    }
    inletCentralUnloaded
    {
        type            fixedValue;
        value           uniform (0 0 -15);
    }
    outletFuelElement
    {
        type            zeroGradient;
    }
    inletFuelElement
    {
        type            fixedValue;
        value           uniform (0 0 -15);
    }
    defaultFaces
    {
        type            slip;
    }
    baffle_master
    {
        type            slip;
    }
    baffle_slave
    {
        type            slip;
    }
}


// ************************************************************************* //
