/*--------------------------------*- C++ -*----------------------------------*\
| =========                 |                                                 |
| \\      /  F ield         | OpenFOAM: The Open Source CFD Toolbox           |
|  \\    /   O peration     | Version:  2212                                  |
|   \\  /    A nd           | Website:  www.openfoam.com                      |
|    \\/     M anipulation  |                                                 |
\*---------------------------------------------------------------------------*/
FoamFile
{
    version     2.0;
    format      ascii;
    arch        "LSB;label=32;scalar=64";
    class       volScalarField;
    location    "41/neutroRegion";
    object      TCool;
}
// * * * * * * * * * * * * * * * * * * * * * * * * * * * * * * * * * * * * * //

dimensions      [0 0 0 1 0 0 0];

internalField   nonuniform List<scalar> 
350
(
83.289
83.2894
83.2899
83.2903
83.2908
83.2912
83.2917
83.2921
83.2926
83.2931
83.2936
83.2941
83.2945
83.295
83.2955
83.2959
83.2964
83.2969
83.2973
83.2978
83.2983
83.2988
83.2992
83.2997
83.3
83.289
83.2894
83.2899
83.2903
83.2908
83.2912
83.2917
83.2921
83.2926
83.2931
83.2936
83.2941
83.2945
83.295
83.2955
83.2959
83.2964
83.2969
83.2973
83.2978
83.2983
83.2988
83.2992
83.2997
83.3
1816.63
1810.83
1792.61
1762.21
1719.96
1666.37
1602.04
1527.73
1444.32
1352.81
1254.36
1150.28
1042.11
931.58
820.659
711.436
606.013
506.349
414.149
330.853
257.708
195.912
146.688
111.191
90.1071
1844.7
1839.12
1820.91
1790.29
1747.62
1693.39
1628.22
1552.89
1468.26
1375.36
1275.36
1169.57
1059.55
947.057
834.084
722.782
615.319
513.726
419.768
334.926
260.471
197.613
147.586
111.553
90.1841
1812.07
1806.25
1788.05
1757.7
1715.54
1662.07
1597.89
1523.76
1440.56
1349.28
1251.09
1147.29
1039.42
929.206
818.611
709.716
604.611
505.245
413.314
330.253
257.305
195.666
146.558
111.138
90.0948
1838.39
1832.74
1814.52
1783.93
1741.35
1687.25
1622.26
1547.15
1462.79
1370.2
1270.54
1165.15
1055.54
943.494
830.99
720.163
613.169
512.019
418.467
333.982
259.83
197.218
147.378
111.469
90.1664
1838.39
1832.74
1814.52
1783.93
1741.35
1687.25
1622.26
1547.15
1462.79
1370.2
1270.54
1165.15
1055.54
943.494
830.99
720.163
613.169
512.019
418.467
333.982
259.83
197.218
147.378
111.469
90.1664
1812.07
1806.25
1788.06
1757.7
1715.54
1662.07
1597.89
1523.77
1440.56
1349.28
1251.09
1147.29
1039.42
929.207
818.612
709.717
604.612
505.246
413.315
330.254
257.305
195.666
146.558
111.138
90.0948
1844.7
1839.12
1820.91
1790.29
1747.62
1693.39
1628.22
1552.88
1468.26
1375.36
1275.36
1169.57
1059.55
947.057
834.085
722.782
615.319
513.726
419.768
334.926
260.471
197.613
147.586
111.553
90.1841
1816.63
1810.83
1792.61
1762.21
1719.96
1666.37
1602.04
1527.73
1444.32
1352.81
1254.36
1150.28
1042.11
931.58
820.659
711.436
606.013
506.349
414.149
330.853
257.708
195.912
146.688
111.191
90.1071
1838.39
1832.74
1814.52
1783.93
1741.35
1687.25
1622.26
1547.15
1462.79
1370.2
1270.54
1165.15
1055.54
943.495
830.99
720.163
613.169
512.019
418.467
333.982
259.83
197.218
147.378
111.469
90.1664
1812.07
1806.25
1788.05
1757.7
1715.54
1662.07
1597.89
1523.76
1440.56
1349.28
1251.09
1147.29
1039.42
929.206
818.611
709.716
604.611
505.245
413.314
330.253
257.305
195.666
146.558
111.138
90.0948
1812.07
1806.25
1788.06
1757.7
1715.54
1662.07
1597.89
1523.77
1440.56
1349.28
1251.09
1147.29
1039.42
929.207
818.612
709.717
604.612
505.246
413.315
330.254
257.305
195.666
146.558
111.138
90.0948
1838.39
1832.74
1814.52
1783.93
1741.35
1687.25
1622.26
1547.15
1462.79
1370.2
1270.54
1165.15
1055.54
943.494
830.99
720.163
613.169
512.019
418.467
333.982
259.83
197.218
147.378
111.469
90.1664
)
;

boundaryField
{
    outletCentralUnloaded
    {
        type            zeroGradient;
    }
    inletCentralUnloaded
    {
        type            zeroGradient;
    }
    outletFuelElement
    {
        type            zeroGradient;
    }
    inletFuelElement
    {
        type            zeroGradient;
    }
    defaultFaces
    {
        type            zeroGradient;
    }
}


// ************************************************************************* //
