/*--------------------------------*- C++ -*----------------------------------*\
| =========                 |                                                 |
| \\      /  F ield         | OpenFOAM: The Open Source CFD Toolbox           |
|  \\    /   O peration     | Version:  2212                                  |
|   \\  /    A nd           | Website:  www.openfoam.com                      |
|    \\/     M anipulation  |                                                 |
\*---------------------------------------------------------------------------*/
FoamFile
{
    version     2.0;
    format      ascii;
    arch        "LSB;label=32;scalar=64";
    class       volScalarField;
    location    "15/fluidRegion";
    object      alphat;
}
// * * * * * * * * * * * * * * * * * * * * * * * * * * * * * * * * * * * * * //

dimensions      [1 -1 -1 0 0 0 0];

internalField   nonuniform List<scalar> 
350
(
0.00258054
0.00258054
0.00258054
0.00258054
0.00258055
0.00258055
0.00258056
0.00258057
0.00258058
0.00258061
0.00258064
0.0025807
0.00258078
0.00258091
0.0025811
0.0025814
0.00258185
0.00258255
0.00258361
0.00258523
0.00258772
0.00259151
0.00259731
0.00260617
0.0026197
0.00258054
0.00258054
0.00258054
0.00258054
0.00258055
0.00258055
0.00258056
0.00258057
0.00258058
0.00258061
0.00258064
0.0025807
0.00258078
0.00258091
0.0025811
0.0025814
0.00258185
0.00258255
0.00258361
0.00258523
0.00258772
0.00259151
0.00259731
0.00260617
0.0026197
0.00085531
0.000842465
0.000830408
0.000818341
0.000806182
0.000793856
0.0007813
0.000768459
0.000755296
0.000741786
0.000727919
0.000713697
0.000699137
0.000684267
0.000669156
0.000653957
0.000639015
0.000625068
0.000613626
0.00060768
0.000612932
0.000639362
0.000700699
0.00080542
0.000943592
0.000849065
0.000836186
0.000824113
0.000812039
0.000799886
0.000787577
0.000775048
0.000762247
0.000749137
0.000735697
0.000721919
0.000707812
0.000693394
0.000678699
0.000663795
0.000648835
0.000634159
0.000620496
0.000609352
0.000603717
0.000609308
0.000636163
0.00069815
0.000803888
0.000943306
0.000856314
0.000843471
0.000831413
0.000819343
0.000807179
0.000794846
0.000782281
0.00076943
0.000756254
0.000742728
0.000728842
0.000714598
0.00070001
0.000685108
0.000669959
0.000654718
0.000639729
0.000625731
0.000614236
0.000608235
0.00061343
0.000639796
0.000701052
0.000805663
0.000943726
0.000850504
0.000837635
0.000825566
0.000813496
0.000801342
0.00078903
0.000776495
0.000763685
0.000750563
0.000737106
0.000723308
0.000709174
0.000694722
0.000679986
0.000665035
0.000650019
0.000635281
0.000621552
0.000610339
0.000604632
0.000610145
0.000636901
0.000698738
0.00080424
0.000943367
0.000850504
0.000837635
0.000825566
0.000813496
0.000801342
0.00078903
0.000776495
0.000763685
0.000750563
0.000737106
0.000723308
0.000709174
0.000694722
0.000679986
0.000665035
0.000650019
0.000635281
0.000621552
0.000610339
0.000604632
0.000610145
0.000636901
0.000698738
0.00080424
0.000943367
0.000856314
0.000843471
0.000831413
0.000819343
0.000807179
0.000794846
0.000782281
0.00076943
0.000756254
0.000742728
0.000728842
0.000714598
0.00070001
0.000685108
0.000669959
0.000654717
0.000639729
0.000625731
0.000614235
0.000608235
0.00061343
0.000639796
0.000701052
0.000805664
0.000943728
0.000849065
0.000836186
0.000824113
0.000812039
0.000799886
0.000787577
0.000775048
0.000762247
0.000749137
0.000735697
0.000721919
0.000707812
0.000693394
0.000678699
0.000663795
0.000648835
0.000634159
0.000620496
0.000609352
0.000603717
0.000609308
0.000636163
0.00069815
0.000803888
0.000943306
0.00085531
0.000842465
0.000830408
0.000818342
0.000806182
0.000793857
0.0007813
0.00076846
0.000755296
0.000741786
0.000727919
0.000713698
0.000699137
0.000684267
0.000669156
0.000653957
0.000639015
0.000625068
0.000613626
0.00060768
0.000612932
0.000639361
0.000700698
0.000805419
0.00094359
0.000850504
0.000837635
0.000825566
0.000813496
0.000801342
0.00078903
0.000776495
0.000763685
0.000750563
0.000737106
0.000723308
0.000709174
0.000694722
0.000679986
0.000665035
0.000650019
0.000635281
0.000621553
0.000610339
0.000604632
0.000610145
0.000636901
0.000698738
0.00080424
0.000943367
0.000856314
0.000843471
0.000831413
0.000819344
0.000807179
0.000794847
0.000782281
0.00076943
0.000756254
0.000742728
0.000728842
0.000714598
0.00070001
0.000685108
0.000669959
0.000654718
0.000639729
0.000625731
0.000614235
0.000608235
0.000613429
0.000639795
0.00070105
0.000805661
0.000943723
0.000856314
0.000843471
0.000831413
0.000819343
0.000807179
0.000794846
0.000782281
0.00076943
0.000756254
0.000742728
0.000728842
0.000714598
0.00070001
0.000685108
0.000669959
0.000654717
0.000639729
0.000625731
0.000614235
0.000608234
0.000613429
0.000639795
0.000701051
0.000805663
0.000943727
0.000850504
0.000837635
0.000825566
0.000813496
0.000801342
0.00078903
0.000776495
0.000763686
0.000750563
0.000737106
0.000723308
0.000709174
0.000694722
0.000679986
0.000665035
0.000650019
0.000635281
0.000621552
0.000610339
0.000604632
0.000610144
0.0006369
0.000698737
0.000804238
0.000943364
)
;

boundaryField
{
    outletCentralUnloaded
    {
        type            zeroGradient;
    }
    inletCentralUnloaded
    {
        type            zeroGradient;
    }
    outletFuelElement
    {
        type            zeroGradient;
    }
    inletFuelElement
    {
        type            zeroGradient;
    }
    defaultFaces
    {
        type            zeroGradient;
    }
    baffle_master
    {
        type            calculated;
        value           nonuniform List<scalar> 
150
(
0.00258054
0.00258054
0.00258054
0.00258054
0.00258054
0.00258054
0.00258054
0.00258054
0.00258054
0.00258054
0.00258054
0.00258054
0.00258055
0.00258055
0.00258055
0.00258055
0.00258055
0.00258055
0.00258056
0.00258056
0.00258056
0.00258057
0.00258057
0.00258057
0.00258058
0.00258058
0.00258058
0.00258061
0.00258061
0.00258061
0.00258064
0.00258064
0.00258064
0.0025807
0.0025807
0.0025807
0.00258078
0.00258078
0.00258078
0.00258091
0.00258091
0.00258091
0.0025811
0.0025811
0.0025811
0.0025814
0.0025814
0.0025814
0.00258185
0.00258185
0.00258185
0.00258255
0.00258255
0.00258255
0.00258361
0.00258361
0.00258361
0.00258523
0.00258523
0.00258523
0.00258772
0.00258772
0.00258772
0.00259151
0.00259151
0.00259151
0.00259731
0.00259731
0.00259731
0.00260617
0.00260617
0.00260617
0.0026197
0.0026197
0.0026197
0.00258054
0.00258054
0.00258054
0.00258054
0.00258054
0.00258054
0.00258054
0.00258054
0.00258054
0.00258054
0.00258054
0.00258054
0.00258055
0.00258055
0.00258055
0.00258055
0.00258055
0.00258055
0.00258056
0.00258056
0.00258056
0.00258057
0.00258057
0.00258057
0.00258058
0.00258058
0.00258058
0.00258061
0.00258061
0.00258061
0.00258064
0.00258064
0.00258064
0.0025807
0.0025807
0.0025807
0.00258078
0.00258078
0.00258078
0.00258091
0.00258091
0.00258091
0.0025811
0.0025811
0.0025811
0.0025814
0.0025814
0.0025814
0.00258185
0.00258185
0.00258185
0.00258255
0.00258255
0.00258255
0.00258361
0.00258361
0.00258361
0.00258523
0.00258523
0.00258523
0.00258772
0.00258772
0.00258772
0.00259151
0.00259151
0.00259151
0.00259731
0.00259731
0.00259731
0.00260617
0.00260617
0.00260617
0.0026197
0.0026197
0.0026197
)
;
    }
    baffle_slave
    {
        type            calculated;
        value           nonuniform List<scalar> 
150
(
0.000849065
0.000850504
0.000850504
0.000836186
0.000837635
0.000837635
0.000824113
0.000825566
0.000825566
0.000812039
0.000813496
0.000813496
0.000799886
0.000801342
0.000801342
0.000787577
0.00078903
0.00078903
0.000775048
0.000776495
0.000776495
0.000762247
0.000763685
0.000763686
0.000749137
0.000750563
0.000750563
0.000735697
0.000737106
0.000737106
0.000721919
0.000723308
0.000723308
0.000707812
0.000709174
0.000709174
0.000693394
0.000694722
0.000694722
0.000678699
0.000679986
0.000679986
0.000663795
0.000665035
0.000665035
0.000648835
0.000650019
0.000650019
0.000634159
0.000635281
0.000635281
0.000620496
0.000621552
0.000621552
0.000609352
0.000610339
0.000610339
0.000603717
0.000604632
0.000604632
0.000609308
0.000610145
0.000610144
0.000636163
0.000636901
0.0006369
0.00069815
0.000698738
0.000698737
0.000803888
0.00080424
0.000804238
0.000943306
0.000943367
0.000943364
0.000850504
0.000849065
0.000850504
0.000837635
0.000836186
0.000837635
0.000825566
0.000824113
0.000825566
0.000813496
0.000812039
0.000813496
0.000801342
0.000799886
0.000801342
0.00078903
0.000787577
0.00078903
0.000776495
0.000775048
0.000776495
0.000763685
0.000762247
0.000763685
0.000750563
0.000749137
0.000750563
0.000737106
0.000735697
0.000737106
0.000723308
0.000721919
0.000723308
0.000709174
0.000707812
0.000709174
0.000694722
0.000693394
0.000694722
0.000679986
0.000678699
0.000679986
0.000665035
0.000663795
0.000665035
0.000650019
0.000648835
0.000650019
0.000635281
0.000634159
0.000635281
0.000621552
0.000620496
0.000621553
0.000610339
0.000609352
0.000610339
0.000604632
0.000603717
0.000604632
0.000610145
0.000609308
0.000610145
0.000636901
0.000636163
0.000636901
0.000698738
0.00069815
0.000698738
0.00080424
0.000803888
0.00080424
0.000943367
0.000943306
0.000943367
)
;
    }
}


// ************************************************************************* //
