/*--------------------------------*- C++ -*----------------------------------*\
| =========                 |                                                 |
| \\      /  F ield         | OpenFOAM: The Open Source CFD Toolbox           |
|  \\    /   O peration     | Version:  2212                                  |
|   \\  /    A nd           | Website:  www.openfoam.com                      |
|    \\/     M anipulation  |                                                 |
\*---------------------------------------------------------------------------*/
FoamFile
{
    version     2.0;
    format      ascii;
    arch        "LSB;label=32;scalar=64";
    class       volScalarField;
    location    "15/fluidRegion";
    object      deltaT;
}
// * * * * * * * * * * * * * * * * * * * * * * * * * * * * * * * * * * * * * //

dimensions      [0 0 0 1 0 0 0];

internalField   nonuniform List<scalar> 
350
(
0
0
0
0
0
0
0
0
0
0
0
0
0
0
0
0
0
0
0
0
0
0
0
0
0
0
0
0
0
0
0
0
0
0
0
0
0
0
0
0
0
0
0
0
0
0
0
0
0
0
0
17.2147
46.0826
74.6273
102.8
130.547
157.803
184.493
210.518
235.75
260.024
283.123
304.779
324.659
342.364
357.402
369.136
376.681
378.727
373.288
357.375
326.814
276.644
203.081
108.238
0
17.0349
46.152
74.9421
103.358
131.345
158.843
185.775
212.047
237.53
262.059
285.417
307.328
327.456
345.393
360.638
372.549
380.232
382.369
376.951
360.949
330.118
279.396
204.93
108.893
0
17.246
46.0737
74.579
102.713
130.42
157.638
184.289
210.274
235.466
259.698
282.756
304.371
324.213
341.882
356.889
368.597
376.122
378.157
372.718
356.824
326.311
276.23
202.805
108.139
0
17.0727
46.1323
74.8659
103.226
131.158
158.6
185.477
211.692
237.117
261.588
284.886
306.739
326.81
344.693
359.891
371.761
379.413
381.528
376.106
360.124
329.354
278.76
204.502
108.742
0
17.0727
46.1323
74.8659
103.226
131.158
158.6
185.477
211.692
237.117
261.588
284.886
306.739
326.81
344.693
359.891
371.761
379.413
381.528
376.106
360.123
329.354
278.76
204.502
108.742
0
17.2459
46.0737
74.5789
102.713
130.42
157.638
184.288
210.273
235.466
259.698
282.756
304.371
324.213
341.882
356.889
368.597
376.122
378.157
372.718
356.824
326.311
276.23
202.806
108.139
0
17.0349
46.152
74.9421
103.358
131.345
158.843
185.775
212.047
237.53
262.059
285.417
307.328
327.456
345.393
360.638
372.549
380.232
382.369
376.951
360.949
330.118
279.397
204.93
108.893
0
17.2147
46.0826
74.6274
102.8
130.547
157.803
184.493
210.518
235.75
260.024
283.123
304.778
324.659
342.364
357.402
369.136
376.681
378.727
373.288
357.374
326.814
276.644
203.081
108.238
0
17.0727
46.1323
74.8659
103.226
131.158
158.6
185.477
211.692
237.117
261.588
284.886
306.739
326.81
344.693
359.891
371.761
379.413
381.528
376.106
360.123
329.354
278.76
204.502
108.742
0
17.246
46.0738
74.579
102.713
130.42
157.638
184.289
210.274
235.466
259.698
282.756
304.371
324.213
341.882
356.889
368.597
376.122
378.157
372.718
356.824
326.311
276.23
202.805
108.139
0
17.2459
46.0737
74.5789
102.713
130.42
157.638
184.288
210.273
235.465
259.698
282.756
304.371
324.213
341.882
356.889
368.597
376.122
378.157
372.719
356.824
326.311
276.23
202.806
108.139
0
17.0727
46.1323
74.8659
103.226
131.158
158.6
185.477
211.692
237.117
261.588
284.886
306.739
326.81
344.693
359.891
371.761
379.413
381.528
376.106
360.123
329.354
278.76
204.502
108.742
)
;

boundaryField
{
    outletCentralUnloaded
    {
        type            calculated;
        value           uniform 0;
    }
    inletCentralUnloaded
    {
        type            calculated;
        value           uniform 0;
    }
    outletFuelElement
    {
        type            calculated;
        value           uniform 0;
    }
    inletFuelElement
    {
        type            calculated;
        value           uniform 616.7;
    }
    defaultFaces
    {
        type            calculated;
        value           nonuniform List<scalar> 
450
(
0
0
0
0
0
0
0
0
0
0
0
0
0
0
0
0
0
0
0
0
0
0
0
0
0
0
0
0
0
0
0
0
0
0
0
0
0
0
0
23.3723
23.3723
23.3723
98.7182
98.7182
98.7182
172.979
172.979
172.979
244.863
244.863
244.863
313.164
313.164
313.164
376.775
376.775
376.775
434.68
434.68
434.68
485.923
485.923
485.923
529.615
529.615
529.615
564.958
564.958
564.958
591.358
591.358
591.358
608.597
608.597
608.597
0
0
0
0
0
0
0
0
0
0
0
0
0
0
0
0
0
0
0
0
0
0
0
0
0
0
24.8106
24.8106
99.9531
99.9531
174.014
174.014
245.706
245.706
313.829
313.829
377.279
377.279
435.043
435.043
486.167
486.167
529.765
529.765
565.037
565.037
591.391
591.391
608.605
608.605
0
0
0
0
0
0
0
0
0
0
0
0
0
16.266
92.5908
167.822
240.641
309.817
374.224
432.831
484.671
528.845
564.55
591.192
608.561
0
0
0
0
0
0
0
0
0
0
0
0
0
16.266
92.5908
167.822
240.641
309.817
374.224
432.831
484.671
528.845
564.55
591.192
608.561
0
0
0
0
0
0
0
0
0
0
0
0
0
0
0
0
0
0
0
0
0
0
0
0
0
0
24.8101
24.8101
99.9527
99.9527
174.013
174.013
245.705
245.705
313.828
313.828
377.278
377.278
435.042
435.042
486.167
486.167
529.765
529.765
565.037
565.037
591.391
591.391
608.605
608.605
0
0
0
0
0
0
0
0
0
0
0
0
0
0
0
0
0
0
0
0
0
0
0
0
0
0
0
0
0
0
0
0
0
0
0
0
0
0
0
23.3723
23.3723
23.3723
98.7182
98.7182
98.7182
172.979
172.979
172.979
244.863
244.863
244.863
313.164
313.164
313.164
376.775
376.775
376.775
434.68
434.68
434.68
485.923
485.923
485.923
529.615
529.615
529.615
564.958
564.958
564.958
591.358
591.358
591.358
608.597
608.597
608.597
0
0
0
0
0
0
0
0
0
0
0
0
0
16.266
92.5908
167.822
240.641
309.817
374.224
432.831
484.671
528.845
564.55
591.192
608.561
0
0
0
0
0
0
0
0
0
0
0
0
0
0
0
0
0
0
0
0
0
0
0
0
0
0
24.8106
24.8106
99.9532
99.9532
174.014
174.014
245.706
245.706
313.829
313.829
377.279
377.279
435.043
435.043
486.167
486.167
529.765
529.765
565.037
565.037
591.391
591.391
608.605
608.605
0
0
0
0
0
0
0
0
0
0
0
0
0
0
0
0
0
0
0
0
0
0
0
0
0
0
24.8101
24.8101
99.9527
99.9527
174.013
174.013
245.706
245.706
313.828
313.828
377.278
377.278
435.042
435.042
486.167
486.167
529.765
529.765
565.037
565.037
591.391
591.391
608.605
608.605
0
0
0
0
0
0
0
0
0
0
0
0
0
16.266
92.5908
167.822
240.641
309.817
374.224
432.831
484.671
528.845
564.55
591.192
608.561
)
;
    }
    baffle_master
    {
        type            calculated;
        value           uniform 0;
    }
    baffle_slave
    {
        type            calculated;
        value           nonuniform List<scalar> 
150
(
0
0
0
0
0
0
0
0
0
0
0
0
0
0
0
0
0
0
0
0
0
0
0
0
0
0
0
0
0
0
0
0
0
0
0
0
0
0
0
14.146
16.266
16.266
90.7602
92.5908
92.5908
166.279
167.822
167.822
239.376
240.641
240.641
308.814
309.817
309.817
373.459
374.224
374.224
432.276
432.831
432.831
484.294
484.671
484.671
528.614
528.845
528.845
564.427
564.55
564.55
591.141
591.192
591.192
608.55
608.561
608.561
0
0
0
0
0
0
0
0
0
0
0
0
0
0
0
0
0
0
0
0
0
0
0
0
0
0
0
0
0
0
0
0
0
0
0
0
0
0
0
16.266
14.146
16.266
92.5908
90.7602
92.5908
167.822
166.279
167.822
240.641
239.376
240.641
309.817
308.814
309.817
374.224
373.459
374.224
432.831
432.276
432.831
484.671
484.294
484.671
528.845
528.614
528.845
564.55
564.427
564.55
591.192
591.141
591.192
608.561
608.55
608.561
)
;
    }
}


// ************************************************************************* //
