/*--------------------------------*- C++ -*----------------------------------*\
| =========                 |                                                 |
| \\      /  F ield         | OpenFOAM: The Open Source CFD Toolbox           |
|  \\    /   O peration     | Version:  2212                                  |
|   \\  /    A nd           | Website:  www.openfoam.com                      |
|    \\/     M anipulation  |                                                 |
\*---------------------------------------------------------------------------*/
FoamFile
{
    version     2.0;
    format      ascii;
    arch        "LSB;label=32;scalar=64";
    class       volScalarField;
    location    "15/fluidRegion";
    object      epsilon;
}
// * * * * * * * * * * * * * * * * * * * * * * * * * * * * * * * * * * * * * //

dimensions      [0 2 -3 0 0 0 0];

internalField   nonuniform List<scalar> 
350
(
66.5851
66.5687
66.5524
66.5362
66.5199
66.5038
66.4877
66.4718
66.456
66.4406
66.4256
66.4113
66.398
66.3863
66.377
66.3714
66.3715
66.3802
66.402
66.444
66.5167
66.6365
66.8281
67.1295
67.5986
66.5851
66.5687
66.5524
66.5362
66.5199
66.5038
66.4877
66.4718
66.456
66.4406
66.4256
66.4113
66.398
66.3863
66.377
66.3714
66.3715
66.3802
66.402
66.444
66.5167
66.6365
66.8281
67.1295
67.5986
2.09868e+06
1.99004e+06
1.85315e+06
1.68967e+06
1.50785e+06
1.3162e+06
1.1229e+06
935364
759808
601015
462176
344873
249195
173957
117017
75633.2
46825.6
27681.9
15588.1
8362.3
4305.11
2180.12
1154.03
711.535
565.042
2.13694e+06
2.0269e+06
1.88803e+06
1.72191e+06
1.53696e+06
1.34185e+06
1.14494e+06
953800
774797
612835
471192
351508
253889
177138
119073
76894.7
47554.9
28075.9
15784.5
8451.28
4340.9
2192.51
1157.58
712.405
565.39
2.09233e+06
1.98393e+06
1.8474e+06
1.68438e+06
1.50309e+06
1.31202e+06
1.11932e+06
932376
757384
599109
460725
343808
248442
173447
116687
75430.3
46707.8
27617.8
15555.6
8347.17
4298.7
2177.67
1153.18
711.273
564.975
2.12849e+06
2.01873e+06
1.88028e+06
1.71473e+06
1.53046e+06
1.33611e+06
1.14e+06
949654
771419
610165
469152
350004
252823
176415
118605
76607.2
47388.6
27986
15739.7
8431.01
4332.77
2189.72
1156.8
712.22
565.314
2.12849e+06
2.01873e+06
1.88028e+06
1.71473e+06
1.53046e+06
1.33611e+06
1.14e+06
949654
771419
610165
469152
350004
252823
176415
118605
76607.2
47388.6
27986
15739.7
8431.01
4332.77
2189.72
1156.8
712.22
565.314
2.09233e+06
1.98394e+06
1.84741e+06
1.68438e+06
1.50309e+06
1.31202e+06
1.11932e+06
932376
757385
599109
460725
343808
248442
173447
116687
75430.4
46707.8
27617.8
15555.6
8347.17
4298.7
2177.66
1153.18
711.273
564.976
2.13694e+06
2.0269e+06
1.88803e+06
1.72191e+06
1.53696e+06
1.34185e+06
1.14494e+06
953800
774797
612834
471192
351508
253889
177138
119073
76894.7
47554.9
28075.9
15784.5
8451.28
4340.9
2192.51
1157.58
712.405
565.39
2.09868e+06
1.99004e+06
1.85315e+06
1.68967e+06
1.50785e+06
1.3162e+06
1.1229e+06
935364
759808
601015
462176
344873
249195
173957
117017
75633.2
46825.6
27681.9
15588.1
8362.3
4305.11
2180.12
1154.03
711.534
565.041
2.12849e+06
2.01873e+06
1.88028e+06
1.71473e+06
1.53046e+06
1.33611e+06
1.14e+06
949654
771419
610165
469152
350004
252823
176415
118605
76607.2
47388.6
27986
15739.7
8431.01
4332.77
2189.72
1156.8
712.22
565.314
2.09232e+06
1.98393e+06
1.8474e+06
1.68438e+06
1.50309e+06
1.31202e+06
1.11932e+06
932376
757385
599109
460725
343808
248442
173447
116687
75430.3
46707.8
27617.8
15555.6
8347.17
4298.7
2177.67
1153.18
711.272
564.973
2.09233e+06
1.98394e+06
1.84741e+06
1.68438e+06
1.50309e+06
1.31202e+06
1.11932e+06
932377
757385
599109
460726
343808
248442
173447
116687
75430.4
46707.8
27617.8
15555.6
8347.17
4298.7
2177.66
1153.18
711.272
564.975
2.12849e+06
2.01873e+06
1.88028e+06
1.71473e+06
1.53046e+06
1.33611e+06
1.14e+06
949655
771419
610165
469152
350004
252823
176415
118605
76607.2
47388.6
27986
15739.7
8431.01
4332.77
2189.71
1156.8
712.218
565.313
)
;

boundaryField
{
    outletCentralUnloaded
    {
        type            zeroGradient;
    }
    inletCentralUnloaded
    {
        type            zeroGradient;
    }
    outletFuelElement
    {
        type            zeroGradient;
    }
    inletFuelElement
    {
        type            zeroGradient;
    }
    defaultFaces
    {
        type            zeroGradient;
    }
    baffle_master
    {
        type            zeroGradient;
    }
    baffle_slave
    {
        type            zeroGradient;
    }
}


// ************************************************************************* //
