/*--------------------------------*- C++ -*----------------------------------*\
| =========                 |                                                 |
| \\      /  F ield         | OpenFOAM: The Open Source CFD Toolbox           |
|  \\    /   O peration     | Version:  2212                                  |
|   \\  /    A nd           | Website:  www.openfoam.com                      |
|    \\/     M anipulation  |                                                 |
\*---------------------------------------------------------------------------*/
FoamFile
{
    version     2.0;
    format      ascii;
    arch        "LSB;label=32;scalar=64";
    class       volScalarField;
    location    "15/fluidRegion";
    object      htc;
}
// * * * * * * * * * * * * * * * * * * * * * * * * * * * * * * * * * * * * * //

dimensions      [1 0 -3 -1 0 0 0];

internalField   nonuniform List<scalar> 
350
(
3095.74
3095.76
3095.77
3095.79
3095.81
3095.82
3095.84
3095.86
3095.88
3095.89
3095.91
3095.93
3095.94
3095.96
3095.98
3096
3096.01
3096.03
3096.05
3096.06
3096.08
3096.1
3096.11
3096.13
3104.1
3095.74
3095.76
3095.77
3095.79
3095.81
3095.82
3095.84
3095.86
3095.88
3095.89
3095.91
3095.93
3095.94
3095.96
3095.98
3096
3096.01
3096.03
3096.05
3096.06
3096.08
3096.1
3096.11
3096.13
3104.1
19813.6
19812.1
19755
19600.6
19350.5
19007.2
18574.2
18056.1
17458.7
16788.6
16053.8
15262.3
14422.9
13543.6
12632.2
11695.7
10741.9
9779.93
8822.46
7887.17
6998.72
6190.23
5503.29
4982.94
4614.39
19863.9
19862.9
19806.7
19652.3
19401.7
19057.3
18622.6
18102.1
17501.6
16828
16089.1
15293.4
14449.8
13566.6
12651.5
11711.7
10754.9
9790.16
8829.84
7891.65
7000.37
6189.43
5500.93
4980.47
4613.37
19805.5
19803.8
19746.7
19592.3
19342.2
18999.1
18566.5
18048.8
17451.8
16782.4
16048.1
15257.3
14418.5
13539.9
12628.9
11692.9
10739.5
9778.04
8820.97
7886.09
6998.01
6189.83
5503.09
4982.79
4614.3
19852.8
19851.7
19795.2
19640.8
19390.3
19046.1
18611.7
18091.8
17491.9
16819.1
16081.1
15286.4
14443.8
13561.4
12647.1
11708.1
10752
9787.89
8828.21
7890.69
7000.05
6189.68
5501.54
4981.1
4613.64
19852.8
19851.7
19795.2
19640.8
19390.3
19046.1
18611.7
18091.8
17491.9
16819.1
16081.1
15286.4
14443.8
13561.4
12647.1
11708.1
10752
9787.89
8828.21
7890.69
7000.05
6189.68
5501.54
4981.1
4613.64
19805.5
19803.8
19746.7
19592.3
19342.3
18999.1
18566.5
18048.8
17451.8
16782.4
16048.1
15257.3
14418.5
13539.9
12628.9
11692.9
10739.5
9778.04
8820.97
7886.08
6998
6189.83
5503.08
4982.78
4614.3
19863.9
19862.9
19806.7
19652.3
19401.7
19057.3
18622.6
18102.1
17501.6
16828
16089.1
15293.4
14449.8
13566.6
12651.5
11711.7
10754.9
9790.16
8829.84
7891.65
7000.37
6189.43
5500.93
4980.47
4613.37
19813.6
19812.1
19755
19600.6
19350.5
19007.2
18574.2
18056.1
17458.7
16788.6
16053.8
15262.3
14422.9
13543.6
12632.2
11695.7
10741.9
9779.93
8822.46
7887.17
6998.72
6190.23
5503.29
4982.94
4614.39
19852.8
19851.7
19795.2
19640.8
19390.3
19046.1
18611.7
18091.8
17491.9
16819.1
16081.1
15286.4
14443.8
13561.4
12647.1
11708.1
10752
9787.89
8828.21
7890.69
7000.05
6189.68
5501.54
4981.1
4613.64
19805.5
19803.8
19746.7
19592.3
19342.2
18999.1
18566.5
18048.8
17451.8
16782.4
16048.1
15257.3
14418.5
13539.9
12628.9
11692.9
10739.5
9778.04
8820.97
7886.09
6998.01
6189.83
5503.09
4982.79
4614.3
19805.5
19803.8
19746.7
19592.3
19342.3
18999.1
18566.5
18048.8
17451.8
16782.4
16048.1
15257.3
14418.5
13539.9
12628.9
11692.9
10739.5
9778.04
8820.97
7886.08
6998
6189.83
5503.08
4982.78
4614.3
19852.8
19851.7
19795.2
19640.8
19390.3
19046.1
18611.7
18091.8
17491.9
16819.1
16081.1
15286.4
14443.8
13561.4
12647.1
11708.1
10752
9787.89
8828.21
7890.69
7000.05
6189.68
5501.54
4981.1
4613.64
)
;

boundaryField
{
    outletCentralUnloaded
    {
        type            zeroGradient;
    }
    inletCentralUnloaded
    {
        type            zeroGradient;
    }
    outletFuelElement
    {
        type            zeroGradient;
    }
    inletFuelElement
    {
        type            zeroGradient;
    }
    defaultFaces
    {
        type            zeroGradient;
    }
    baffle_master
    {
        type            zeroGradient;
    }
    baffle_slave
    {
        type            zeroGradient;
    }
}


// ************************************************************************* //
