/*--------------------------------*- C++ -*----------------------------------*\
| =========                 |                                                 |
| \\      /  F ield         | OpenFOAM: The Open Source CFD Toolbox           |
|  \\    /   O peration     | Version:  2212                                  |
|   \\  /    A nd           | Website:  www.openfoam.com                      |
|    \\/     M anipulation  |                                                 |
\*---------------------------------------------------------------------------*/
FoamFile
{
    version     2.0;
    format      ascii;
    arch        "LSB;label=32;scalar=64";
    class       volScalarField;
    location    "15/fluidRegion";
    object      k;
}
// * * * * * * * * * * * * * * * * * * * * * * * * * * * * * * * * * * * * * //

dimensions      [0 2 -2 0 0 0 0];

internalField   nonuniform List<scalar> 
350
(
0.419417
0.419348
0.419279
0.419211
0.419143
0.419075
0.419008
0.418942
0.418876
0.418812
0.418751
0.418693
0.418641
0.418597
0.418567
0.418556
0.418576
0.418643
0.41878
0.419027
0.419441
0.420108
0.421165
0.422816
0.425374
0.419417
0.419348
0.419279
0.419211
0.419143
0.419075
0.419008
0.418942
0.418876
0.418812
0.418751
0.418693
0.418641
0.418597
0.418567
0.418556
0.418576
0.418643
0.41878
0.419027
0.419441
0.420108
0.421165
0.422816
0.425374
172.067
165.818
157.826
148.081
136.923
124.718
111.847
98.6859
85.5983
72.9166
60.9333
49.8887
39.9636
31.2732
23.8666
17.7308
12.799
8.96261
6.08456
4.01268
2.59197
1.67432
1.12748
0.84161
0.733505
174.106
167.815
159.757
149.918
138.64
126.297
113.272
99.9484
86.6935
73.8459
61.7027
50.5091
40.4494
31.6415
24.136
17.9201
12.926
9.04335
6.13264
4.03908
2.60503
1.67997
1.12954
0.842275
0.733848
171.724
165.484
157.505
147.777
136.639
124.458
111.612
98.479
85.4192
72.7651
60.8081
49.788
39.8848
31.2134
23.8228
17.7
12.7782
8.94929
6.07649
4.00812
2.58959
1.67318
1.127
0.841438
0.733476
173.659
167.376
159.332
149.512
138.26
125.946
112.955
99.6665
86.4484
73.6374
61.5296
50.3693
40.3397
31.5581
24.0749
17.8771
12.8972
9.02499
6.12169
4.03307
2.60207
1.67869
1.12908
0.84213
0.73377
173.659
167.376
159.332
149.512
138.26
125.946
112.955
99.6665
86.4484
73.6374
61.5296
50.3693
40.3397
31.5581
24.0749
17.8771
12.8972
9.02499
6.12169
4.03307
2.60207
1.67869
1.12908
0.84213
0.73377
171.724
165.484
157.505
147.777
136.639
124.458
111.612
98.4791
85.4193
72.7652
60.8081
49.788
39.8848
31.2134
23.8228
17.7
12.7782
8.94929
6.07649
4.00812
2.58958
1.67318
1.127
0.841439
0.733478
174.106
167.815
159.757
149.918
138.64
126.297
113.272
99.9484
86.6935
73.8459
61.7027
50.5091
40.4494
31.6415
24.136
17.9201
12.926
9.04336
6.13264
4.03908
2.60504
1.67997
1.12954
0.842275
0.733848
172.067
165.818
157.826
148.081
136.923
124.718
111.847
98.686
85.5983
72.9167
60.9333
49.8888
39.9636
31.2732
23.8666
17.7308
12.799
8.96261
6.08455
4.01268
2.59197
1.67432
1.12748
0.841609
0.733503
173.659
167.376
159.332
149.512
138.26
125.946
112.955
99.6665
86.4484
73.6374
61.5296
50.3693
40.3397
31.5581
24.0749
17.8771
12.8972
9.02499
6.12169
4.03307
2.60207
1.67869
1.12908
0.84213
0.73377
171.724
165.484
157.505
147.777
136.639
124.458
111.612
98.4791
85.4193
72.7651
60.8081
49.788
39.8848
31.2134
23.8228
17.7
12.7782
8.94929
6.07649
4.00812
2.58958
1.67318
1.12699
0.841436
0.733474
171.724
165.484
157.505
147.777
136.639
124.458
111.612
98.4791
85.4193
72.7652
60.8081
49.788
39.8848
31.2134
23.8228
17.7
12.7782
8.94929
6.07649
4.00812
2.58958
1.67318
1.127
0.841438
0.733477
173.659
167.376
159.332
149.512
138.26
125.946
112.955
99.6666
86.4484
73.6374
61.5297
50.3693
40.3397
31.5581
24.0749
17.8771
12.8972
9.02499
6.12169
4.03307
2.60207
1.67869
1.12908
0.842128
0.733768
)
;

boundaryField
{
    outletCentralUnloaded
    {
        type            zeroGradient;
    }
    inletCentralUnloaded
    {
        type            zeroGradient;
    }
    outletFuelElement
    {
        type            zeroGradient;
    }
    inletFuelElement
    {
        type            zeroGradient;
    }
    defaultFaces
    {
        type            zeroGradient;
    }
    baffle_master
    {
        type            zeroGradient;
    }
    baffle_slave
    {
        type            zeroGradient;
    }
}


// ************************************************************************* //
