/*--------------------------------*- C++ -*----------------------------------*\
| =========                 |                                                 |
| \\      /  F ield         | OpenFOAM: The Open Source CFD Toolbox           |
|  \\    /   O peration     | Version:  2212                                  |
|   \\  /    A nd           | Website:  www.openfoam.com                      |
|    \\/     M anipulation  |                                                 |
\*---------------------------------------------------------------------------*/
FoamFile
{
    version     2.0;
    format      ascii;
    arch        "LSB;label=32;scalar=64";
    class       volScalarField;
    location    "15/fluidRegion";
    object      T.cladAvForNeutronics;
}
// * * * * * * * * * * * * * * * * * * * * * * * * * * * * * * * * * * * * * //

dimensions      [0 0 0 1 0 0 0];

internalField   nonuniform List<scalar> 
350
(
0
0
0
0
0
0
0
0
0
0
0
0
0
0
0
0
0
0
0
0
0
0
0
0
0
0
0
0
0
0
0
0
0
0
0
0
0
0
0
0
0
0
0
0
0
0
0
0
0
0
1225.88
1266.12
1296.68
1317.49
1328.59
1330.17
1322.5
1305.99
1281.15
1248.6
1209.09
1163.42
1112.51
1057.29
998.707
937.625
874.73
810.387
744.459
676.064
603.274
522.94
431.055
324.582
205.954
1241.42
1282.35
1313.45
1334.62
1345.94
1347.56
1339.77
1322.99
1297.72
1264.62
1224.41
1177.93
1126.1
1069.89
1010.27
948.119
884.158
818.78
751.862
682.52
608.804
527.503
434.523
326.759
206.693
1223.33
1263.47
1293.95
1314.71
1325.79
1327.37
1319.73
1303.27
1278.51
1246.06
1206.66
1161.13
1110.37
1055.31
996.898
935.988
873.262
809.084
743.314
675.069
602.426
522.246
430.532
324.255
205.841
1237.92
1278.69
1309.66
1330.74
1342
1343.6
1335.83
1319.11
1293.93
1260.95
1220.89
1174.6
1122.98
1066.99
1007.61
945.701
881.984
816.844
750.154
681.03
607.526
526.448
433.721
326.255
206.522
1237.92
1278.69
1309.66
1330.74
1342
1343.6
1335.83
1319.11
1293.93
1260.95
1220.89
1174.6
1122.98
1066.99
1007.61
945.701
881.984
816.844
750.154
681.03
607.526
526.449
433.721
326.255
206.522
1223.33
1263.47
1293.95
1314.71
1325.79
1327.37
1319.73
1303.27
1278.51
1246.06
1206.66
1161.13
1110.37
1055.31
996.899
935.989
873.263
809.084
743.314
675.069
602.427
522.247
430.532
324.255
205.841
1241.42
1282.35
1313.45
1334.62
1345.94
1347.56
1339.77
1322.99
1297.72
1264.62
1224.41
1177.93
1126.1
1069.89
1010.27
948.119
884.158
818.78
751.862
682.52
608.804
527.503
434.524
326.759
206.693
1225.88
1266.12
1296.68
1317.49
1328.59
1330.17
1322.5
1305.99
1281.15
1248.6
1209.09
1163.42
1112.51
1057.29
998.707
937.625
874.73
810.387
744.459
676.064
603.274
522.94
431.055
324.582
205.954
1237.92
1278.69
1309.66
1330.74
1342
1343.6
1335.83
1319.11
1293.93
1260.95
1220.89
1174.6
1122.98
1066.99
1007.61
945.701
881.984
816.844
750.154
681.03
607.526
526.449
433.721
326.255
206.522
1223.33
1263.47
1293.95
1314.71
1325.79
1327.37
1319.73
1303.27
1278.51
1246.06
1206.66
1161.13
1110.37
1055.31
996.898
935.988
873.262
809.084
743.314
675.069
602.426
522.246
430.532
324.255
205.841
1223.33
1263.47
1293.95
1314.71
1325.79
1327.37
1319.73
1303.27
1278.51
1246.06
1206.66
1161.13
1110.37
1055.31
996.899
935.989
873.263
809.084
743.314
675.069
602.427
522.246
430.532
324.255
205.841
1237.92
1278.69
1309.66
1330.74
1342
1343.6
1335.83
1319.11
1293.93
1260.95
1220.89
1174.6
1122.98
1066.99
1007.61
945.701
881.984
816.844
750.154
681.03
607.526
526.449
433.721
326.255
206.522
)
;

boundaryField
{
    outletCentralUnloaded
    {
        type            zeroGradient;
    }
    inletCentralUnloaded
    {
        type            zeroGradient;
    }
    outletFuelElement
    {
        type            zeroGradient;
    }
    inletFuelElement
    {
        type            zeroGradient;
    }
    defaultFaces
    {
        type            zeroGradient;
    }
    baffle_master
    {
        type            zeroGradient;
    }
    baffle_slave
    {
        type            zeroGradient;
    }
}


// ************************************************************************* //
