/*--------------------------------*- C++ -*----------------------------------*\
| =========                 |                                                 |
| \\      /  F ield         | OpenFOAM: The Open Source CFD Toolbox           |
|  \\    /   O peration     | Version:  2212                                  |
|   \\  /    A nd           | Website:  www.openfoam.com                      |
|    \\/     M anipulation  |                                                 |
\*---------------------------------------------------------------------------*/
FoamFile
{
    version     2.0;
    format      ascii;
    arch        "LSB;label=32;scalar=64";
    class       volScalarField;
    location    "15/fluidRegion";
    object      Tci.nuclearFuelPin;
}
// * * * * * * * * * * * * * * * * * * * * * * * * * * * * * * * * * * * * * //

dimensions      [0 0 0 1 0 0 0];

internalField   nonuniform List<scalar> 
350
(
0
0
0
0
0
0
0
0
0
0
0
0
0
0
0
0
0
0
0
0
0
0
0
0
0
0
0
0
0
0
0
0
0
0
0
0
0
0
0
0
0
0
0
0
0
0
0
0
0
0
1223.26
1271.34
1309.62
1337.92
1356.17
1364.41
1362.83
1351.73
1331.53
1302.8
1266.2
1222.49
1172.56
1117.33
1057.73
994.658
928.816
860.627
790.023
716.213
637.385
550.534
451.817
338.363
212.714
1238.68
1287.54
1326.45
1355.2
1373.74
1382.1
1380.47
1369.17
1348.61
1319.36
1282.09
1237.6
1186.78
1130.56
1069.91
1005.75
938.813
869.549
797.904
723.088
643.265
555.373
455.484
340.66
213.493
1220.72
1268.69
1306.89
1335.12
1353.33
1361.56
1360
1348.94
1328.81
1300.17
1263.68
1220.11
1170.32
1115.25
1055.83
992.925
927.258
859.24
788.801
715.151
636.481
549.795
451.262
338.017
212.595
1235.22
1283.89
1322.65
1351.29
1369.75
1378.07
1376.45
1365.18
1344.7
1315.56
1278.45
1234.13
1183.51
1127.51
1067.11
1003.19
936.509
867.491
796.086
721.501
641.907
554.255
454.636
340.128
213.313
1235.22
1283.89
1322.65
1351.29
1369.75
1378.07
1376.45
1365.18
1344.7
1315.56
1278.45
1234.13
1183.51
1127.51
1067.11
1003.19
936.509
867.491
796.086
721.501
641.907
554.255
454.636
340.128
213.313
1220.72
1268.69
1306.89
1335.12
1353.33
1361.56
1360
1348.94
1328.81
1300.17
1263.68
1220.11
1170.32
1115.25
1055.83
992.926
927.258
859.24
788.802
715.151
636.482
549.795
451.262
338.017
212.595
1238.68
1287.54
1326.45
1355.2
1373.74
1382.1
1380.47
1369.17
1348.61
1319.36
1282.09
1237.6
1186.78
1130.56
1069.91
1005.75
938.813
869.549
797.904
723.088
643.265
555.373
455.484
340.66
213.493
1223.26
1271.34
1309.63
1337.92
1356.17
1364.41
1362.83
1351.73
1331.53
1302.8
1266.2
1222.49
1172.56
1117.33
1057.73
994.658
928.816
860.627
790.023
716.213
637.385
550.534
451.817
338.363
212.714
1235.22
1283.89
1322.65
1351.29
1369.75
1378.07
1376.45
1365.18
1344.7
1315.56
1278.45
1234.13
1183.51
1127.51
1067.11
1003.19
936.509
867.491
796.086
721.501
641.907
554.255
454.636
340.128
213.313
1220.72
1268.69
1306.89
1335.12
1353.33
1361.56
1360
1348.94
1328.81
1300.17
1263.68
1220.11
1170.32
1115.25
1055.83
992.925
927.258
859.24
788.801
715.151
636.481
549.795
451.262
338.017
212.595
1220.72
1268.69
1306.89
1335.12
1353.33
1361.56
1360
1348.94
1328.81
1300.17
1263.68
1220.11
1170.32
1115.25
1055.83
992.925
927.258
859.24
788.802
715.151
636.482
549.795
451.262
338.017
212.595
1235.22
1283.89
1322.65
1351.29
1369.75
1378.07
1376.45
1365.18
1344.7
1315.56
1278.45
1234.13
1183.51
1127.51
1067.11
1003.19
936.509
867.491
796.086
721.501
641.907
554.255
454.636
340.128
213.313
)
;

boundaryField
{
    outletCentralUnloaded
    {
        type            zeroGradient;
    }
    inletCentralUnloaded
    {
        type            zeroGradient;
    }
    outletFuelElement
    {
        type            zeroGradient;
    }
    inletFuelElement
    {
        type            zeroGradient;
    }
    defaultFaces
    {
        type            zeroGradient;
    }
    baffle_master
    {
        type            zeroGradient;
    }
    baffle_slave
    {
        type            zeroGradient;
    }
}


// ************************************************************************* //
