/*--------------------------------*- C++ -*----------------------------------*\
| =========                 |                                                 |
| \\      /  F ield         | OpenFOAM: The Open Source CFD Toolbox           |
|  \\    /   O peration     | Version:  2212                                  |
|   \\  /    A nd           | Website:  www.openfoam.com                      |
|    \\/     M anipulation  |                                                 |
\*---------------------------------------------------------------------------*/
FoamFile
{
    version     2.0;
    format      ascii;
    arch        "LSB;label=32;scalar=64";
    class       volScalarField;
    location    "15/fluidRegion";
    object      Tco.nuclearFuelPin;
}
// * * * * * * * * * * * * * * * * * * * * * * * * * * * * * * * * * * * * * //

dimensions      [0 0 0 1 0 0 0];

internalField   nonuniform List<scalar> 
350
(
0
0
0
0
0
0
0
0
0
0
0
0
0
0
0
0
0
0
0
0
0
0
0
0
0
0
0
0
0
0
0
0
0
0
0
0
0
0
0
0
0
0
0
0
0
0
0
0
0
0
1228.39
1261.32
1284.67
1298.48
1302.92
1298.27
1284.92
1263.35
1234.17
1198.07
1155.83
1108.33
1056.5
1001.29
943.646
884.423
824.274
763.518
701.953
638.608
571.452
497.199
411.686
311.723
199.641
1244.04
1277.57
1301.38
1315.48
1320.05
1315.38
1301.84
1279.94
1250.29
1213.58
1170.61
1122.28
1069.51
1013.31
954.633
894.359
833.172
771.418
708.91
644.675
576.655
501.504
414.97
313.789
200.343
1225.82
1258.66
1281.95
1295.72
1300.16
1295.52
1282.21
1260.7
1231.6
1195.61
1153.49
1106.13
1054.45
999.402
941.929
882.875
822.891
762.294
700.878
637.676
570.657
496.546
411.193
311.414
199.534
1240.52
1273.91
1297.6
1311.63
1316.17
1311.49
1297.98
1276.16
1246.6
1210.03
1167.22
1119.07
1066.52
1010.54
952.103
892.069
831.12
769.595
707.304
643.274
575.453
500.509
414.21
313.311
200.181
1240.52
1273.91
1297.6
1311.63
1316.17
1311.49
1297.98
1276.16
1246.6
1210.03
1167.22
1119.07
1066.52
1010.54
952.103
892.069
831.12
769.595
707.304
643.274
575.453
500.509
414.21
313.311
200.181
1225.82
1258.66
1281.95
1295.73
1300.16
1295.52
1282.21
1260.7
1231.6
1195.61
1153.49
1106.13
1054.45
999.403
941.929
882.875
822.891
762.294
700.879
637.676
570.657
496.546
411.194
311.414
199.534
1244.03
1277.57
1301.38
1315.48
1320.05
1315.38
1301.84
1279.94
1250.29
1213.58
1170.61
1122.28
1069.51
1013.31
954.633
894.359
833.172
771.418
708.91
644.675
576.655
501.504
414.97
313.789
200.343
1228.39
1261.32
1284.67
1298.48
1302.92
1298.27
1284.92
1263.35
1234.17
1198.07
1155.83
1108.33
1056.5
1001.29
943.646
884.423
824.274
763.517
701.953
638.608
571.452
497.199
411.687
311.723
199.641
1240.52
1273.91
1297.6
1311.63
1316.17
1311.49
1297.98
1276.16
1246.6
1210.03
1167.22
1119.07
1066.52
1010.54
952.103
892.069
831.12
769.595
707.304
643.274
575.453
500.509
414.21
313.311
200.181
1225.82
1258.66
1281.95
1295.72
1300.16
1295.52
1282.21
1260.7
1231.6
1195.61
1153.49
1106.13
1054.45
999.402
941.929
882.875
822.891
762.294
700.878
637.676
570.657
496.546
411.193
311.414
199.534
1225.82
1258.66
1281.95
1295.73
1300.16
1295.52
1282.21
1260.7
1231.6
1195.61
1153.49
1106.13
1054.45
999.403
941.929
882.875
822.891
762.294
700.879
637.676
570.657
496.546
411.194
311.414
199.534
1240.52
1273.91
1297.6
1311.63
1316.17
1311.49
1297.98
1276.16
1246.6
1210.03
1167.22
1119.07
1066.52
1010.54
952.103
892.069
831.12
769.595
707.304
643.274
575.453
500.509
414.21
313.311
200.181
)
;

boundaryField
{
    outletCentralUnloaded
    {
        type            zeroGradient;
    }
    inletCentralUnloaded
    {
        type            zeroGradient;
    }
    outletFuelElement
    {
        type            zeroGradient;
    }
    inletFuelElement
    {
        type            zeroGradient;
    }
    defaultFaces
    {
        type            zeroGradient;
    }
    baffle_master
    {
        type            zeroGradient;
    }
    baffle_slave
    {
        type            zeroGradient;
    }
}


// ************************************************************************* //
