/*--------------------------------*- C++ -*----------------------------------*\
| =========                 |                                                 |
| \\      /  F ield         | OpenFOAM: The Open Source CFD Toolbox           |
|  \\    /   O peration     | Version:  2212                                  |
|   \\  /    A nd           | Website:  www.openfoam.com                      |
|    \\/     M anipulation  |                                                 |
\*---------------------------------------------------------------------------*/
FoamFile
{
    version     2.0;
    format      ascii;
    arch        "LSB;label=32;scalar=64";
    class       volScalarField;
    location    "15/fluidRegion";
    object      Tfi.nuclearFuelPin;
}
// * * * * * * * * * * * * * * * * * * * * * * * * * * * * * * * * * * * * * //

dimensions      [0 0 0 1 0 0 0];

internalField   nonuniform List<scalar> 
350
(
0
0
0
0
0
0
0
0
0
0
0
0
0
0
0
0
0
0
0
0
0
0
0
0
0
0
0
0
0
0
0
0
0
0
0
0
0
0
0
0
0
0
0
0
0
0
0
0
0
0
1082.22
1779.19
2457.69
3107.06
3717.14
4278.37
4781.97
5220.05
5585.77
5873.4
6078.45
6197.73
6229.39
6172.91
6029.18
5800.41
5490.09
5102.95
4644.8
4122.55
3543.86
2917.29
2251.98
1557.96
846.814
1088.92
1793.96
2480.29
3137.16
3754.28
4321.98
4831.38
5274.49
5644.4
5935.32
6142.71
6263.34
6295.33
6238.18
6092.77
5861.35
5547.45
5155.85
4692.44
4164.2
3578.89
2945.15
2272.22
1570.24
850.931
1081.13
1776.82
2454.07
3102.25
3711.21
4271.42
4774.1
5211.38
5576.43
5863.53
6068.22
6187.29
6218.89
6162.52
6019.06
5790.71
5480.97
5094.53
4637.22
4115.92
3538.29
2912.86
2248.77
1556.01
846.159
1087.39
1790.57
2475.1
3130.24
3745.74
4311.95
4820.01
5261.97
5630.91
5921.07
6127.92
6248.24
6280.15
6223.15
6078.13
5847.32
5534.25
5143.67
4681.48
4154.61
3570.83
2938.74
2267.56
1567.41
849.983
1087.39
1790.57
2475.1
3130.24
3745.74
4311.95
4820.01
5261.97
5630.91
5921.07
6127.92
6248.24
6280.15
6223.15
6078.13
5847.32
5534.25
5143.67
4681.48
4154.61
3570.83
2938.74
2267.56
1567.41
849.983
1081.13
1776.82
2454.07
3102.25
3711.21
4271.42
4774.1
5211.38
5576.43
5863.53
6068.22
6187.29
6218.89
6162.52
6019.06
5790.71
5480.97
5094.53
4637.22
4115.92
3538.29
2912.86
2248.77
1556.01
846.159
1088.92
1793.96
2480.29
3137.16
3754.28
4321.98
4831.38
5274.49
5644.4
5935.32
6142.71
6263.34
6295.33
6238.18
6092.77
5861.35
5547.45
5155.85
4692.44
4164.2
3578.89
2945.15
2272.22
1570.24
850.931
1082.22
1779.19
2457.69
3107.06
3717.14
4278.37
4781.97
5220.05
5585.77
5873.4
6078.45
6197.73
6229.38
6172.91
6029.18
5800.41
5490.09
5102.95
4644.8
4122.55
3543.86
2917.29
2251.98
1557.96
846.814
1087.39
1790.57
2475.1
3130.24
3745.74
4311.95
4820.01
5261.97
5630.91
5921.07
6127.92
6248.24
6280.15
6223.15
6078.13
5847.32
5534.25
5143.67
4681.48
4154.61
3570.83
2938.74
2267.56
1567.41
849.983
1081.13
1776.82
2454.07
3102.25
3711.21
4271.42
4774.1
5211.38
5576.43
5863.53
6068.22
6187.29
6218.89
6162.52
6019.06
5790.71
5480.97
5094.53
4637.22
4115.92
3538.29
2912.86
2248.77
1556.01
846.159
1081.13
1776.82
2454.07
3102.25
3711.21
4271.42
4774.1
5211.38
5576.43
5863.53
6068.22
6187.29
6218.89
6162.52
6019.06
5790.71
5480.97
5094.53
4637.22
4115.92
3538.29
2912.86
2248.77
1556.01
846.159
1087.39
1790.57
2475.1
3130.24
3745.74
4311.95
4820.01
5261.97
5630.91
5921.07
6127.92
6248.24
6280.15
6223.15
6078.13
5847.32
5534.25
5143.67
4681.48
4154.61
3570.83
2938.74
2267.56
1567.41
849.983
)
;

boundaryField
{
    outletCentralUnloaded
    {
        type            zeroGradient;
    }
    inletCentralUnloaded
    {
        type            zeroGradient;
    }
    outletFuelElement
    {
        type            zeroGradient;
    }
    inletFuelElement
    {
        type            zeroGradient;
    }
    defaultFaces
    {
        type            zeroGradient;
    }
    baffle_master
    {
        type            zeroGradient;
    }
    baffle_slave
    {
        type            zeroGradient;
    }
}


// ************************************************************************* //
