# Region      : all fluidRegion
# Cells       : 350
# Volume      : 2.936815e-03
# Time        	volIntegrate(powerDensity.nuclearFuelPin)
