/*--------------------------------*- C++ -*----------------------------------*\
| =========                 |                                                 |
| \\      /  F ield         | OpenFOAM: The Open Source CFD Toolbox           |
|  \\    /   O peration     | Version:  2212                                  |
|   \\  /    A nd           | Website:  www.openfoam.com                      |
|    \\/     M anipulation  |                                                 |
\*---------------------------------------------------------------------------*/
FoamFile
{
    version     2.0;
    format      ascii;
    arch        "LSB;label=32;scalar=64";
    class       volTensorField;
    location    "80/fluidRegion";
    object      KdTotU;
}
// * * * * * * * * * * * * * * * * * * * * * * * * * * * * * * * * * * * * * //

dimensions      [1 -2 -2 0 0 0 0];

internalField   nonuniform List<tensor> 
17
(
(5252.12 0 0 0 5252.12 0 0 0 5252.12)
(5252.12 0 0 0 5252.12 0 0 0 5252.12)
(9392.44 0 0 0 9392.44 0 0 0 9392.44)
(13882.2 0 0 0 13882.2 0 0 0 13882.2)
(16467.5 0 0 0 16467.5 0 0 0 16467.5)
(19386.4 0 0 0 19386.4 0 0 0 19386.4)
(23037.1 0 0 0 23037.1 0 0 0 23037.1)
(27873.2 0 0 0 27873.2 0 0 0 27873.2)
(34325 0 0 0 34325 0 0 0 34325)
(42744.3 0 0 0 42744.3 0 0 0 42744.3)
(53227.2 0 0 0 53227.2 0 0 0 53227.2)
(65482.5 0 0 0 65482.5 0 0 0 65482.5)
(78883.5 0 0 0 78883.5 0 0 0 78883.5)
(92699.5 0 0 0 92699.5 0 0 0 92699.5)
(106352 0 0 0 106352 0 0 0 106352)
(119480 0 0 0 119480 0 0 0 119480)
(132196 0 0 0 132196 0 0 0 132196)
)
;

boundaryField
{
    inlet
    {
        type            zeroGradient;
    }
    outlet
    {
        type            zeroGradient;
    }
    fixedWalls
    {
        type            zeroGradient;
    }
}


// ************************************************************************* //
