/*--------------------------------*- C++ -*----------------------------------*\
| =========                 |                                                 |
| \\      /  F ield         | OpenFOAM: The Open Source CFD Toolbox           |
|  \\    /   O peration     | Version:  2212                                  |
|   \\  /    A nd           | Website:  www.openfoam.com                      |
|    \\/     M anipulation  |                                                 |
\*---------------------------------------------------------------------------*/
FoamFile
{
    version     2.0;
    format      ascii;
    arch        "LSB;label=32;scalar=64";
    class       volScalarField;
    location    "80/fluidRegion";
    object      p;
}
// * * * * * * * * * * * * * * * * * * * * * * * * * * * * * * * * * * * * * //

dimensions      [1 -1 -2 0 0 0 0];

internalField   nonuniform List<scalar> 
17
(
1.49582e+07
1.49572e+07
1.49556e+07
1.49516e+07
1.49468e+07
1.49415e+07
1.49354e+07
1.49282e+07
1.49196e+07
1.49091e+07
1.48961e+07
1.48803e+07
1.48611e+07
1.48386e+07
1.48127e+07
1.47835e+07
1.47512e+07
)
;

boundaryField
{
    inlet
    {
        type            calculated;
        value           uniform 1.49586e+07;
    }
    outlet
    {
        type            calculated;
        value           uniform 1.47338e+07;
    }
    fixedWalls
    {
        type            calculated;
        value           nonuniform List<scalar> 
68
(
1.49582e+07
1.49572e+07
1.49556e+07
1.49516e+07
1.49468e+07
1.49415e+07
1.49354e+07
1.49282e+07
1.49196e+07
1.49091e+07
1.48961e+07
1.48803e+07
1.48611e+07
1.48386e+07
1.48127e+07
1.47835e+07
1.47512e+07
1.49582e+07
1.49572e+07
1.49556e+07
1.49516e+07
1.49468e+07
1.49415e+07
1.49354e+07
1.49282e+07
1.49196e+07
1.49091e+07
1.48961e+07
1.48803e+07
1.48611e+07
1.48386e+07
1.48127e+07
1.47835e+07
1.47512e+07
1.49582e+07
1.49572e+07
1.49556e+07
1.49516e+07
1.49468e+07
1.49415e+07
1.49354e+07
1.49282e+07
1.49196e+07
1.49091e+07
1.48961e+07
1.48803e+07
1.48611e+07
1.48386e+07
1.48127e+07
1.47835e+07
1.47512e+07
1.49582e+07
1.49572e+07
1.49556e+07
1.49516e+07
1.49468e+07
1.49415e+07
1.49354e+07
1.49282e+07
1.49196e+07
1.49091e+07
1.48961e+07
1.48803e+07
1.48611e+07
1.48386e+07
1.48127e+07
1.47835e+07
1.47512e+07
)
;
    }
}


// ************************************************************************* //
