/*--------------------------------*- C++ -*----------------------------------*\
| =========                 |                                                 |
| \\      /  F ield         | OpenFOAM: The Open Source CFD Toolbox           |
|  \\    /   O peration     | Version:  2212                                  |
|   \\  /    A nd           | Website:  www.openfoam.com                      |
|    \\/     M anipulation  |                                                 |
\*---------------------------------------------------------------------------*/
FoamFile
{
    version     2.0;
    format      ascii;
    arch        "LSB;label=32;scalar=64";
    class       volScalarField;
    location    "80/fluidRegion";
    object      p_rgh;
}
// * * * * * * * * * * * * * * * * * * * * * * * * * * * * * * * * * * * * * //

dimensions      [1 -1 -2 0 0 0 0];

internalField   nonuniform List<scalar> 
17
(
1.49583e+07
1.49577e+07
1.49565e+07
1.49531e+07
1.49488e+07
1.49441e+07
1.49384e+07
1.49317e+07
1.49234e+07
1.49132e+07
1.49005e+07
1.48848e+07
1.48659e+07
1.48435e+07
1.48178e+07
1.47887e+07
1.47566e+07
)
;

boundaryField
{
    inlet
    {
        type            fixedFluxPressure;
        gradient        uniform 12087.9;
        value           uniform 1.49586e+07;
    }
    outlet
    {
        type            fixedValue;
        value           uniform 1.47394e+07;
    }
    fixedWalls
    {
        type            fixedFluxPressure;
        gradient        uniform 0;
        value           nonuniform List<scalar> 
68
(
1.49583e+07
1.49577e+07
1.49565e+07
1.49531e+07
1.49488e+07
1.49441e+07
1.49384e+07
1.49317e+07
1.49234e+07
1.49132e+07
1.49005e+07
1.48848e+07
1.48659e+07
1.48435e+07
1.48178e+07
1.47887e+07
1.47566e+07
1.49583e+07
1.49577e+07
1.49565e+07
1.49531e+07
1.49488e+07
1.49441e+07
1.49384e+07
1.49317e+07
1.49234e+07
1.49132e+07
1.49005e+07
1.48848e+07
1.48659e+07
1.48435e+07
1.48178e+07
1.47887e+07
1.47566e+07
1.49583e+07
1.49577e+07
1.49565e+07
1.49531e+07
1.49488e+07
1.49441e+07
1.49384e+07
1.49317e+07
1.49234e+07
1.49132e+07
1.49005e+07
1.48848e+07
1.48659e+07
1.48435e+07
1.48178e+07
1.47887e+07
1.47566e+07
1.49583e+07
1.49577e+07
1.49565e+07
1.49531e+07
1.49488e+07
1.49441e+07
1.49384e+07
1.49317e+07
1.49234e+07
1.49132e+07
1.49005e+07
1.48848e+07
1.48659e+07
1.48435e+07
1.48178e+07
1.47887e+07
1.47566e+07
)
;
    }
}


// ************************************************************************* //
