/*--------------------------------*- C++ -*----------------------------------*\
| =========                 |                                                 |
| \\      /  F ield         | OpenFOAM: The Open Source CFD Toolbox           |
|  \\    /   O peration     | Version:  2212                                  |
|   \\  /    A nd           | Website:  www.openfoam.com                      |
|    \\/     M anipulation  |                                                 |
\*---------------------------------------------------------------------------*/
FoamFile
{
    version     2.0;
    format      ascii;
    arch        "LSB;label=32;scalar=64";
    class       surfaceScalarField;
    location    "11/fluidRegion";
    object      alphaPhi;
}
// * * * * * * * * * * * * * * * * * * * * * * * * * * * * * * * * * * * * * //

dimensions      [0 3 -1 0 0 0 0];

oriented        oriented;

internalField   nonuniform List<scalar> 
661
(
-0.000533977
-2.85768e-17
-0.000533934
1.75886e-16
-0.000533891
5.20507e-19
-0.000533848
-3.31124e-16
-0.000533805
8.87292e-17
-0.000533762
3.62934e-16
-0.000533719
5.8931e-17
-0.000533676
-6.31031e-16
-0.000533633
-1.47851e-15
-0.00053359
-6.70599e-16
-0.000533548
-2.11791e-16
-0.000533505
-3.91558e-16
-0.000533462
-7.63263e-16
-0.000533419
-1.7757e-16
-0.000533376
6.12268e-16
-0.000533333
5.92107e-16
-0.00053329
2.00935e-16
-0.000533248
7.58774e-16
-0.000533205
1.08519e-15
-0.000533162
7.84485e-16
-0.000533119
3.5057e-16
-0.000533076
-5.44672e-17
-0.000533033
2.34395e-16
-0.000532992
-9.0846e-17
-8.58295e-16
-0.000533977
-0.000533934
-0.000533891
-0.000533848
-0.000533805
-0.000533762
-0.000533719
-0.000533676
-0.000533633
-0.00053359
-0.000533548
-0.000533505
-0.000533462
-0.000533419
-0.000533376
-0.000533333
-0.00053329
-0.000533248
-0.000533205
-0.000533162
-0.000533119
-0.000533076
-0.000533033
-0.000532992
-0.00576004
2.81448e-07
-0.00572106
3.7492e-07
-0.00565095
3.51515e-07
-0.00554998
2.89219e-07
-0.00541903
2.28053e-07
-0.00525945
1.66768e-07
-0.0050731
1.06455e-07
-0.00486227
4.79683e-08
-0.00462968
-7.74609e-09
-0.00437835
-5.98682e-08
-0.00411162
-1.07247e-07
-0.00383306
-1.49716e-07
-0.00354637
-1.86084e-07
-0.00325533
-2.16512e-07
-0.00296376
-2.39959e-07
-0.00267539
-2.5701e-07
-0.00239385
-2.66769e-07
-0.00212257
-2.70029e-07
-0.00186474
-2.65942e-07
-0.00162329
-2.55261e-07
-0.00140071
-2.37122e-07
-0.00119908
-2.1232e-07
-0.00101991
-1.78959e-07
-0.000864297
-1.31962e-07
2.65569e-08
-0.00577451
-5.05191e-08
-5.40508e-08
-0.00573608
-1.13007e-07
-1.1682e-07
-0.00566625
-9.83916e-08
-1.00907e-07
-0.0055654
-8.05061e-08
-8.24564e-08
-0.00543436
-6.28479e-08
-6.40913e-08
-0.00527452
-4.52616e-08
-4.68077e-08
-0.00508772
-2.76276e-08
-2.97358e-08
-0.00487628
-1.05522e-08
-1.36671e-08
-0.00464291
5.86245e-09
2.39414e-09
-0.00439068
2.13115e-08
1.72194e-08
-0.00412294
3.56504e-08
3.2006e-08
-0.00384328
4.84377e-08
4.47435e-08
-0.00355542
5.97877e-08
5.71628e-08
-0.0032632
6.92141e-08
6.69151e-08
-0.00297044
7.69647e-08
7.59638e-08
-0.00268091
8.25298e-08
8.19576e-08
-0.00239826
8.62864e-08
8.6878e-08
-0.00212596
8.76747e-08
8.85667e-08
-0.00186722
8.70372e-08
8.87147e-08
-0.00162498
8.38176e-08
8.55255e-08
-0.00140176
7.82322e-08
8.02376e-08
-0.00119964
6.97036e-08
7.16106e-08
-0.00102014
5.77168e-08
5.94091e-08
-0.00086435
4.51776e-08
4.61071e-08
4.23227e-08
4.27094e-08
-0.00575765
2.68354e-07
-0.00571862
4.16231e-07
-0.00564847
3.66899e-07
-0.00554749
2.99026e-07
-0.00541655
2.31884e-07
-0.00525701
1.6565e-07
-0.00507074
1.00714e-07
-0.00486002
3.82131e-08
-0.00462754
-2.15861e-08
-0.00437636
-7.71143e-08
-0.0041098
-1.28274e-07
-0.00383141
-1.73624e-07
-0.0035449
-2.13144e-07
-0.00325405
-2.45512e-07
-0.00296267
-2.71129e-07
-0.00267448
-2.88881e-07
-0.00239311
-2.99467e-07
-0.00212199
-3.01884e-07
-0.00186431
-2.96971e-07
-0.00162298
-2.83572e-07
-0.0014005
-2.6232e-07
-0.00119895
-2.32169e-07
-0.00101984
-1.92904e-07
-0.000864264
-1.4062e-07
-6.95003e-08
-0.00577127
1.33674e-10
-0.00573271
-1.70365e-11
-0.00566282
5.82666e-11
-0.00556193
-3.52635e-11
-0.0054309
-3.00939e-11
-0.00527111
-1.03761e-11
-0.00508442
-1.01338e-11
-0.00487311
2.20178e-11
-0.00463992
5.66051e-11
-0.00438788
5.98492e-11
-0.00412037
9.26675e-11
-0.00384096
9.55222e-11
-0.00355337
1.18926e-10
-0.00326141
1.00254e-10
-0.00296892
9.04228e-11
-0.00267965
5.18097e-11
-0.00239726
2.57092e-11
-0.00212519
1.35893e-11
-0.00186666
-1.94707e-11
-0.0016246
-2.92047e-11
-0.00140152
-6.30923e-11
-0.00119952
-6.92529e-11
-0.00102009
-1.54766e-10
-0.000864336
-1.7461e-10
2.28328e-10
-0.00577128
-2.68224e-07
-0.00573272
-4.1619e-07
-0.00566282
-3.66693e-07
-0.00556193
-2.99062e-07
-0.00543091
-2.31994e-07
-0.00527112
-1.65736e-07
-0.00508442
-1.00824e-07
-0.00487312
-3.82291e-08
-0.00463992
2.16302e-08
-0.00438789
7.72111e-08
-0.00412038
1.28436e-07
-0.00384096
1.73822e-07
-0.00355337
2.1338e-07
-0.00326142
2.4573e-07
-0.00296892
2.71318e-07
-0.00267966
2.8901e-07
-0.00239726
2.99539e-07
-0.0021252
3.01931e-07
-0.00186666
2.9694e-07
-0.0016246
2.8352e-07
-0.00140153
2.6219e-07
-0.00119952
2.32025e-07
-0.00102009
1.92594e-07
-0.000864337
1.40271e-07
6.99926e-08
-0.00575766
4.89574e-08
-0.00571863
1.11557e-07
-0.00564847
9.71962e-08
-0.00554749
7.9481e-08
-0.00541655
6.23175e-08
-0.00525702
4.43528e-08
-0.00507074
2.67097e-08
-0.00486002
8.93329e-09
-0.00462755
-7.36817e-09
-0.00437636
-2.33742e-08
-0.0041098
-3.72329e-08
-0.00383141
-5.03665e-08
-0.0035449
-6.09048e-08
-0.00325406
-7.05921e-08
-0.00296267
-7.73858e-08
-0.00267448
-8.32277e-08
-0.00239311
-8.60467e-08
-0.00212199
-8.77574e-08
-0.00186431
-8.63557e-08
-0.00162298
-8.35312e-08
-0.0014005
-7.74197e-08
-0.00119895
-6.92659e-08
-0.00101984
-5.69562e-08
-0.000864264
-4.49957e-08
-4.31852e-08
-0.00577451
-2.84946e-07
-5.35281e-08
-0.00573608
-3.77667e-07
-1.16092e-07
-0.00566625
-3.52776e-07
-1.00718e-07
-0.0055654
-2.90057e-07
-8.21757e-08
-0.00543436
-2.28455e-07
-6.39557e-08
-0.00527452
-1.67768e-07
-4.65479e-08
-0.00508772
-1.07821e-07
-2.93878e-08
-0.00487628
-5.03107e-08
-1.31091e-08
-0.00464291
5.42626e-09
2.89453e-09
-0.00439068
5.68386e-08
1.78931e-08
-0.00412294
1.04944e-07
3.24226e-08
-0.00384328
1.47008e-07
4.5261e-08
-0.00355542
1.84655e-07
5.72996e-08
-0.0032632
2.14783e-07
6.71264e-08
-0.00297044
2.39739e-07
7.57817e-08
-0.00268091
2.56436e-07
8.18542e-08
-0.00239826
2.67647e-07
8.64313e-08
-0.00212596
2.70442e-07
8.81891e-08
-0.00186722
2.67502e-07
8.80911e-08
-0.00162498
2.56231e-07
8.50055e-08
-0.00140176
2.3881e-07
7.96108e-08
-0.00119964
2.13433e-07
7.10797e-08
-0.00102014
1.80374e-07
5.89491e-08
-0.00086435
1.32567e-07
4.57583e-08
-2.68459e-08
4.21475e-08
-0.00576004
-0.00572106
-0.00565095
-0.00554998
-0.00541903
-0.00525945
-0.0050731
-0.00486227
-0.00462968
-0.00437835
-0.00411162
-0.00383306
-0.00354637
-0.00325533
-0.00296376
-0.00267539
-0.00239385
-0.00212257
-0.00186474
-0.00162329
-0.00140071
-0.00119908
-0.00101991
-0.000864297
-0.00577127
-2.68565e-07
7.08647e-10
-0.00573271
-4.16378e-07
-3.07274e-10
-0.00566282
-3.66883e-07
5.97123e-11
-0.00556193
-2.98995e-07
-2.75119e-10
-0.0054309
-2.31788e-07
3.69068e-11
-0.00527111
-1.6582e-07
-1.85059e-10
-0.00508442
-1.00839e-07
9.8016e-11
-0.00487311
-3.85519e-08
-1.61719e-10
-0.00463992
2.13982e-08
1.62922e-10
-0.00438788
7.67503e-08
-1.47217e-10
-0.00412037
1.28107e-07
2.58593e-10
-0.00384096
1.73307e-07
-1.13658e-10
-0.00355337
2.13083e-07
2.99822e-10
-0.00326141
2.45239e-07
-5.75612e-11
-0.00296892
2.71115e-07
3.4946e-10
-0.00267965
2.88577e-07
5.15657e-11
-0.00239726
2.99425e-07
4.07036e-10
-0.00212519
3.01542e-07
1.55054e-10
-0.00186666
2.96844e-07
4.60616e-10
-0.0016246
2.83149e-07
2.9045e-10
-0.00140152
2.62073e-07
4.74142e-10
-0.00119952
2.3163e-07
4.38086e-10
-0.00102009
1.9247e-07
4.7667e-10
-0.000864337
1.39864e-07
6.43542e-10
6.8787e-08
7.66419e-10
-0.00575765
-0.00571862
-0.00564847
-0.00554749
-0.00541655
-0.00525701
-0.00507074
-0.00486002
-0.00462754
-0.00437636
-0.0041098
-0.00383141
-0.0035449
-0.00325405
-0.00296267
-0.00267448
-0.00239311
-0.00212199
-0.00186431
-0.00162298
-0.0014005
-0.00119895
-0.00101984
-0.000864264
-0.00575766
2.64228e-07
-0.00571863
4.12863e-07
-0.00564847
3.64635e-07
-0.00554749
2.9735e-07
-0.00541655
2.31104e-07
-0.00525702
1.64079e-07
-0.00507074
9.89412e-08
-0.00486002
3.49813e-08
-0.00462755
-2.47551e-08
-0.00437636
-8.14082e-08
-0.0041098
-1.31612e-07
-0.00383141
-1.77674e-07
-0.0035449
-2.15493e-07
-0.00325406
-2.48366e-07
-0.00296267
-2.71919e-07
-0.00267448
-2.90192e-07
-0.00239311
-2.98753e-07
-0.00212199
-3.01856e-07
-0.00186431
-2.95257e-07
-0.00162298
-2.82743e-07
-0.0014005
-2.60354e-07
-0.00119895
-2.31034e-07
-0.00101984
-1.91167e-07
-0.000864264
-1.401e-07
-7.08477e-08
-0.00577128
-0.00573272
-0.00566282
-0.00556193
-0.00543091
-0.00527112
-0.00508442
-0.00487312
-0.00463992
-0.00438789
-0.00412038
-0.00384096
-0.00355337
-0.00326142
-0.00296892
-0.00267966
-0.00239726
-0.0021252
-0.00186666
-0.0016246
-0.00140153
-0.00119952
-0.00102009
-0.000864338
)
;

boundaryField
{
    outletCentralUnloaded
    {
        type            calculated;
        value           nonuniform List<scalar> 2(0.000534021 0.000534021);
    }
    inletCentralUnloaded
    {
        type            calculated;
        value           uniform -0.000540134;
    }
    outletFuelElement
    {
        type            calculated;
        value           nonuniform List<scalar> 
12
(
0.00578223
0.00579649
0.00577992
0.0057933
0.00579331
0.00577993
0.00579649
0.00578223
0.0057933
0.00577992
0.00577993
0.00579331
)
;
    }
    inletFuelElement
    {
        type            calculated;
        value           nonuniform List<scalar> 
12
(
-0.000722059
-0.00072206
-0.000722059
-0.000722059
-0.00072206
-0.000722059
-0.00072206
-0.000722059
-0.000722059
-0.000722059
-0.000722059
-0.00072206
)
;
    }
    defaultFaces
    {
        type            calculated;
        value           nonuniform List<scalar> 
450
(
4.70444e-24
-6.03973e-24
0
1.14628e-23
6.72063e-25
0
1.16155e-23
1.25496e-23
0
-1.65604e-23
-9.31868e-24
0
-8.90494e-24
-1.46859e-23
0
-1.06351e-23
-3.70676e-24
0
-6.32105e-24
-3.33845e-24
0
-3.26165e-24
-4.85554e-25
0
3.26291e-25
1.50348e-25
0
4.34329e-24
8.71407e-25
0
7.53381e-24
1.8605e-24
0
9.72146e-24
8.03013e-24
0
1.70886e-23
7.98897e-24
0
1.29854e-23
1.16448e-23
0
1.46264e-23
5.32187e-24
0
1.8183e-23
9.19051e-24
0
1.30746e-23
2.3586e-24
0
1.85398e-23
1.04718e-23
0
1.4166e-23
-1.13692e-23
0
-7.65913e-24
-6.53457e-24
0
-1.14759e-23
-2.25053e-24
0
1.07079e-23
-2.19008e-24
0
-9.45569e-24
7.27443e-25
0
-3.41576e-24
-1.64801e-24
0
3.19251e-25
4.08429e-25
0
8.0227e-24
0
1.2034e-23
0
0
0
8.0227e-24
0
-6.01702e-24
0
6.01702e-24
0
2.00567e-24
0
1.00284e-24
0
5.01419e-25
0
-2.00567e-24
0
-3.00851e-24
0
-4.01135e-24
0
-4.01135e-24
0
-8.0227e-24
0
-8.0227e-24
0
-8.0227e-24
0
1.60454e-23
0
-4.01135e-24
0
4.01135e-24
0
-1.2034e-23
0
-1.2034e-23
0
1.2034e-23
0
0
0
-4.01135e-24
0
-2.00567e-24
0
-4.01135e-24
0
-8.0227e-24
-4.01135e-24
8.0227e-24
-2.00567e-24
0
-1.00284e-24
-1.00284e-24
1.00284e-24
4.01135e-24
8.0227e-24
-4.01135e-24
0
8.0227e-24
8.0227e-24
-8.0227e-24
4.01135e-24
-4.01135e-24
0
4.01135e-24
-8.0227e-24
-8.0227e-24
0
0
0
0
0
0
0
0
0
0
0
0
0
0
0
0
0
0
0
0
0
0
0
0
0
0
0
-8.0227e-24
8.0227e-24
0
1.2034e-23
2.00567e-23
1.60454e-23
-1.2034e-23
-8.0227e-24
8.0227e-24
-6.01702e-24
-4.01135e-24
-2.00567e-24
-2.00567e-24
-3.00851e-24
-1.00284e-24
-5.01419e-25
-1.75497e-24
2.50709e-25
2.00567e-24
3.00851e-24
3.00851e-24
3.00851e-24
4.01135e-24
2.00567e-24
4.01135e-24
8.0227e-24
1.00284e-23
6.01702e-24
8.0227e-24
6.01702e-24
8.0227e-24
2.00567e-24
0
1.40397e-23
4.01135e-24
1.2034e-23
-2.00567e-23
1.60454e-23
-1.60454e-23
-8.0227e-24
4.01135e-24
-8.0227e-24
-1.00284e-23
1.2034e-23
-6.01702e-24
-4.01135e-24
0
-5.01419e-24
-2.00567e-24
-4.32474e-24
3.33328e-24
0
4.01135e-24
4.16101e-24
0
0
6.02761e-24
0
-3.20908e-23
-2.09952e-23
0
4.01135e-24
2.38644e-24
0
0
-1.35648e-23
0
4.01135e-24
-9.80571e-24
0
0
-3.4483e-24
0
1.00284e-24
2.99089e-25
-0
2.50709e-25
6.02061e-24
-0
-2.00567e-24
8.79325e-24
-0
-2.00567e-24
1.40194e-23
-0
-2.00567e-24
1.65555e-23
-0
-8.0227e-24
2.25883e-23
-0
-4.01135e-24
2.08651e-23
-0
0
2.37235e-23
-0
-4.01135e-24
1.59753e-23
-0
-4.01135e-24
2.59419e-23
-0
-4.01135e-24
1.42225e-23
-0
-1.2034e-23
-1.04529e-23
-0
4.01135e-24
-4.83349e-24
-0
4.01135e-24
9.94271e-24
-0
8.0227e-24
-3.11201e-24
-0
4.01135e-24
6.50846e-25
-0
2.00567e-24
8.51659e-25
0
-1.00284e-24
-4.01135e-24
0
0
-4.01135e-24
8.0227e-24
0
-2.00567e-24
-5.01419e-25
5.01419e-25
1.00284e-24
4.01135e-24
4.01135e-24
8.0227e-24
4.01135e-24
8.0227e-24
4.01135e-24
-1.2034e-23
4.01135e-24
-1.60454e-23
4.01135e-24
-4.01135e-24
-1.2034e-23
-8.0227e-24
2.00567e-24
2.00567e-24
8.0227e-24
0
1.60454e-23
0
-4.01135e-24
0
1.2034e-23
0
-4.01135e-24
0
8.0227e-24
0
1.00284e-24
0
1.00284e-24
0
0
-0
-3.00851e-24
-0
-3.00851e-24
-0
-4.01135e-24
-0
-4.01135e-24
-0
-6.01702e-24
-0
-1.60454e-23
-0
-4.01135e-24
-0
1.60454e-23
-0
-1.2034e-23
-0
1.2034e-23
-0
-1.2034e-23
-0
-8.0227e-24
-0
1.00284e-23
-0
2.00567e-24
-0
-6.01702e-24
-0
-2.00567e-24
0
-6.01702e-24
4.01135e-24
-1.2034e-23
1.60454e-23
-4.01135e-24
1.2034e-23
-4.01135e-24
-2.40681e-23
2.00567e-24
4.01135e-24
-4.01135e-24
-1.2034e-23
-3.00851e-24
-8.0227e-24
-5.01419e-25
-2.7578e-24
-2.50709e-25
1.25355e-24
2.00567e-24
5.01419e-24
4.01135e-24
9.02554e-24
8.0227e-24
1.40397e-23
2.00567e-24
1.60454e-23
6.01702e-24
1.80511e-23
4.01135e-24
1.80511e-23
4.01135e-24
2.00567e-23
4.01135e-24
1.60454e-23
8.0227e-24
2.40681e-23
-4.01135e-24
1.60454e-23
0
-8.0227e-24
0
-6.01702e-24
2.00567e-24
1.00284e-23
6.01702e-24
-6.01702e-24
-2.00567e-24
-5.01419e-24
0
-2.69513e-24
-0
-0
-0
-0
-0
-0
-0
-0
0
0
0
0
0
0
0
0
0
0
0
0
0
0
0
0
0
)
;
    }
    baffle_master
    {
        type            calculated;
        value           nonuniform List<scalar> 
150
(
1.36522e-34
0
6.9865e-34
-5.46983e-34
0
0
-4.95393e-38
0
-1.36455e-36
4.6568e-35
0
0
5.41956e-32
0
2.23568e-32
5.54077e-34
0
0
3.78423e-35
0
0
7.06953e-33
0
1.11784e-32
1.40637e-32
0
0
3.95166e-33
0
0
-4.94462e-33
0
0
-4.97797e-33
0
1.11784e-32
-1.81897e-32
0
-2.23568e-32
3.68397e-34
0
-2.7946e-33
-3.03336e-34
0
0
9.08817e-33
0
0
-1.07127e-31
0
-4.47136e-32
1.4535e-33
0
-2.23568e-32
-8.75845e-32
0
-6.70704e-32
5.18137e-33
0
0
1.36048e-33
0
-5.5892e-33
2.60858e-32
0
1.11784e-32
-4.23058e-33
0
0
5.54669e-35
0
-1.3973e-33
4.03617e-33
0
0
6.9865e-34
-2.17168e-33
0
-5.5892e-33
5.7973e-33
-0
0
2.04683e-36
-0
-1.3973e-33
2.43641e-33
-0
-2.23568e-32
-1.84883e-32
-0
1.3973e-33
-1.25743e-33
0
0
2.35522e-33
-0
1.11784e-32
-1.94067e-32
0
-4.47136e-32
-6.77848e-32
0
1.11784e-32
-1.34838e-32
0
1.11784e-32
-2.10885e-32
0
1.11784e-32
-2.53895e-32
0
0
-2.69669e-32
0
2.7946e-33
-4.27992e-33
0
-2.7946e-33
5.67312e-33
-0
0
2.16418e-32
-0
4.47136e-32
2.943e-32
-0
-2.23568e-32
3.76384e-32
-0
2.23568e-32
2.77154e-32
-0
-2.23568e-32
-3.48131e-32
-0
5.5892e-33
-4.47573e-33
-0
2.23568e-32
-3.3469e-32
-0
-2.23568e-32
-2.48574e-32
0
-1.3973e-33
1.10802e-33
0
1.11784e-32
1.5502e-32
0
)
;
    }
    baffle_slave
    {
        type            calculated;
        value           nonuniform List<scalar> 
150
(
-1.25355e-24
-0
4.01135e-24
5.01419e-25
-0
8.0227e-24
1.50426e-24
-0
-8.0227e-24
-1.25355e-24
-0
0
-1.17833e-23
-0
-8.0227e-24
-1.62961e-24
-0
-2.00567e-24
1.25355e-25
-0
0
9.4016e-26
-0
0
0
0
5.01419e-25
-6.26773e-26
0
0
8.46144e-25
0
2.00567e-24
2.50709e-25
0
0
-5.01419e-25
0
4.01135e-24
1.09685e-24
0
0
-4.7008e-26
0
4.01135e-24
-2.95759e-25
0
0
-1.7675e-23
0
-1.60454e-23
1.69229e-24
0
0
-9.52696e-24
0
-4.01135e-24
-8.77483e-25
0
0
1.56693e-24
0
-4.01135e-24
9.05688e-24
0
4.01135e-24
8.93152e-25
0
0
-7.83467e-25
0
-2.00567e-24
3.76064e-25
0
-2.00567e-24
-7.39254e-24
7.77199e-24
0
2.37959e-24
1.15326e-23
0
1.59045e-24
7.27057e-24
0
-6.64889e-24
6.83183e-24
0
4.08978e-24
-1.07805e-23
0
-4.55615e-25
3.38458e-24
0
-3.07909e-24
3.50993e-24
0
-1.39904e-25
1.66095e-24
0
-4.9276e-25
-1.56693e-25
0
1.06567e-24
-1.3789e-24
0
1.13125e-24
-2.36607e-24
0
2.55966e-24
-2.13103e-24
0
-8.07155e-25
-3.02418e-24
0
1.17186e-24
-6.14238e-24
0
1.07849e-24
-6.6438e-24
0
-7.32622e-25
-7.01986e-24
0
-1.28847e-23
-6.54978e-24
0
-1.48633e-24
-6.18939e-24
0
-1.12325e-23
4.1367e-24
0
-1.3585e-24
4.76348e-24
0
5.06812e-24
2.63245e-24
0
-7.55218e-24
7.53695e-24
0
-4.00546e-24
-3.22788e-24
0
1.53258e-24
3.00851e-24
0
6.2314e-25
-2.50709e-24
0
)
;
    }
}


// ************************************************************************* //
