/*--------------------------------*- C++ -*----------------------------------*\
| =========                 |                                                 |
| \\      /  F ield         | OpenFOAM: The Open Source CFD Toolbox           |
|  \\    /   O peration     | Version:  2212                                  |
|   \\  /    A nd           | Website:  www.openfoam.com                      |
|    \\/     M anipulation  |                                                 |
\*---------------------------------------------------------------------------*/
FoamFile
{
    version     2.0;
    format      ascii;
    arch        "LSB;label=32;scalar=64";
    class       surfaceScalarField;
    location    "11/fluidRegion";
    object      alphaRhoPhi;
}
// * * * * * * * * * * * * * * * * * * * * * * * * * * * * * * * * * * * * * //

dimensions      [1 0 -1 0 0 0 0];

oriented        oriented;

internalField   nonuniform List<scalar> 
661
(
-0.00579556
-3.10148e-16
-0.00579556
1.90907e-15
-0.00579556
5.65004e-18
-0.00579556
-3.5946e-15
-0.00579556
9.633e-16
-0.00579556
3.94056e-15
-0.00579556
6.39895e-16
-0.00579556
-6.85252e-15
-0.00579556
-1.60568e-14
-0.00579556
-7.28337e-15
-0.00579556
-2.30045e-15
-0.00579556
-4.25339e-15
-0.00579556
-8.29179e-15
-0.00579556
-1.92921e-15
-0.00579556
6.65252e-15
-0.00579556
6.43398e-15
-0.00579556
2.18358e-15
-0.00579556
8.24635e-15
-0.00579556
1.17947e-14
-0.00579556
8.52714e-15
-0.00579556
3.81091e-15
-0.00579556
-5.92139e-16
-0.00579556
2.54843e-15
-0.00579556
-9.87788e-16
-9.33313e-15
-0.00579556
-0.00579556
-0.00579556
-0.00579556
-0.00579556
-0.00579556
-0.00579556
-0.00579556
-0.00579556
-0.00579556
-0.00579556
-0.00579556
-0.00579556
-0.00579556
-0.00579556
-0.00579556
-0.00579556
-0.00579556
-0.00579556
-0.00579556
-0.00579556
-0.00579556
-0.00579556
-0.00579556
-0.00789551
3.83896e-07
-0.00789589
5.1342e-07
-0.00789628
4.85933e-07
-0.00789662
4.05883e-07
-0.00789692
3.26784e-07
-0.00789717
2.45451e-07
-0.00789737
1.61917e-07
-0.00789752
7.58726e-08
-0.00789762
-1.28241e-08
-0.00789765
-1.04437e-07
-0.00789763
-1.98501e-07
-0.00789753
-2.96124e-07
-0.00789737
-3.96252e-07
-0.00789713
-5.00221e-07
-0.00789681
-6.06354e-07
-0.0078964
-7.16278e-07
-0.00789591
-8.27139e-07
-0.00789531
-9.39851e-07
-0.00789462
-1.04865e-06
-0.00789382
-1.15091e-06
-0.00789293
-1.23363e-06
-0.00789195
-1.2855e-06
-0.00789093
-1.27034e-06
-0.00788992
-1.10426e-06
2.62539e-07
-0.00786877
-6.89416e-08
-7.37612e-08
-0.00786795
-1.54831e-07
-1.60055e-07
-0.00786721
-1.36087e-07
-1.39566e-07
-0.00786662
-1.13041e-07
-1.1578e-07
-0.00786615
-9.01064e-08
-9.18891e-08
-0.00786583
-6.6654e-08
-6.89308e-08
-0.00786565
-4.20453e-08
-4.52537e-08
-0.00786562
-1.67001e-08
-2.16298e-08
-0.00786573
9.71111e-09
3.96588e-09
-0.007866
3.71978e-08
3.00552e-08
-0.00786644
6.60207e-08
5.92716e-08
-0.00786704
9.58565e-08
8.85459e-08
-0.00786781
1.2738e-07
1.21788e-07
-0.00786877
1.59989e-07
1.54675e-07
-0.00786992
1.94574e-07
1.92044e-07
-0.00787126
2.30108e-07
2.28513e-07
-0.00787279
2.67645e-07
2.6948e-07
-0.00787453
3.05266e-07
3.08372e-07
-0.00787646
3.43307e-07
3.49923e-07
-0.00787857
3.78012e-07
3.85714e-07
-0.00788082
4.07089e-07
4.17524e-07
-0.00788313
4.22087e-07
4.33634e-07
-0.00788538
4.09743e-07
4.21757e-07
-0.00788738
3.78066e-07
3.85845e-07
4.18405e-07
4.22228e-07
-0.00790003
3.66448e-07
-0.00790063
5.70666e-07
-0.00790118
5.07823e-07
-0.00790166
4.2018e-07
-0.00790206
3.32707e-07
-0.00790239
2.44129e-07
-0.00790263
1.53392e-07
-0.00790278
6.05243e-08
-0.00790285
-3.57852e-08
-0.00790281
-1.34702e-07
-0.00790268
-2.37732e-07
-0.00790245
-3.43854e-07
-0.0079021
-4.54443e-07
-0.00790163
-5.67903e-07
-0.00790104
-6.85898e-07
-0.00790032
-8.05958e-07
-0.00789945
-9.29429e-07
-0.00789844
-1.05165e-06
-0.00789729
-1.1719e-06
-0.00789599
-1.27938e-06
-0.00789456
-1.36542e-06
-0.00789304
-1.40621e-06
-0.00789151
-1.36966e-06
-0.00789012
-1.17686e-06
-6.87098e-07
-0.00787478
1.82041e-10
-0.00787424
-2.3291e-11
-0.00787377
8.04078e-11
-0.00787339
-4.93995e-11
-0.00787312
-4.30435e-11
-0.00787293
-1.52432e-11
-0.00787285
-1.53844e-11
-0.00787287
3.47601e-11
-0.00787299
9.35353e-11
-0.00787321
1.04208e-10
-0.00787355
1.71198e-10
-0.007874
1.88592e-10
-0.00787457
2.52802e-10
-0.00787526
2.31234e-10
-0.00787608
2.28126e-10
-0.00787703
1.44176e-10
-0.00787811
7.96042e-11
-0.00787931
4.72399e-11
-0.00788065
-7.6693e-11
-0.00788209
-1.31557e-10
-0.00788362
-3.28001e-10
-0.00788518
-4.1907e-10
-0.00788668
-1.09823e-09
-0.00788795
-1.46089e-09
2.25713e-09
-0.00787479
-3.6627e-07
-0.00787425
-5.70609e-07
-0.00787378
-5.07538e-07
-0.0078734
-4.20229e-07
-0.00787313
-3.32865e-07
-0.00787294
-2.44257e-07
-0.00787286
-1.5356e-07
-0.00787288
-6.05497e-08
-0.007873
3.58584e-08
-0.00787322
1.34871e-07
-0.00787356
2.38032e-07
-0.00787401
3.44246e-07
-0.00787458
4.54947e-07
-0.00787527
5.68406e-07
-0.00787609
6.86376e-07
-0.00787704
8.06315e-07
-0.00787811
9.2965e-07
-0.00787932
1.05181e-06
-0.00788066
1.17177e-06
-0.0078821
1.27914e-06
-0.00788363
1.36475e-06
-0.00788519
1.40533e-06
-0.00788669
1.36746e-06
-0.00788796
1.17394e-06
6.91965e-07
-0.00790004
6.68104e-08
-0.00790064
1.52845e-07
-0.00790119
1.34434e-07
-0.00790167
1.11602e-07
-0.00790207
8.93459e-08
-0.00790239
6.53156e-08
-0.00790263
4.06485e-08
-0.00790279
1.4138e-08
-0.00790285
-1.22053e-08
-0.00790282
-4.07979e-08
-0.00790269
-6.89512e-08
-0.00790245
-9.96736e-08
-0.0079021
-1.2976e-07
-0.00790164
-1.63175e-07
-0.00790105
-1.95639e-07
-0.00790032
-2.32054e-07
-0.00789946
-2.66901e-07
-0.00789845
-3.05554e-07
-0.00789729
-3.40619e-07
-0.00789599
-3.7672e-07
-0.00789456
-4.02861e-07
-0.00789304
-4.19436e-07
-0.00789151
-4.04343e-07
-0.00789012
-3.76544e-07
-4.26932e-07
-0.00786877
-3.88667e-07
-7.30479e-08
-0.00786795
-5.17182e-07
-1.59058e-07
-0.00786722
-4.87676e-07
-1.39305e-07
-0.00786662
-4.0706e-07
-1.15386e-07
-0.00786616
-3.2736e-07
-9.16947e-08
-0.00786583
-2.46923e-07
-6.85482e-08
-0.00786565
-1.63996e-07
-4.47242e-08
-0.00786562
-7.95777e-08
-2.07468e-08
-0.00786573
8.98347e-09
4.79476e-09
-0.007866
9.91521e-08
3.12311e-08
-0.00786644
1.94237e-07
6.00432e-08
-0.00786704
2.90767e-07
8.957e-08
-0.00786781
3.9321e-07
1.22079e-07
-0.00786877
4.96226e-07
1.55163e-07
-0.00786992
6.05798e-07
1.91583e-07
-0.00787126
7.14678e-07
2.28224e-07
-0.00787279
8.29861e-07
2.68094e-07
-0.00787453
9.41289e-07
3.07057e-07
-0.00787646
1.0548e-06
3.47464e-07
-0.00787857
1.15528e-06
3.83369e-07
-0.00788082
1.24241e-06
4.14263e-07
-0.00788313
1.29223e-06
4.3042e-07
-0.00788538
1.28038e-06
4.18491e-07
-0.00788738
1.10933e-06
3.82926e-07
-2.65397e-07
4.16673e-07
-0.00789551
-0.00789589
-0.00789628
-0.00789662
-0.00789692
-0.00789717
-0.00789737
-0.00789752
-0.00789762
-0.00789765
-0.00789763
-0.00789753
-0.00789737
-0.00789713
-0.00789681
-0.0078964
-0.00789591
-0.00789531
-0.00789462
-0.00789382
-0.00789293
-0.00789195
-0.00789093
-0.00788992
-0.00787478
-3.66736e-07
9.65058e-10
-0.00787424
-5.70866e-07
-4.20083e-10
-0.00787377
-5.078e-07
8.2403e-11
-0.00787339
-4.20135e-07
-3.85405e-10
-0.00787312
-3.32568e-07
5.2788e-11
-0.00787293
-2.4438e-07
-2.71864e-10
-0.00787285
-1.53582e-07
1.48801e-10
-0.00787287
-6.10608e-08
-2.55311e-10
-0.00787299
3.54737e-08
2.69215e-10
-0.00787321
1.34067e-07
-2.5633e-10
-0.00787355
2.37422e-07
4.77736e-10
-0.007874
3.43228e-07
-2.24398e-10
-0.00787457
4.54313e-07
6.37331e-10
-0.00787526
5.67271e-07
-1.32764e-10
-0.00787608
6.85863e-07
8.81645e-10
-0.00787703
8.05109e-07
1.43497e-10
-0.00787811
9.29298e-07
1.26032e-09
-0.00787931
1.05046e-06
5.39009e-10
-0.00788065
1.1714e-06
1.81432e-09
-0.00788209
1.27747e-06
1.30838e-09
-0.00788362
1.36414e-06
2.46495e-09
-0.00788518
1.40294e-06
2.65099e-09
-0.00788668
1.36658e-06
3.38247e-09
-0.00788795
1.17053e-06
5.38423e-09
6.80046e-07
7.57641e-09
-0.00790003
-0.00790063
-0.00790119
-0.00790166
-0.00790206
-0.00790239
-0.00790263
-0.00790278
-0.00790285
-0.00790281
-0.00790268
-0.00790245
-0.0079021
-0.00790163
-0.00790104
-0.00790032
-0.00789945
-0.00789844
-0.00789729
-0.00789598
-0.00789456
-0.00789304
-0.00789151
-0.00789012
-0.00790004
3.60814e-07
-0.00790064
5.66048e-07
-0.00790119
5.0469e-07
-0.00790167
4.17823e-07
-0.00790207
3.31587e-07
-0.00790239
2.41814e-07
-0.00790263
1.50692e-07
-0.00790279
5.54055e-08
-0.00790285
-4.10388e-08
-0.00790282
-1.42203e-07
-0.00790269
-2.43919e-07
-0.00790245
-3.51876e-07
-0.0079021
-4.59453e-07
-0.00790164
-5.74505e-07
-0.00790105
-6.87895e-07
-0.00790032
-8.09613e-07
-0.00789946
-9.27212e-07
-0.00789845
-1.05155e-06
-0.00789729
-1.16513e-06
-0.00789599
-1.27564e-06
-0.00789456
-1.35519e-06
-0.00789304
-1.39933e-06
-0.00789151
-1.35733e-06
-0.00789012
-1.1725e-06
-7.00419e-07
-0.00787479
-0.00787425
-0.00787378
-0.0078734
-0.00787313
-0.00787294
-0.00787286
-0.00787288
-0.007873
-0.00787322
-0.00787356
-0.00787401
-0.00787458
-0.00787527
-0.00787609
-0.00787704
-0.00787812
-0.00787932
-0.00788066
-0.0078821
-0.00788363
-0.00788519
-0.00788669
-0.00788796
)
;

boundaryField
{
    outletCentralUnloaded
    {
        type            calculated;
        value           nonuniform List<scalar> 2(0.00579556 0.00579556);
    }
    inletCentralUnloaded
    {
        type            calculated;
        value           nonuniform List<scalar> 2(-0.00587345 -0.00587345);
    }
    outletFuelElement
    {
        type            calculated;
        value           nonuniform List<scalar> 
12
(
0.00789525
0.00786927
0.00789972
0.0078751
0.00787511
0.00789973
0.00786927
0.00789525
0.0078751
0.00789972
0.00789973
0.00787511
)
;
    }
    inletFuelElement
    {
        type            calculated;
        value           nonuniform List<scalar> 
12
(
-0.00833076
-0.00833076
-0.00833075
-0.00833075
-0.00833076
-0.00833076
-0.00833076
-0.00833076
-0.00833075
-0.00833075
-0.00833076
-0.00833076
)
;
    }
    defaultFaces
    {
        type            calculated;
        value           nonuniform List<scalar> 
450
(
6.43535e-24
-8.26193e-24
0
1.57447e-23
9.23111e-25
0
1.61077e-23
1.7403e-23
0
-2.33159e-23
-1.31201e-23
0
-1.28027e-23
-2.1114e-23
0
-1.57061e-23
-5.47419e-24
0
-9.64738e-24
-5.09525e-24
0
-5.17689e-24
-7.70673e-25
0
5.42064e-25
2.49771e-25
0
7.6027e-24
1.52535e-24
0
1.39914e-23
3.45522e-24
0
1.92919e-23
1.59355e-23
0
3.65062e-23
1.70667e-23
0
3.00936e-23
2.69868e-23
0
3.70679e-23
1.34873e-23
0
5.08141e-23
2.56838e-23
0
4.06408e-23
7.33143e-24
0
6.4675e-23
3.65304e-23
0
5.5969e-23
-4.49191e-23
0
-3.45907e-23
-2.95118e-23
0
-5.97828e-23
-1.1724e-23
0
6.48948e-23
-1.32729e-23
0
-6.71635e-23
5.16701e-24
0
-2.85923e-23
-1.3795e-23
0
3.15635e-24
4.03804e-24
0
1.09851e-23
0
1.6546e-23
0
0
0
1.13076e-23
0
-8.66023e-24
0
8.89595e-24
0
3.06458e-24
0
1.59351e-24
0
8.33941e-25
0
-3.51476e-24
0
-5.59339e-24
0
-7.96891e-24
0
-8.57826e-24
0
-1.8611e-23
0
-2.03511e-23
0
-2.24398e-23
0
4.99153e-23
0
-1.40034e-23
0
1.58586e-23
0
-5.43776e-23
0
-6.27168e-23
0
7.29542e-23
0
0
0
-3.35812e-23
0
-1.98302e-23
0
-5.46278e-24
0
-1.10713e-23
-5.61937e-24
1.14749e-23
-2.94648e-24
0
-1.58321e-24
-1.65711e-24
1.74611e-24
7.41074e-24
1.58394e-23
-8.52692e-24
0
2.02403e-23
2.23256e-23
-2.48409e-23
1.39445e-23
-1.58003e-23
0
2.0854e-23
-4.85478e-23
-5.69295e-23
0
0
0
0
0
0
0
0
0
0
0
0
0
0
0
0
0
0
0
0
0
0
0
0
0
0
0
-1.09851e-23
1.09851e-23
0
1.6546e-23
2.78426e-23
2.22741e-23
-1.69614e-23
-1.13076e-23
1.1547e-23
-8.66023e-24
-5.93063e-24
-2.96532e-24
-3.06458e-24
-4.59687e-24
-1.59351e-24
-7.96754e-25
-2.91879e-24
4.16971e-25
3.51476e-24
5.27214e-24
5.59339e-24
5.59339e-24
7.96891e-24
3.98446e-24
8.57826e-24
1.71565e-23
2.32638e-23
1.39583e-23
2.03511e-23
1.52633e-23
2.24398e-23
5.60996e-24
0
4.36759e-23
1.40034e-23
4.20103e-23
-7.92929e-23
6.34343e-23
-7.25034e-23
-3.62517e-23
2.09056e-23
-4.18112e-23
-6.07952e-23
7.29542e-23
-4.27473e-23
-2.84982e-23
0
-4.19765e-23
-1.98302e-23
-4.27588e-23
4.55969e-24
0
5.48725e-24
5.71534e-24
0
0
8.35873e-24
0
-4.45016e-23
-2.95598e-23
0
5.64772e-24
3.431e-24
0
0
-2.00326e-23
0
5.92401e-24
-1.49658e-23
0
0
-5.47315e-24
0
1.59171e-24
4.96873e-25
-0
4.165e-25
1.05388e-23
-0
-3.51083e-24
1.63303e-23
-0
-3.72483e-24
2.78211e-23
-0
-3.98019e-24
3.53672e-23
-0
-1.71387e-23
5.23483e-23
-0
-9.29629e-24
5.28786e-23
-0
0
6.62977e-23
-0
-1.12101e-23
4.96575e-23
-0
-1.24688e-23
9.0497e-23
-0
-1.39934e-23
5.61924e-23
-0
-4.75459e-23
-4.72083e-23
-0
1.81163e-23
-2.51798e-23
-0
2.08969e-23
6.02573e-23
-0
4.86212e-23
-2.21045e-23
-0
2.84925e-23
5.44803e-24
-0
1.67889e-23
8.42014e-24
0
-9.91481e-24
-5.46278e-24
0
0
-5.61937e-24
1.14749e-23
0
-3.04487e-24
-7.91603e-25
8.28554e-25
1.74611e-24
7.41074e-24
7.9197e-24
1.70538e-23
9.25209e-24
2.02403e-23
1.11628e-23
-3.72614e-23
1.39445e-23
-6.32011e-23
1.80698e-23
-2.0854e-23
-7.28217e-23
-5.69295e-23
1.67806e-23
1.9827e-23
1.09851e-23
0
2.20614e-23
0
-5.56852e-24
0
1.69614e-23
0
-5.77348e-24
0
1.18613e-23
0
1.53229e-24
0
1.59351e-24
0
0
-0
-5.27214e-24
-0
-5.59339e-24
-0
-7.96891e-24
-0
-8.57826e-24
-0
-1.39583e-23
-0
-4.07022e-23
-0
-1.12199e-23
-0
4.99153e-23
-0
-4.20103e-23
-0
4.75757e-23
-0
-5.43776e-23
-0
-4.18112e-23
-0
6.07952e-23
-0
1.42491e-23
-0
-5.03718e-23
-0
-1.98302e-23
0
-8.23882e-24
5.49255e-24
-1.6546e-23
2.20614e-23
-5.56852e-24
1.67056e-23
-5.65379e-24
-3.39228e-23
2.88674e-24
5.77348e-24
-5.93063e-24
-1.77919e-23
-4.59687e-24
-1.22583e-23
-7.96754e-25
-4.38215e-24
-4.16971e-25
2.08485e-24
3.51476e-24
8.78689e-24
7.45785e-24
1.67802e-23
1.59378e-23
2.78912e-23
4.28913e-24
3.4313e-23
1.39583e-23
4.18748e-23
1.01755e-23
4.579e-23
1.12199e-23
5.60996e-23
1.24788e-23
4.99153e-23
2.80069e-23
8.40206e-23
-1.58586e-23
6.34343e-23
0
-3.62517e-23
0
-3.13584e-23
1.2159e-23
6.07952e-23
4.27473e-23
-4.27473e-23
-1.67906e-23
-4.19765e-23
0
-2.66468e-23
-0
-0
-0
-0
-0
-0
-0
-0
0
0
0
0
0
0
0
0
0
0
0
0
0
0
0
0
0
)
;
    }
    baffle_master
    {
        type            calculated;
        value           nonuniform List<scalar> 
150
(
1.48169e-33
0
7.58254e-33
-5.93695e-33
0
0
-5.37743e-37
0
-1.4812e-35
5.05531e-34
0
0
5.88382e-31
0
2.4272e-31
6.0159e-33
0
0
4.10906e-34
0
0
7.67698e-32
0
1.21389e-31
1.52734e-31
0
0
4.29189e-32
0
0
-5.37078e-32
0
0
-5.40744e-32
0
1.21428e-31
-1.97606e-31
0
-2.42876e-31
4.00244e-33
0
-3.03619e-32
-3.29585e-33
0
0
9.87542e-32
0
0
-1.16416e-30
0
-4.85908e-31
1.57966e-32
0
-2.42973e-31
-9.51943e-31
0
-7.28979e-31
5.63201e-32
0
0
1.47892e-32
0
-6.0758e-32
2.83591e-31
0
1.21526e-31
-4.59964e-32
0
0
6.03103e-34
0
-1.51931e-32
4.38895e-32
0
0
7.58254e-33
-2.35695e-32
0
-6.06652e-32
6.29239e-32
-0
0
2.22181e-35
-0
-1.51688e-32
2.6449e-32
-0
-2.4272e-31
-2.00721e-31
-0
1.51712e-32
-1.36526e-32
0
0
2.55738e-32
-0
1.21389e-31
-2.10742e-31
0
-4.85596e-31
-7.36151e-31
0
1.21409e-31
-1.46448e-31
0
1.21418e-31
-2.2906e-31
0
1.21428e-31
-2.758e-31
0
0
-2.92959e-31
0
3.03619e-32
-4.64991e-32
0
-3.03644e-32
6.16405e-32
-0
0
2.35165e-31
-0
4.85908e-31
3.19819e-31
-0
-2.42973e-31
4.09054e-31
-0
2.42993e-31
3.01235e-31
-0
-2.43012e-31
-3.78409e-31
-0
6.0758e-32
-4.86539e-32
-0
2.43052e-31
-3.63858e-31
-0
-2.43071e-31
-2.70258e-31
0
-1.51931e-32
1.20477e-32
0
1.21554e-31
1.68569e-31
0
)
;
    }
    baffle_slave
    {
        type            calculated;
        value           nonuniform List<scalar> 
150
(
-1.70492e-24
-0
5.46278e-24
6.84574e-25
-0
1.09681e-23
2.07294e-24
-0
-1.10713e-23
-1.75348e-24
-0
0
-1.68284e-23
-0
-1.14749e-23
-2.39034e-24
-0
-2.94648e-24
1.90008e-25
-0
0
1.48193e-25
-0
0
0
0
8.28554e-25
-1.08961e-25
0
0
1.56079e-24
0
3.70537e-24
4.94233e-25
0
0
-1.0643e-24
0
8.52692e-24
2.5263e-24
0
0
-1.18437e-25
0
1.01201e-23
-8.22008e-25
0
0
-5.46646e-23
0
-4.96819e-23
5.87674e-24
0
0
-3.74916e-23
0
-1.58003e-23
-3.94974e-24
0
0
8.14114e-24
0
-2.0854e-23
5.47813e-23
0
2.42739e-23
6.33601e-24
0
0
-6.55396e-24
0
-1.67806e-23
3.71743e-24
0
-1.9827e-23
-1.00674e-23
1.05705e-23
0
3.2532e-24
1.57452e-23
0
2.19482e-24
1.00192e-23
0
-9.31422e-24
9.55649e-24
0
5.84964e-24
-1.53962e-23
0
-6.69331e-25
4.96454e-24
0
-4.67446e-24
5.32023e-24
0
-2.20869e-25
2.61807e-24
0
-8.14246e-25
-2.58516e-25
0
1.85552e-24
-2.39715e-24
0
2.08993e-24
-4.36444e-24
0
5.05359e-24
-4.20098e-24
0
-1.71577e-24
-6.41907e-24
0
2.70286e-24
-1.41473e-23
0
2.7209e-24
-1.67391e-23
0
-2.03875e-24
-1.95104e-23
0
-3.98952e-23
-2.02569e-23
0
-5.1669e-24
-2.14936e-23
0
-4.42437e-23
1.62792e-23
0
-6.11957e-24
2.14415e-23
0
2.63479e-23
1.36771e-23
0
-4.57006e-23
4.55879e-23
0
-2.84229e-23
-2.28986e-23
0
1.28224e-23
2.51672e-23
0
6.16004e-24
-2.47828e-23
0
)
;
    }
}


// ************************************************************************* //
