/*--------------------------------*- C++ -*----------------------------------*\
| =========                 |                                                 |
| \\      /  F ield         | OpenFOAM: The Open Source CFD Toolbox           |
|  \\    /   O peration     | Version:  2212                                  |
|   \\  /    A nd           | Website:  www.openfoam.com                      |
|    \\/     M anipulation  |                                                 |
\*---------------------------------------------------------------------------*/
FoamFile
{
    version     2.0;
    format      ascii;
    arch        "LSB;label=32;scalar=64";
    class       volScalarField;
    location    "11/fluidRegion";
    object      heatFlux.structure;
}
// * * * * * * * * * * * * * * * * * * * * * * * * * * * * * * * * * * * * * //

dimensions      [1 0 -3 0 0 0 0];

internalField   nonuniform List<scalar> 
350
(
-256393
-256396
-256399
-256402
-256405
-256408
-256411
-256414
-256417
-256420
-256423
-256426
-256429
-256433
-256436
-256439
-256442
-256445
-256448
-256451
-256454
-256457
-256460
-256462
-257846
-256393
-256396
-256399
-256402
-256405
-256408
-256411
-256414
-256417
-256420
-256423
-256426
-256429
-256433
-256436
-256439
-256442
-256445
-256448
-256451
-256454
-256457
-256460
-256462
-257846
21011.7
197234
375528
552716
725656
891269
1.04659e+06
1.18882e+06
1.31538e+06
1.42396e+06
1.51258e+06
1.57961e+06
1.62381e+06
1.64443e+06
1.64118e+06
1.6143e+06
1.56462e+06
1.49357e+06
1.40317e+06
1.29613e+06
1.17571e+06
1.04569e+06
910144
773205
640129
14170.2
192206
372362
551429
726235
893666
1.05072e+06
1.19458e+06
1.32262e+06
1.43251e+06
1.52224e+06
1.59014e+06
1.63499e+06
1.65598e+06
1.65283e+06
1.62578e+06
1.57565e+06
1.50388e+06
1.41253e+06
1.30433e+06
1.18258e+06
1.05111e+06
914037
775540
640901
22155.2
198086
376079
552963
725601
890919
1.04596e+06
1.18792e+06
1.31424e+06
1.42261e+06
1.51105e+06
1.57793e+06
1.62203e+06
1.64259e+06
1.63931e+06
1.61247e+06
1.56286e+06
1.49191e+06
1.40166e+06
1.29481e+06
1.1746e+06
1.04481e+06
909509
772819
639999
15700.6
193322
373052
551690
726070
893086
1.04975e+06
1.19323e+06
1.32093e+06
1.43053e+06
1.52e+06
1.58771e+06
1.63241e+06
1.65332e+06
1.65014e+06
1.62313e+06
1.57311e+06
1.50151e+06
1.41038e+06
1.30244e+06
1.181e+06
1.04986e+06
913142
775004
640724
15700.6
193322
373052
551690
726070
893086
1.04975e+06
1.19323e+06
1.32093e+06
1.43053e+06
1.52e+06
1.58771e+06
1.63241e+06
1.65332e+06
1.65014e+06
1.62313e+06
1.57311e+06
1.5015e+06
1.41038e+06
1.30244e+06
1.181e+06
1.04986e+06
913143
775004
640724
22155.1
198085
376079
552963
725601
890919
1.04596e+06
1.18792e+06
1.31424e+06
1.42261e+06
1.51105e+06
1.57793e+06
1.62203e+06
1.64259e+06
1.63931e+06
1.61247e+06
1.56286e+06
1.49191e+06
1.40166e+06
1.29481e+06
1.1746e+06
1.04481e+06
909509
772819
639999
14170.2
192206
372362
551429
726235
893666
1.05072e+06
1.19458e+06
1.32262e+06
1.43251e+06
1.52224e+06
1.59014e+06
1.63499e+06
1.65598e+06
1.65283e+06
1.62578e+06
1.57565e+06
1.50388e+06
1.41253e+06
1.30433e+06
1.18258e+06
1.05111e+06
914037
775540
640901
21011.8
197234
375529
552716
725656
891269
1.04659e+06
1.18882e+06
1.31538e+06
1.42396e+06
1.51258e+06
1.57961e+06
1.62381e+06
1.64443e+06
1.64118e+06
1.6143e+06
1.56462e+06
1.49357e+06
1.40317e+06
1.29613e+06
1.17571e+06
1.04569e+06
910144
773205
640129
15700.6
193322
373052
551690
726070
893086
1.04975e+06
1.19323e+06
1.32093e+06
1.43053e+06
1.52e+06
1.58771e+06
1.63241e+06
1.65332e+06
1.65014e+06
1.62313e+06
1.57311e+06
1.5015e+06
1.41038e+06
1.30244e+06
1.181e+06
1.04986e+06
913143
775004
640724
22155.3
198086
376080
552963
725601
890919
1.04596e+06
1.18792e+06
1.31424e+06
1.42261e+06
1.51105e+06
1.57793e+06
1.62203e+06
1.64259e+06
1.63931e+06
1.61247e+06
1.56286e+06
1.49191e+06
1.40166e+06
1.29481e+06
1.1746e+06
1.04481e+06
909509
772819
639999
22155.1
198085
376079
552963
725601
890919
1.04596e+06
1.18792e+06
1.31424e+06
1.42261e+06
1.51105e+06
1.57793e+06
1.62203e+06
1.64259e+06
1.63931e+06
1.61247e+06
1.56286e+06
1.49191e+06
1.40166e+06
1.29481e+06
1.1746e+06
1.04481e+06
909509
772819
639999
15700.6
193322
373052
551690
726070
893086
1.04975e+06
1.19323e+06
1.32093e+06
1.43053e+06
1.52e+06
1.58771e+06
1.63241e+06
1.65332e+06
1.65014e+06
1.62313e+06
1.57311e+06
1.5015e+06
1.41038e+06
1.30244e+06
1.181e+06
1.04986e+06
913143
775004
640724
)
;

boundaryField
{
    outletCentralUnloaded
    {
        type            zeroGradient;
    }
    inletCentralUnloaded
    {
        type            zeroGradient;
    }
    outletFuelElement
    {
        type            zeroGradient;
    }
    inletFuelElement
    {
        type            zeroGradient;
    }
    defaultFaces
    {
        type            zeroGradient;
    }
    baffle_master
    {
        type            zeroGradient;
    }
    baffle_slave
    {
        type            zeroGradient;
    }
}


// ************************************************************************* //
