/*--------------------------------*- C++ -*----------------------------------*\
| =========                 |                                                 |
| \\      /  F ield         | OpenFOAM: The Open Source CFD Toolbox           |
|  \\    /   O peration     | Version:  2212                                  |
|   \\  /    A nd           | Website:  www.openfoam.com                      |
|    \\/     M anipulation  |                                                 |
\*---------------------------------------------------------------------------*/
FoamFile
{
    version     2.0;
    format      ascii;
    arch        "LSB;label=32;scalar=64";
    class       volScalarField;
    location    "11/fluidRegion";
    object      nut;
}
// * * * * * * * * * * * * * * * * * * * * * * * * * * * * * * * * * * * * * //

dimensions      [0 2 -1 0 0 0 0];

internalField   nonuniform List<scalar> 
350
(
0.000532906
0.000532863
0.00053282
0.000532777
0.000532735
0.000532693
0.000532651
0.00053261
0.000532571
0.000532532
0.000532497
0.000532464
0.000532438
0.00053242
0.000532415
0.00053243
0.000532475
0.000532567
0.000532729
0.000533
0.000533437
0.000534128
0.000535206
0.000536878
0.00054145
0.000532906
0.000532863
0.00053282
0.000532777
0.000532735
0.000532693
0.000532651
0.00053261
0.000532571
0.000532532
0.000532497
0.000532464
0.000532438
0.00053242
0.000532415
0.00053243
0.000532475
0.000532567
0.000532729
0.000533
0.000533437
0.000534128
0.000535206
0.000536878
0.00054145
0.00297729
0.00295569
0.00292126
0.00287099
0.00280527
0.00272479
0.00263048
0.00252349
0.0024052
0.00227714
0.00214102
0.00199865
0.00185192
0.00170278
0.0015532
0.0014051
0.00126039
0.00112091
0.000988397
0.000864535
0.000750904
0.000648959
0.000559922
0.000484619
0.000421488
0.00298476
0.00296334
0.0029291
0.00287889
0.00281315
0.00273255
0.00263802
0.00253073
0.00241206
0.00228355
0.00214692
0.002004
0.00185668
0.00170694
0.00155675
0.00140806
0.00126278
0.00112277
0.000989787
0.000865513
0.000751543
0.000649337
0.000560121
0.000484717
0.000421552
0.00297605
0.00295443
0.00291998
0.00286969
0.00280398
0.00272352
0.00262925
0.00252231
0.00240408
0.0022761
0.00214006
0.00199777
0.00185114
0.0017021
0.00155261
0.00140461
0.00125999
0.00112059
0.000988156
0.00086436
0.000750785
0.000648885
0.000559886
0.000484612
0.000421506
0.00298311
0.00296165
0.00292736
0.00287713
0.00281139
0.00273081
0.00263633
0.00252911
0.00241051
0.00228211
0.00214559
0.00200279
0.0018556
0.001706
0.00155594
0.00140739
0.00126224
0.00112235
0.000989471
0.000865291
0.000751399
0.000649252
0.000560076
0.000484693
0.000421535
0.00298311
0.00296165
0.00292736
0.00287713
0.00281139
0.00273081
0.00263633
0.00252911
0.00241051
0.00228211
0.00214559
0.00200279
0.0018556
0.001706
0.00155594
0.00140739
0.00126224
0.00112235
0.000989471
0.000865291
0.000751399
0.000649252
0.000560076
0.000484693
0.000421535
0.00297605
0.00295443
0.00291998
0.00286969
0.00280398
0.00272352
0.00262925
0.00252231
0.00240408
0.0022761
0.00214006
0.00199777
0.00185114
0.0017021
0.00155261
0.00140461
0.00125999
0.00112059
0.000988156
0.000864359
0.000750785
0.000648885
0.000559885
0.000484612
0.000421506
0.00298476
0.00296334
0.0029291
0.00287889
0.00281315
0.00273255
0.00263802
0.00253073
0.00241206
0.00228355
0.00214692
0.002004
0.00185668
0.00170694
0.00155675
0.00140806
0.00126278
0.00112277
0.000989787
0.000865513
0.000751543
0.000649337
0.000560121
0.000484717
0.000421552
0.00297728
0.00295569
0.00292126
0.00287099
0.00280527
0.00272479
0.00263048
0.00252349
0.0024052
0.00227714
0.00214102
0.00199865
0.00185192
0.00170278
0.0015532
0.0014051
0.00126039
0.00112091
0.000988398
0.000864535
0.000750904
0.000648959
0.000559922
0.000484619
0.000421488
0.00298311
0.00296165
0.00292736
0.00287713
0.00281139
0.00273081
0.00263633
0.00252911
0.00241051
0.00228211
0.00214559
0.00200279
0.0018556
0.001706
0.00155594
0.00140739
0.00126224
0.00112235
0.000989471
0.000865291
0.000751399
0.000649252
0.000560076
0.000484694
0.000421535
0.00297605
0.00295443
0.00291998
0.00286969
0.00280398
0.00272352
0.00262925
0.00252231
0.00240408
0.0022761
0.00214006
0.00199777
0.00185114
0.0017021
0.00155261
0.00140461
0.00125999
0.00112059
0.000988156
0.00086436
0.000750785
0.000648885
0.000559886
0.000484612
0.000421506
0.00297605
0.00295443
0.00291998
0.00286969
0.00280398
0.00272352
0.00262925
0.00252231
0.00240408
0.0022761
0.00214006
0.00199777
0.00185114
0.0017021
0.00155261
0.00140461
0.00125999
0.00112059
0.000988156
0.00086436
0.000750785
0.000648885
0.000559886
0.000484612
0.000421506
0.00298311
0.00296165
0.00292736
0.00287713
0.00281139
0.00273081
0.00263633
0.00252911
0.00241051
0.00228211
0.00214559
0.00200279
0.0018556
0.001706
0.00155594
0.00140739
0.00126224
0.00112235
0.000989472
0.000865292
0.000751399
0.000649252
0.000560076
0.000484694
0.000421535
)
;

boundaryField
{
    outletCentralUnloaded
    {
        type            zeroGradient;
    }
    inletCentralUnloaded
    {
        type            zeroGradient;
    }
    outletFuelElement
    {
        type            zeroGradient;
    }
    inletFuelElement
    {
        type            zeroGradient;
    }
    defaultFaces
    {
        type            zeroGradient;
    }
    baffle_master
    {
        type            calculated;
        value           nonuniform List<scalar> 
150
(
0.000532906
0.000532906
0.000532906
0.000532863
0.000532863
0.000532863
0.00053282
0.00053282
0.00053282
0.000532777
0.000532777
0.000532777
0.000532735
0.000532735
0.000532735
0.000532693
0.000532693
0.000532693
0.000532651
0.000532651
0.000532651
0.00053261
0.00053261
0.00053261
0.000532571
0.000532571
0.000532571
0.000532532
0.000532532
0.000532532
0.000532497
0.000532497
0.000532497
0.000532464
0.000532464
0.000532464
0.000532438
0.000532438
0.000532438
0.00053242
0.00053242
0.00053242
0.000532415
0.000532415
0.000532415
0.00053243
0.00053243
0.00053243
0.000532475
0.000532475
0.000532475
0.000532567
0.000532567
0.000532567
0.000532729
0.000532729
0.000532729
0.000533
0.000533
0.000533
0.000533437
0.000533437
0.000533437
0.000534128
0.000534128
0.000534128
0.000535206
0.000535206
0.000535206
0.000536878
0.000536878
0.000536878
0.00054145
0.00054145
0.00054145
0.000532906
0.000532906
0.000532906
0.000532863
0.000532863
0.000532863
0.00053282
0.00053282
0.00053282
0.000532777
0.000532777
0.000532777
0.000532735
0.000532735
0.000532735
0.000532693
0.000532693
0.000532693
0.000532651
0.000532651
0.000532651
0.00053261
0.00053261
0.00053261
0.000532571
0.000532571
0.000532571
0.000532532
0.000532532
0.000532532
0.000532497
0.000532497
0.000532497
0.000532464
0.000532464
0.000532464
0.000532438
0.000532438
0.000532438
0.00053242
0.00053242
0.00053242
0.000532415
0.000532415
0.000532415
0.00053243
0.00053243
0.00053243
0.000532475
0.000532475
0.000532475
0.000532567
0.000532567
0.000532567
0.000532729
0.000532729
0.000532729
0.000533
0.000533
0.000533
0.000533437
0.000533437
0.000533437
0.000534128
0.000534128
0.000534128
0.000535206
0.000535206
0.000535206
0.000536878
0.000536878
0.000536878
0.00054145
0.00054145
0.00054145
)
;
    }
    baffle_slave
    {
        type            calculated;
        value           nonuniform List<scalar> 
150
(
0.00298476
0.00298311
0.00298311
0.00296334
0.00296165
0.00296165
0.0029291
0.00292736
0.00292736
0.00287889
0.00287713
0.00287713
0.00281315
0.00281139
0.00281139
0.00273255
0.00273081
0.00273081
0.00263802
0.00263633
0.00263633
0.00253073
0.00252911
0.00252911
0.00241206
0.00241051
0.00241051
0.00228355
0.00228211
0.00228211
0.00214692
0.00214559
0.00214559
0.002004
0.00200279
0.00200279
0.00185668
0.0018556
0.0018556
0.00170694
0.001706
0.001706
0.00155675
0.00155594
0.00155594
0.00140806
0.00140739
0.00140739
0.00126278
0.00126224
0.00126224
0.00112277
0.00112235
0.00112235
0.000989787
0.000989471
0.000989472
0.000865513
0.000865291
0.000865292
0.000751543
0.000751399
0.000751399
0.000649337
0.000649252
0.000649252
0.000560121
0.000560076
0.000560076
0.000484717
0.000484693
0.000484694
0.000421552
0.000421535
0.000421535
0.00298311
0.00298476
0.00298311
0.00296165
0.00296334
0.00296165
0.00292736
0.0029291
0.00292736
0.00287713
0.00287889
0.00287713
0.00281139
0.00281315
0.00281139
0.00273081
0.00273255
0.00273081
0.00263633
0.00263802
0.00263633
0.00252911
0.00253073
0.00252911
0.00241051
0.00241206
0.00241051
0.00228211
0.00228355
0.00228211
0.00214559
0.00214692
0.00214559
0.00200279
0.002004
0.00200279
0.0018556
0.00185668
0.0018556
0.001706
0.00170694
0.001706
0.00155594
0.00155675
0.00155594
0.00140739
0.00140806
0.00140739
0.00126224
0.00126278
0.00126224
0.00112235
0.00112277
0.00112235
0.000989471
0.000989787
0.000989471
0.000865291
0.000865513
0.000865291
0.000751399
0.000751543
0.000751399
0.000649252
0.000649337
0.000649252
0.000560076
0.000560121
0.000560076
0.000484693
0.000484717
0.000484694
0.000421535
0.000421552
0.000421535
)
;
    }
}


// ************************************************************************* //
