/*--------------------------------*- C++ -*----------------------------------*\
| =========                 |                                                 |
| \\      /  F ield         | OpenFOAM: The Open Source CFD Toolbox           |
|  \\    /   O peration     | Version:  2212                                  |
|   \\  /    A nd           | Website:  www.openfoam.com                      |
|    \\/     M anipulation  |                                                 |
\*---------------------------------------------------------------------------*/
FoamFile
{
    version     2.0;
    format      ascii;
    arch        "LSB;label=32;scalar=64";
    class       volScalarField;
    location    "11/fluidRegion";
    object      p;
}
// * * * * * * * * * * * * * * * * * * * * * * * * * * * * * * * * * * * * * //

dimensions      [1 -1 -2 0 0 0 0];

internalField   nonuniform List<scalar> 
350
(
3.44743e+06
3.44772e+06
3.44801e+06
3.4483e+06
3.44859e+06
3.44888e+06
3.44917e+06
3.44946e+06
3.44975e+06
3.45005e+06
3.45034e+06
3.45063e+06
3.45092e+06
3.45121e+06
3.4515e+06
3.45179e+06
3.45209e+06
3.45238e+06
3.45267e+06
3.45296e+06
3.45325e+06
3.45355e+06
3.45384e+06
3.45412e+06
3.45439e+06
3.44743e+06
3.44772e+06
3.44801e+06
3.4483e+06
3.44859e+06
3.44888e+06
3.44917e+06
3.44946e+06
3.44975e+06
3.45005e+06
3.45034e+06
3.45063e+06
3.45092e+06
3.45121e+06
3.4515e+06
3.45179e+06
3.45209e+06
3.45238e+06
3.45267e+06
3.45296e+06
3.45325e+06
3.45355e+06
3.45384e+06
3.45412e+06
3.45439e+06
3.45363e+06
3.46629e+06
3.47897e+06
3.4916e+06
3.50411e+06
3.51644e+06
3.52851e+06
3.54025e+06
3.55161e+06
3.56253e+06
3.57295e+06
3.58282e+06
3.59212e+06
3.6008e+06
3.60886e+06
3.61626e+06
3.62301e+06
3.62912e+06
3.63459e+06
3.63944e+06
3.6437e+06
3.6474e+06
3.6506e+06
3.65333e+06
3.65559e+06
3.45363e+06
3.46629e+06
3.47897e+06
3.4916e+06
3.50411e+06
3.51644e+06
3.52851e+06
3.54025e+06
3.55161e+06
3.56253e+06
3.57295e+06
3.58282e+06
3.59212e+06
3.6008e+06
3.60886e+06
3.61626e+06
3.62301e+06
3.62912e+06
3.63459e+06
3.63944e+06
3.6437e+06
3.6474e+06
3.6506e+06
3.65333e+06
3.65559e+06
3.45363e+06
3.46629e+06
3.47897e+06
3.4916e+06
3.50411e+06
3.51644e+06
3.52851e+06
3.54025e+06
3.55161e+06
3.56253e+06
3.57295e+06
3.58282e+06
3.59212e+06
3.6008e+06
3.60886e+06
3.61626e+06
3.62301e+06
3.62912e+06
3.63459e+06
3.63944e+06
3.6437e+06
3.6474e+06
3.6506e+06
3.65333e+06
3.65559e+06
3.45363e+06
3.46629e+06
3.47897e+06
3.4916e+06
3.50411e+06
3.51644e+06
3.52851e+06
3.54025e+06
3.55161e+06
3.56253e+06
3.57295e+06
3.58282e+06
3.59212e+06
3.6008e+06
3.60886e+06
3.61626e+06
3.62301e+06
3.62912e+06
3.63459e+06
3.63944e+06
3.6437e+06
3.6474e+06
3.6506e+06
3.65333e+06
3.65559e+06
3.45363e+06
3.46629e+06
3.47897e+06
3.4916e+06
3.50411e+06
3.51644e+06
3.52851e+06
3.54025e+06
3.55161e+06
3.56253e+06
3.57295e+06
3.58282e+06
3.59212e+06
3.6008e+06
3.60886e+06
3.61626e+06
3.62301e+06
3.62912e+06
3.63459e+06
3.63944e+06
3.6437e+06
3.6474e+06
3.6506e+06
3.65333e+06
3.65559e+06
3.45363e+06
3.46629e+06
3.47897e+06
3.4916e+06
3.50411e+06
3.51644e+06
3.52851e+06
3.54025e+06
3.55161e+06
3.56253e+06
3.57295e+06
3.58282e+06
3.59212e+06
3.6008e+06
3.60886e+06
3.61626e+06
3.62301e+06
3.62912e+06
3.63459e+06
3.63944e+06
3.6437e+06
3.6474e+06
3.6506e+06
3.65333e+06
3.65559e+06
3.45363e+06
3.46629e+06
3.47897e+06
3.4916e+06
3.50411e+06
3.51644e+06
3.52851e+06
3.54025e+06
3.55161e+06
3.56253e+06
3.57295e+06
3.58282e+06
3.59212e+06
3.6008e+06
3.60886e+06
3.61626e+06
3.62301e+06
3.62912e+06
3.63459e+06
3.63944e+06
3.6437e+06
3.6474e+06
3.6506e+06
3.65333e+06
3.65559e+06
3.45363e+06
3.46629e+06
3.47897e+06
3.4916e+06
3.50411e+06
3.51644e+06
3.52851e+06
3.54025e+06
3.55161e+06
3.56253e+06
3.57295e+06
3.58282e+06
3.59212e+06
3.6008e+06
3.60886e+06
3.61626e+06
3.62301e+06
3.62912e+06
3.63459e+06
3.63944e+06
3.6437e+06
3.6474e+06
3.6506e+06
3.65333e+06
3.65559e+06
3.45363e+06
3.46629e+06
3.47897e+06
3.4916e+06
3.50411e+06
3.51644e+06
3.52851e+06
3.54025e+06
3.55161e+06
3.56253e+06
3.57295e+06
3.58282e+06
3.59212e+06
3.6008e+06
3.60886e+06
3.61626e+06
3.62301e+06
3.62912e+06
3.63459e+06
3.63944e+06
3.6437e+06
3.6474e+06
3.6506e+06
3.65333e+06
3.65559e+06
3.45363e+06
3.46629e+06
3.47897e+06
3.4916e+06
3.50411e+06
3.51644e+06
3.52851e+06
3.54025e+06
3.55161e+06
3.56253e+06
3.57295e+06
3.58282e+06
3.59212e+06
3.6008e+06
3.60886e+06
3.61626e+06
3.62301e+06
3.62912e+06
3.63459e+06
3.63944e+06
3.6437e+06
3.6474e+06
3.6506e+06
3.65333e+06
3.65559e+06
3.45363e+06
3.46629e+06
3.47897e+06
3.4916e+06
3.50411e+06
3.51644e+06
3.52851e+06
3.54025e+06
3.55161e+06
3.56253e+06
3.57295e+06
3.58282e+06
3.59212e+06
3.6008e+06
3.60886e+06
3.61626e+06
3.62301e+06
3.62912e+06
3.63459e+06
3.63944e+06
3.6437e+06
3.6474e+06
3.6506e+06
3.65333e+06
3.65559e+06
3.45363e+06
3.46629e+06
3.47897e+06
3.4916e+06
3.50411e+06
3.51644e+06
3.52851e+06
3.54025e+06
3.55161e+06
3.56253e+06
3.57295e+06
3.58282e+06
3.59212e+06
3.6008e+06
3.60886e+06
3.61626e+06
3.62301e+06
3.62912e+06
3.63459e+06
3.63944e+06
3.6437e+06
3.6474e+06
3.6506e+06
3.65333e+06
3.65559e+06
)
;

boundaryField
{
    outletCentralUnloaded
    {
        type            fixedValue;
        value           uniform 3.44728e+06;
    }
    inletCentralUnloaded
    {
        type            zeroGradient;
    }
    outletFuelElement
    {
        type            fixedValue;
        value           uniform 3.44728e+06;
    }
    inletFuelElement
    {
        type            zeroGradient;
    }
    defaultFaces
    {
        type            zeroGradient;
    }
    baffle_master
    {
        type            zeroGradient;
    }
    baffle_slave
    {
        type            zeroGradient;
    }
}


// ************************************************************************* //
