/*--------------------------------*- C++ -*----------------------------------*\
| =========                 |                                                 |
| \\      /  F ield         | OpenFOAM: The Open Source CFD Toolbox           |
|  \\    /   O peration     | Version:  2212                                  |
|   \\  /    A nd           | Website:  www.openfoam.com                      |
|    \\/     M anipulation  |                                                 |
\*---------------------------------------------------------------------------*/
FoamFile
{
    version     2.0;
    format      ascii;
    arch        "LSB;label=32;scalar=64";
    class       volScalarField;
    location    "11/fluidRegion";
    object      Re;
}
// * * * * * * * * * * * * * * * * * * * * * * * * * * * * * * * * * * * * * //

dimensions      [0 0 0 0 0 0 0];

internalField   nonuniform List<scalar> 
350
(
172423
172423
172423
172423
172423
172423
172423
172423
172423
172423
172423
172423
172423
172423
172423
172423
172423
172423
172423
172423
172423
172423
172423
172423
173585
172423
172423
172423
172423
172423
172423
172423
172423
172423
172423
172423
172423
172423
172423
172423
172423
172423
172423
172423
172423
172423
172423
172423
172423
173585
46602.9
46546.3
46546.8
46547.2
46547.3
46547
46546.3
46545.1
46543.3
46541.1
46538.2
46534.7
46530.6
46525.8
46520.5
46514.8
46508.9
46503.3
46498.6
46496.2
46497.5
46505.1
46521.5
46552.9
46292.6
46450.5
46384.6
46378.3
46372.7
46367.7
46363.5
46359.9
46357
46354.8
46353.2
46352.4
46352.3
46352.9
46354.4
46356.8
46360.5
46365.6
46372.8
46382.7
46396.7
46415.9
46442.8
46479.1
46530.1
46286.4
46628.9
46573.7
46575.3
46576.6
46577.4
46577.6
46577.2
46576.2
46574.4
46571.8
46568.5
46564.2
46559.2
46553.2
46546.4
46538.9
46531
46523.1
46515.9
46510.7
46508.9
46513.3
46526.4
46555.1
46293
46484.8
46421
46416.3
46412.1
46408.4
46405.1
46402.2
46399.8
46397.7
46396.1
46394.8
46394
46393.6
46393.7
46394.4
46395.9
46398.6
46402.9
46409.4
46419.7
46434.9
46457.3
46489
46535.4
46287.8
46484.8
46421
46416.3
46412.1
46408.4
46405.1
46402.2
46399.8
46397.7
46396.1
46394.8
46394
46393.6
46393.7
46394.4
46395.9
46398.6
46402.9
46409.4
46419.7
46434.9
46457.3
46489
46535.4
46287.8
46628.9
46573.7
46575.3
46576.6
46577.4
46577.6
46577.2
46576.2
46574.4
46571.8
46568.5
46564.3
46559.2
46553.2
46546.4
46538.9
46531
46523.1
46515.8
46510.7
46508.9
46513.3
46526.4
46555
46293
46450.5
46384.6
46378.3
46372.7
46367.7
46363.5
46359.9
46357
46354.8
46353.2
46352.4
46352.3
46352.9
46354.4
46356.8
46360.5
46365.6
46372.8
46382.7
46396.7
46415.9
46442.8
46479.1
46530.1
46286.4
46602.9
46546.3
46546.8
46547.2
46547.3
46547
46546.3
46545.1
46543.4
46541.1
46538.2
46534.7
46530.6
46525.8
46520.5
46514.8
46508.9
46503.3
46498.6
46496.2
46497.5
46505.1
46521.5
46552.9
46292.6
46484.8
46421
46416.3
46412.1
46408.4
46405.1
46402.2
46399.8
46397.7
46396.1
46394.8
46394
46393.6
46393.7
46394.4
46395.9
46398.6
46402.9
46409.4
46419.7
46434.9
46457.3
46489
46535.4
46287.8
46628.9
46573.7
46575.3
46576.6
46577.4
46577.6
46577.2
46576.2
46574.4
46571.8
46568.5
46564.2
46559.2
46553.2
46546.4
46538.9
46531
46523.1
46515.9
46510.7
46508.9
46513.3
46526.4
46555.1
46293
46628.9
46573.7
46575.3
46576.6
46577.4
46577.6
46577.2
46576.2
46574.4
46571.8
46568.5
46564.3
46559.2
46553.2
46546.4
46538.9
46531
46523.1
46515.8
46510.7
46508.9
46513.3
46526.4
46555
46293
46484.8
46421
46416.3
46412.1
46408.4
46405.1
46402.2
46399.8
46397.7
46396.1
46394.8
46394
46393.6
46393.7
46394.4
46395.9
46398.6
46402.9
46409.4
46419.7
46434.9
46457.3
46489
46535.4
46287.8
)
;

boundaryField
{
    outletCentralUnloaded
    {
        type            zeroGradient;
    }
    inletCentralUnloaded
    {
        type            zeroGradient;
    }
    outletFuelElement
    {
        type            zeroGradient;
    }
    inletFuelElement
    {
        type            zeroGradient;
    }
    defaultFaces
    {
        type            zeroGradient;
    }
    baffle_master
    {
        type            zeroGradient;
    }
    baffle_slave
    {
        type            zeroGradient;
    }
}


// ************************************************************************* //
