/*--------------------------------*- C++ -*----------------------------------*\
| =========                 |                                                 |
| \\      /  F ield         | OpenFOAM: The Open Source CFD Toolbox           |
|  \\    /   O peration     | Version:  2212                                  |
|   \\  /    A nd           | Website:  www.openfoam.com                      |
|    \\/     M anipulation  |                                                 |
\*---------------------------------------------------------------------------*/
FoamFile
{
    version     2.0;
    format      ascii;
    arch        "LSB;label=32;scalar=64";
    class       volScalarField;
    location    "11/fluidRegion";
    object      Tci.nuclearFuelPin;
}
// * * * * * * * * * * * * * * * * * * * * * * * * * * * * * * * * * * * * * //

dimensions      [0 0 0 1 0 0 0];

internalField   nonuniform List<scalar> 
350
(
0
0
0
0
0
0
0
0
0
0
0
0
0
0
0
0
0
0
0
0
0
0
0
0
0
0
0
0
0
0
0
0
0
0
0
0
0
0
0
0
0
0
0
0
0
0
0
0
0
0
611.061
630.551
647.023
660.236
670.015
676.244
678.869
677.895
673.38
665.432
654.205
639.884
622.685
602.837
580.573
556.116
529.668
501.395
471.422
439.829
406.655
371.921
335.675
298.05
260.539
613.866
633.72
650.514
664.006
674.014
680.422
683.174
682.275
677.783
669.809
658.508
644.072
626.718
606.68
584.196
559.493
532.776
504.215
473.936
442.017
408.496
373.394
336.754
298.71
260.762
610.593
630.026
646.447
659.618
669.362
675.564
678.171
677.186
672.669
664.728
653.513
639.213
622.04
602.224
579.996
555.579
529.174
500.948
471.025
439.484
406.365
371.69
335.506
297.946
260.503
613.235
633.004
649.724
663.15
673.105
679.47
682.192
681.274
676.776
668.807
657.522
643.111
625.792
605.797
583.363
558.716
532.061
503.566
473.357
441.513
408.072
373.055
336.506
298.559
260.711
613.235
633.004
649.724
663.15
673.105
679.47
682.192
681.274
676.776
668.807
657.522
643.111
625.792
605.797
583.363
558.716
532.061
503.566
473.357
441.513
408.072
373.055
336.506
298.559
260.711
610.593
630.026
646.447
659.618
669.361
675.564
678.171
677.186
672.669
664.728
653.513
639.213
622.04
602.224
579.996
555.579
529.174
500.948
471.025
439.484
406.365
371.69
335.506
297.946
260.503
613.866
633.719
650.514
664.006
674.014
680.422
683.174
682.275
677.783
669.809
658.508
644.072
626.718
606.68
584.196
559.493
532.776
504.215
473.936
442.017
408.496
373.394
336.755
298.71
260.762
611.061
630.551
647.023
660.236
670.015
676.244
678.869
677.895
673.38
665.432
654.205
639.884
622.685
602.837
580.573
556.116
529.668
501.395
471.422
439.829
406.655
371.921
335.675
298.05
260.539
613.235
633.004
649.724
663.15
673.105
679.47
682.192
681.274
676.776
668.807
657.522
643.111
625.792
605.797
583.363
558.716
532.061
503.566
473.357
441.513
408.072
373.055
336.506
298.559
260.711
610.593
630.026
646.447
659.618
669.362
675.564
678.171
677.186
672.669
664.728
653.513
639.213
622.04
602.224
579.996
555.579
529.174
500.948
471.025
439.484
406.365
371.69
335.506
297.946
260.503
610.593
630.026
646.447
659.618
669.361
675.564
678.171
677.186
672.669
664.728
653.513
639.213
622.04
602.224
579.996
555.579
529.174
500.948
471.025
439.484
406.365
371.69
335.506
297.946
260.503
613.235
633.004
649.724
663.15
673.105
679.47
682.192
681.274
676.776
668.807
657.522
643.111
625.792
605.797
583.363
558.716
532.061
503.566
473.357
441.513
408.072
373.055
336.506
298.559
260.711
)
;

boundaryField
{
    outletCentralUnloaded
    {
        type            zeroGradient;
    }
    inletCentralUnloaded
    {
        type            zeroGradient;
    }
    outletFuelElement
    {
        type            zeroGradient;
    }
    inletFuelElement
    {
        type            zeroGradient;
    }
    defaultFaces
    {
        type            zeroGradient;
    }
    baffle_master
    {
        type            zeroGradient;
    }
    baffle_slave
    {
        type            zeroGradient;
    }
}


// ************************************************************************* //
