/*--------------------------------*- C++ -*----------------------------------*\
| =========                 |                                                 |
| \\      /  F ield         | OpenFOAM: The Open Source CFD Toolbox           |
|  \\    /   O peration     | Version:  2212                                  |
|   \\  /    A nd           | Website:  www.openfoam.com                      |
|    \\/     M anipulation  |                                                 |
\*---------------------------------------------------------------------------*/
FoamFile
{
    version     2.0;
    format      ascii;
    arch        "LSB;label=32;scalar=64";
    class       volScalarField;
    location    "11/fluidRegion";
    object      Tco.nuclearFuelPin;
}
// * * * * * * * * * * * * * * * * * * * * * * * * * * * * * * * * * * * * * //

dimensions      [0 0 0 1 0 0 0];

internalField   nonuniform List<scalar> 
350
(
0
0
0
0
0
0
0
0
0
0
0
0
0
0
0
0
0
0
0
0
0
0
0
0
0
0
0
0
0
0
0
0
0
0
0
0
0
0
0
0
0
0
0
0
0
0
0
0
0
0
608.872
623.561
635.209
643.66
648.82
650.653
649.181
644.48
636.674
625.93
612.449
596.459
578.204
557.93
535.876
512.258
487.253
460.994
433.553
404.942
375.121
344.019
311.583
277.845
244.174
611.816
626.818
638.739
647.417
652.757
654.72
653.33
648.661
640.841
630.038
616.457
600.33
581.906
561.435
539.161
515.304
490.046
463.52
435.799
406.896
376.766
345.336
312.551
278.438
244.375
608.381
623.021
634.627
643.043
648.176
649.99
648.507
643.802
636.001
625.268
611.805
595.838
577.612
557.371
535.353
511.773
486.81
460.594
433.198
404.634
374.862
343.812
311.432
277.752
244.142
611.154
626.083
637.94
646.565
651.862
653.794
652.384
647.707
639.889
629.098
615.539
599.443
581.056
560.63
538.406
514.603
489.404
462.939
435.282
406.446
376.387
345.033
312.328
278.302
244.329
611.154
626.083
637.94
646.565
651.862
653.794
652.384
647.707
639.889
629.098
615.539
599.443
581.056
560.63
538.406
514.603
489.404
462.939
435.282
406.446
376.387
345.033
312.328
278.302
244.329
608.381
623.02
634.627
643.043
648.176
649.99
648.507
643.802
636.001
625.268
611.805
595.838
577.612
557.371
535.353
511.773
486.81
460.594
433.198
404.634
374.862
343.812
311.432
277.752
244.142
611.816
626.818
638.739
647.417
652.757
654.72
653.33
648.661
640.841
630.038
616.457
600.33
581.905
561.435
539.161
515.304
490.046
463.52
435.799
406.896
376.766
345.336
312.551
278.438
244.375
608.872
623.561
635.209
643.66
648.82
650.653
649.181
644.48
636.674
625.93
612.449
596.459
578.204
557.93
535.876
512.258
487.253
460.994
433.553
404.942
375.121
344.019
311.583
277.845
244.174
611.154
626.083
637.94
646.565
651.862
653.794
652.384
647.707
639.889
629.098
615.539
599.443
581.056
560.63
538.406
514.603
489.404
462.939
435.282
406.446
376.387
345.033
312.328
278.302
244.329
608.381
623.021
634.627
643.043
648.176
649.99
648.507
643.802
636.001
625.268
611.805
595.838
577.612
557.371
535.353
511.773
486.81
460.594
433.198
404.634
374.862
343.812
311.432
277.752
244.142
608.381
623.02
634.627
643.043
648.176
649.99
648.507
643.802
636.001
625.268
611.805
595.838
577.612
557.371
535.353
511.773
486.81
460.594
433.198
404.634
374.862
343.812
311.432
277.752
244.142
611.154
626.083
637.94
646.565
651.862
653.794
652.384
647.707
639.889
629.098
615.539
599.443
581.056
560.63
538.406
514.603
489.404
462.939
435.282
406.446
376.387
345.033
312.328
278.302
244.329
)
;

boundaryField
{
    outletCentralUnloaded
    {
        type            zeroGradient;
    }
    inletCentralUnloaded
    {
        type            zeroGradient;
    }
    outletFuelElement
    {
        type            zeroGradient;
    }
    inletFuelElement
    {
        type            zeroGradient;
    }
    defaultFaces
    {
        type            zeroGradient;
    }
    baffle_master
    {
        type            zeroGradient;
    }
    baffle_slave
    {
        type            zeroGradient;
    }
}


// ************************************************************************* //
