/*--------------------------------*- C++ -*----------------------------------*\
| =========                 |                                                 |
| \\      /  F ield         | OpenFOAM: The Open Source CFD Toolbox           |
|  \\    /   O peration     | Version:  2212                                  |
|   \\  /    A nd           | Website:  www.openfoam.com                      |
|    \\/     M anipulation  |                                                 |
\*---------------------------------------------------------------------------*/
FoamFile
{
    version     2.0;
    format      ascii;
    arch        "LSB;label=32;scalar=64";
    class       volScalarField;
    location    "11/fluidRegion";
    object      Tfo.nuclearFuelPin;
}
// * * * * * * * * * * * * * * * * * * * * * * * * * * * * * * * * * * * * * //

dimensions      [0 0 0 1 0 0 0];

internalField   nonuniform List<scalar> 
350
(
0
0
0
0
0
0
0
0
0
0
0
0
0
0
0
0
0
0
0
0
0
0
0
0
0
0
0
0
0
0
0
0
0
0
0
0
0
0
0
0
0
0
0
0
0
0
0
0
0
0
678.484
772.244
862.556
947.968
1027.12
1098.76
1161.75
1215.1
1257.95
1289.63
1309.62
1317.6
1313.41
1297.07
1268.8
1228.97
1178.1
1116.91
1046.2
966.953
880.248
787.303
689.453
588.194
486.446
680.202
775.115
866.539
953.004
1033.14
1105.67
1169.44
1223.46
1266.86
1298.95
1319.23
1327.34
1323.14
1306.66
1278.11
1237.85
1186.45
1124.59
1053.11
972.988
885.322
791.338
692.386
589.973
487.042
678.201
771.777
861.912
947.157
1026.16
1097.65
1160.52
1213.76
1256.53
1288.14
1308.09
1316.05
1311.86
1295.55
1267.32
1227.55
1176.78
1115.68
1045.1
965.992
879.441
786.661
688.987
587.909
486.35
679.813
774.46
865.628
951.85
1031.76
1104.08
1167.68
1221.54
1264.81
1296.81
1317.02
1325.1
1320.9
1304.46
1275.97
1235.81
1184.53
1122.82
1051.52
971.599
884.154
790.41
691.711
589.564
486.905
679.813
774.46
865.628
951.85
1031.76
1104.08
1167.68
1221.54
1264.81
1296.81
1317.02
1325.1
1320.9
1304.46
1275.97
1235.81
1184.53
1122.82
1051.52
971.599
884.154
790.41
691.711
589.564
486.905
678.201
771.777
861.912
947.157
1026.15
1097.65
1160.52
1213.76
1256.53
1288.14
1308.09
1316.05
1311.86
1295.55
1267.32
1227.55
1176.78
1115.68
1045.1
965.992
879.441
786.661
688.987
587.909
486.35
680.202
775.115
866.539
953.004
1033.14
1105.66
1169.44
1223.46
1266.86
1298.95
1319.23
1327.34
1323.14
1306.66
1278.11
1237.85
1186.45
1124.59
1053.11
972.988
885.322
791.339
692.386
589.973
487.042
678.484
772.244
862.556
947.968
1027.12
1098.76
1161.75
1215.1
1257.95
1289.63
1309.62
1317.6
1313.41
1297.07
1268.8
1228.97
1178.1
1116.91
1046.2
966.953
880.248
787.303
689.453
588.194
486.446
679.813
774.46
865.628
951.85
1031.76
1104.08
1167.68
1221.54
1264.81
1296.81
1317.02
1325.1
1320.9
1304.46
1275.97
1235.81
1184.53
1122.82
1051.52
971.599
884.154
790.41
691.711
589.564
486.905
678.201
771.777
861.912
947.157
1026.15
1097.65
1160.52
1213.76
1256.53
1288.14
1308.09
1316.05
1311.86
1295.55
1267.32
1227.55
1176.78
1115.68
1045.1
965.992
879.441
786.661
688.987
587.909
486.35
678.201
771.777
861.912
947.157
1026.15
1097.65
1160.52
1213.76
1256.53
1288.14
1308.09
1316.05
1311.86
1295.55
1267.32
1227.55
1176.78
1115.68
1045.1
965.992
879.441
786.661
688.987
587.909
486.35
679.813
774.46
865.628
951.85
1031.76
1104.08
1167.68
1221.54
1264.81
1296.81
1317.02
1325.1
1320.9
1304.46
1275.97
1235.81
1184.53
1122.82
1051.52
971.599
884.154
790.41
691.711
589.564
486.905
)
;

boundaryField
{
    outletCentralUnloaded
    {
        type            zeroGradient;
    }
    inletCentralUnloaded
    {
        type            zeroGradient;
    }
    outletFuelElement
    {
        type            zeroGradient;
    }
    inletFuelElement
    {
        type            zeroGradient;
    }
    defaultFaces
    {
        type            zeroGradient;
    }
    baffle_master
    {
        type            zeroGradient;
    }
    baffle_slave
    {
        type            zeroGradient;
    }
}


// ************************************************************************* //
