/*--------------------------------*- C++ -*----------------------------------*\
| =========                 |                                                 |
| \\      /  F ield         | OpenFOAM: The Open Source CFD Toolbox           |
|  \\    /   O peration     | Version:  2212                                  |
|   \\  /    A nd           | Website:  www.openfoam.com                      |
|    \\/     M anipulation  |                                                 |
\*---------------------------------------------------------------------------*/
FoamFile
{
    version     2.0;
    format      ascii;
    arch        "LSB;label=32;scalar=64";
    class       scalarFieldField;
    location    "11/fluidRegion";
    object      Trad.nuclearFuelPin;
}
// * * * * * * * * * * * * * * * * * * * * * * * * * * * * * * * * * * * * * //


350
(
0()
0()
0()
0()
0()
0()
0()
0()
0()
0()
0()
0()
0()
0()
0()
0()
0()
0()
0()
0()
0()
0()
0()
0()
0()
0()
0()
0()
0()
0()
0()
0()
0()
0()
0()
0()
0()
0()
0()
0()
0()
0()
0()
0()
0()
0()
0()
0()
0()
0()

20
(
782.629
782.579
782.415
782.092
781.525
780.575
779.04
776.63
772.969
767.588
759.964
749.587
736.075
719.339
699.78
678.484
611.061
610.237
609.492
608.872
)


20
(
947.203
947.134
946.908
946.46
945.668
944.333
942.154
938.701
933.387
925.455
913.997
898.002
876.466
848.551
813.78
772.244
630.551
628.065
625.719
623.561
)


20
(
1107.87
1107.78
1107.5
1106.92
1105.91
1104.19
1101.37
1096.88
1089.93
1079.46
1064.19
1042.62
1013.12
974.097
924.211
862.556
647.023
642.869
638.915
635.209
)


20
(
1262.1
1261.99
1261.64
1260.95
1259.71
1257.62
1254.18
1248.67
1240.1
1227.16
1208.17
1181.13
1143.84
1093.96
1029.29
947.968
660.236
654.437
648.895
643.66
)


20
(
1407.45
1407.33
1406.92
1406.11
1404.66
1402.2
1398.15
1391.66
1381.54
1366.21
1343.62
1311.34
1266.54
1206.22
1127.35
1027.12
670.015
662.621
655.54
648.82
)


20
(
1541.64
1541.5
1541.04
1540.11
1538.46
1535.65
1531.03
1523.6
1512.01
1494.4
1468.41
1431.15
1379.27
1309.09
1216.82
1098.76
676.244
667.334
658.788
650.653
)


20
(
1662.55
1662.39
1661.87
1660.84
1659
1655.86
1650.7
1642.4
1629.43
1609.71
1580.56
1538.68
1480.23
1400.93
1296.27
1161.75
678.869
668.547
658.636
649.181
)


20
(
1768.26
1768.09
1767.52
1766.39
1764.37
1760.94
1755.28
1746.18
1731.95
1710.3
1678.27
1632.21
1567.82
1480.27
1364.43
1215.1
677.895
666.289
655.137
644.48
)


20
(
1857.12
1856.93
1856.32
1855.1
1852.92
1849.22
1843.11
1833.29
1817.94
1794.58
1760
1710.24
1640.62
1545.84
1420.23
1257.95
673.38
660.641
648.393
636.674
)


20
(
1927.72
1927.52
1926.87
1925.57
1923.25
1919.31
1912.81
1902.37
1886.05
1861.21
1824.45
1771.53
1697.46
1596.58
1462.75
1289.63
665.432
651.733
638.554
625.93
)


20
(
1978.94
1978.73
1978.05
1976.68
1974.24
1970.1
1963.27
1952.31
1935.18
1909.12
1870.57
1815.09
1737.45
1631.67
1491.31
1309.62
654.205
639.732
625.804
612.449
)


20
(
2009.98
2009.77
2009.05
2007.63
2005.1
2000.79
1993.7
1982.32
1964.55
1937.55
1897.63
1840.22
1759.91
1650.54
1505.44
1317.6
639.884
624.841
610.357
596.459
)


20
(
2020.35
2020.13
2019.39
2017.93
2015.32
2010.89
2003.6
1991.92
1973.69
1946.03
1905.18
1846.5
1764.47
1652.87
1504.88
1313.41
622.685
607.283
592.448
578.204
)


20
(
2009.89
2009.66
2008.91
2007.41
2004.75
2000.24
1992.82
1980.95
1962.46
1934.43
1893.1
1833.8
1751.04
1638.57
1489.61
1297.07
602.837
587.293
572.318
557.93
)


20
(
1978.75
1978.52
1977.76
1976.25
1973.56
1969
1961.53
1949.58
1931.01
1902.91
1861.55
1802.32
1719.79
1607.84
1459.83
1268.8
580.573
565.107
550.203
535.876
)


20
(
1927.44
1927.21
1926.44
1924.92
1922.23
1917.67
1910.21
1898.31
1879.85
1851.97
1811.02
1752.52
1671.2
1561.14
1415.94
1228.97
556.116
540.945
526.321
512.258
)


20
(
1856.75
1856.52
1855.76
1854.25
1851.57
1847.06
1839.68
1827.94
1809.76
1782.39
1742.29
1685.17
1605.99
1499.13
1358.58
1178.1
529.668
515
500.859
487.253
)


20
(
1767.81
1767.58
1766.83
1765.34
1762.71
1758.27
1751.04
1739.57
1721.86
1695.27
1656.44
1601.31
1525.16
1422.76
1288.57
1116.91
501.395
487.428
473.959
460.994
)


20
(
1662.01
1661.78
1661.05
1659.59
1657.03
1652.71
1645.7
1634.6
1617.52
1591.97
1554.81
1502.24
1429.95
1333.18
1206.94
1046.2
471.422
458.334
445.71
433.553
)


20
(
1541.03
1540.81
1540.1
1538.69
1536.21
1532.06
1525.32
1514.7
1498.42
1474.15
1439.01
1389.55
1321.87
1231.75
1114.88
966.953
439.829
427.776
416.147
404.942
)


20
(
1406.78
1406.57
1405.88
1404.53
1402.17
1398.21
1391.81
1381.76
1366.42
1343.67
1310.88
1264.99
1202.58
1120.04
1013.75
880.248
406.655
395.765
385.254
375.121
)


20
(
1261.37
1261.17
1260.53
1259.25
1257.01
1253.29
1247.29
1237.91
1223.65
1202.62
1172.48
1130.58
1074.01
999.796
905.089
787.303
371.921
362.292
352.993
344.019
)


20
(
1107.1
1106.91
1106.31
1105.12
1103.04
1099.59
1094.06
1085.43
1072.39
1053.27
1026.04
988.482
938.215
872.934
790.573
689.453
335.675
327.37
319.343
311.583
)


20
(
946.407
946.237
945.685
944.6
942.708
939.575
934.566
926.797
915.111
898.071
874
841.077
797.478
741.563
672.055
588.194
298.05
291.097
284.367
277.845
)


20
(
781.872
781.723
781.241
780.295
778.647
775.921
771.57
764.84
754.754
740.117
719.574
691.714
655.227
609.097
552.799
486.446
260.539
254.924
249.477
244.174
)


20
(
783.579
783.529
783.366
783.043
782.476
781.527
779.993
777.588
773.934
768.568
760.971
750.639
737.203
720.589
701.217
680.202
613.866
613.088
612.388
611.816
)


20
(
950.039
949.97
949.744
949.295
948.501
947.162
944.98
941.52
936.197
928.255
916.785
900.779
879.237
851.327
816.585
775.115
633.72
631.262
628.945
626.818
)


20
(
1112.55
1112.46
1112.17
1111.6
1110.58
1108.85
1106.02
1101.52
1094.54
1084.04
1068.72
1047.08
1017.49
978.358
928.342
866.539
650.514
646.372
642.429
638.739
)


20
(
1268.54
1268.44
1268.09
1267.39
1266.15
1264.04
1260.58
1255.05
1246.44
1233.44
1214.36
1187.2
1149.74
1099.64
1034.69
953.004
664.006
658.2
652.654
647.417
)


20
(
1415.56
1415.44
1415.03
1414.21
1412.75
1410.28
1406.21
1399.68
1389.51
1374.09
1351.38
1318.92
1273.88
1213.23
1133.93
1033.14
674.014
666.597
659.494
652.757
)


20
(
1551.29
1551.14
1550.68
1549.75
1548.09
1545.26
1540.61
1533.14
1521.48
1503.77
1477.62
1440.14
1387.94
1317.32
1224.47
1105.67
680.422
671.471
662.888
654.72
)


20
(
1673.58
1673.42
1672.9
1671.86
1670.01
1666.86
1661.65
1653.3
1640.25
1620.41
1591.07
1548.92
1490.09
1410.26
1304.89
1169.44
683.174
672.796
662.832
653.33
)


20
(
1780.5
1780.33
1779.76
1778.62
1776.59
1773.14
1767.44
1758.28
1743.96
1722.16
1689.92
1643.55
1578.71
1490.55
1373.89
1223.46
682.275
670.598
659.379
648.661
)


20
(
1870.38
1870.19
1869.58
1868.35
1866.16
1862.43
1856.28
1846.4
1830.94
1807.42
1772.61
1722.5
1652.37
1556.91
1430.37
1266.86
677.783
664.961
652.634
640.841
)


20
(
1941.79
1941.59
1940.93
1939.62
1937.29
1933.33
1926.78
1916.27
1899.84
1874.82
1837.8
1784.51
1709.91
1608.27
1473.42
1298.95
669.809
656.015
642.746
630.038
)


20
(
1993.6
1993.39
1992.7
1991.32
1988.87
1984.7
1977.82
1966.79
1949.54
1923.3
1884.47
1828.6
1750.38
1643.81
1502.36
1319.23
658.508
643.932
629.904
616.457
)


20
(
2025
2024.78
2024.06
2022.63
2020.08
2015.74
2008.6
1997.15
1979.26
1952.06
1911.86
1854.04
1773.13
1662.93
1516.69
1327.34
644.072
628.918
614.328
600.33
)


20
(
2035.49
2035.26
2034.52
2033.05
2030.42
2025.96
2018.62
2006.86
1988.51
1960.66
1919.52
1860.41
1777.78
1665.32
1516.17
1323.14
626.718
611.2
596.254
581.906
)


20
(
2024.9
2024.67
2023.92
2022.41
2019.73
2015.19
2007.72
1995.77
1977.16
1948.94
1907.32
1847.59
1764.22
1650.89
1500.76
1306.66
606.68
591.018
575.93
561.435
)


20
(
1993.41
1993.18
1992.41
1990.89
1988.18
1983.6
1976.08
1964.06
1945.36
1917.07
1875.42
1815.77
1732.64
1619.85
1470.68
1278.11
584.196
568.612
553.595
539.161
)


20
(
1941.51
1941.27
1940.51
1938.98
1936.27
1931.69
1924.18
1912.2
1893.62
1865.56
1824.33
1765.43
1683.52
1572.64
1426.33
1237.85
559.493
544.206
529.472
515.304
)


20
(
1870.01
1869.78
1869.02
1867.5
1864.81
1860.27
1852.84
1841.03
1822.74
1795.2
1754.84
1697.33
1617.59
1509.96
1368.35
1186.45
532.776
517.999
503.752
490.046
)


20
(
1780.05
1779.82
1779.07
1777.57
1774.92
1770.47
1763.19
1751.66
1733.84
1707.09
1668.02
1612.53
1535.87
1432.75
1297.58
1124.59
504.215
490.145
476.578
463.52
)


20
(
1673.04
1672.81
1672.08
1670.61
1668.03
1663.7
1656.65
1645.49
1628.32
1602.62
1565.24
1512.35
1439.6
1342.17
1215.04
1053.11
473.936
460.755
448.041
435.799
)


20
(
1550.68
1550.46
1549.74
1548.33
1545.84
1541.66
1534.89
1524.22
1507.86
1483.46
1448.13
1398.39
1330.3
1239.62
1121.96
972.988
442.017
429.882
418.175
406.896
)


20
(
1414.89
1414.68
1413.99
1412.64
1410.26
1406.28
1399.86
1389.76
1374.36
1351.49
1318.55
1272.42
1209.67
1126.65
1019.7
885.322
408.496
397.538
386.962
376.766
)


20
(
1267.82
1267.62
1266.97
1265.69
1263.44
1259.71
1253.69
1244.27
1229.96
1208.84
1178.57
1136.48
1079.64
1005.05
909.821
791.338
373.394
363.711
354.361
345.336
)


20
(
1111.78
1111.59
1110.98
1109.79
1107.71
1104.25
1098.7
1090.05
1076.97
1057.78
1030.47
992.768
942.304
876.748
794.009
692.386
336.754
328.41
320.346
312.551
)


20
(
949.243
949.073
948.519
947.432
945.537
942.399
937.38
929.596
917.886
900.808
876.681
843.674
799.957
743.875
674.139
589.973
298.71
291.734
284.982
278.438
)


20
(
782.822
782.673
782.191
781.244
779.595
776.867
772.513
765.778
755.683
741.034
720.472
692.584
656.057
609.871
553.497
487.042
260.762
255.139
249.685
244.375
)


20
(
782.477
782.427
782.264
781.941
781.373
780.424
778.887
776.478
772.814
767.431
759.802
749.417
735.892
719.135
699.543
678.201
610.593
609.761
609.008
608.381
)


20
(
946.751
946.682
946.457
946.009
945.217
943.882
941.704
938.252
932.938
925.008
913.551
897.557
876.022
848.104
813.326
771.777
630.026
627.535
625.184
623.021
)


20
(
1107.13
1107.04
1106.75
1106.18
1105.16
1103.45
1100.63
1096.14
1089.19
1078.73
1063.47
1041.91
1012.42
973.414
923.546
861.912
646.447
642.292
638.335
634.627
)


20
(
1261.07
1260.97
1260.62
1259.92
1258.69
1256.6
1253.15
1247.65
1239.09
1226.16
1207.18
1180.16
1142.89
1093.05
1028.43
947.157
659.618
653.82
648.278
643.043
)


20
(
1406.16
1406.04
1405.63
1404.82
1403.37
1400.91
1396.87
1390.38
1380.27
1364.95
1342.38
1310.13
1265.37
1205.1
1126.3
1026.16
669.362
661.971
654.893
648.176
)


20
(
1540.1
1539.96
1539.5
1538.57
1536.93
1534.12
1529.5
1522.08
1510.5
1492.91
1466.95
1429.72
1377.89
1307.78
1215.59
1097.65
675.564
666.66
658.119
649.99
)


20
(
1660.79
1660.63
1660.11
1659.08
1657.24
1654.11
1648.95
1640.66
1627.71
1608.01
1578.88
1537.05
1478.66
1399.44
1294.89
1160.52
678.171
667.857
657.954
648.507
)


20
(
1766.31
1766.14
1765.57
1764.44
1762.43
1759
1753.34
1744.25
1730.04
1708.41
1676.42
1630.41
1566.08
1478.63
1362.92
1213.76
677.186
665.591
654.45
643.802
)


20
(
1855.01
1854.82
1854.21
1852.99
1850.82
1847.12
1841.01
1831.21
1815.87
1792.54
1758
1708.29
1638.74
1544.07
1418.61
1256.53
672.669
659.944
647.709
636.001
)


20
(
1925.48
1925.28
1924.63
1923.33
1921.02
1917.08
1910.58
1900.16
1883.85
1859.04
1822.32
1769.46
1695.48
1594.71
1461.04
1288.14
664.728
651.043
637.879
625.268
)


20
(
1976.61
1976.4
1975.71
1974.35
1971.91
1967.78
1960.95
1950
1932.89
1906.86
1868.35
1812.94
1735.39
1629.74
1489.55
1308.09
653.513
639.057
625.144
611.805
)


20
(
2007.59
2007.37
2006.66
2005.24
2002.71
1998.41
1991.32
1979.95
1962.21
1935.23
1895.36
1838.02
1757.8
1648.57
1503.64
1316.05
639.213
624.187
609.72
595.838
)


20
(
2017.94
2017.72
2016.99
2015.52
2012.91
2008.49
2001.21
1989.54
1971.33
1943.7
1902.9
1844.28
1762.35
1650.88
1503.08
1311.86
622.04
606.656
591.839
577.612
)


20
(
2007.5
2007.27
2006.52
2005.02
2002.37
1997.86
1990.45
1978.59
1960.12
1932.12
1890.83
1831.6
1748.94
1636.61
1487.83
1295.55
602.224
586.699
571.741
557.371
)


20
(
1976.42
1976.19
1975.43
1973.92
1971.23
1966.68
1959.21
1947.28
1928.73
1900.66
1859.34
1800.17
1717.75
1605.93
1458.1
1267.32
579.996
564.548
549.662
535.353
)


20
(
1925.2
1924.97
1924.2
1922.68
1919.99
1915.44
1907.99
1896.1
1877.65
1849.8
1808.9
1750.46
1669.23
1559.3
1414.29
1227.55
555.579
540.426
525.82
511.773
)


20
(
1854.64
1854.41
1853.65
1852.14
1849.47
1844.96
1837.58
1825.85
1807.69
1780.35
1740.29
1683.23
1604.14
1497.41
1357.02
1176.78
529.174
514.524
500.4
486.81
)


20
(
1765.86
1765.63
1764.88
1763.39
1760.76
1756.33
1749.11
1737.64
1719.95
1693.38
1654.59
1599.52
1523.45
1421.17
1287.14
1115.68
500.948
486.997
473.544
460.594
)


20
(
1660.25
1660.03
1659.29
1657.84
1655.27
1650.96
1643.95
1632.86
1615.8
1590.28
1553.14
1500.63
1428.42
1331.75
1205.65
1045.1
471.025
457.951
445.341
433.198
)


20
(
1539.5
1539.28
1538.57
1537.16
1534.68
1530.53
1523.8
1513.18
1496.91
1472.67
1437.56
1388.14
1320.52
1230.5
1113.75
965.992
439.484
427.444
415.827
404.634
)


20
(
1405.49
1405.28
1404.59
1403.24
1400.88
1396.92
1390.53
1380.48
1365.16
1342.42
1309.66
1263.81
1201.45
1118.99
1012.8
879.441
406.365
395.486
384.986
374.862
)


20
(
1260.35
1260.15
1259.5
1258.22
1255.99
1252.27
1246.27
1236.9
1222.65
1201.62
1171.51
1129.64
1073.11
998.959
904.335
786.661
371.69
362.069
352.779
343.812
)


20
(
1106.35
1106.17
1105.57
1104.38
1102.3
1098.85
1093.32
1084.7
1071.67
1052.55
1025.34
987.799
937.563
872.327
790.025
688.987
335.506
327.207
319.186
311.432
)


20
(
945.956
945.786
945.233
944.148
942.257
939.125
934.117
926.351
914.669
897.634
873.572
840.662
797.082
741.193
671.722
587.909
297.946
290.997
284.271
277.752
)


20
(
781.72
781.572
781.09
780.144
778.496
775.77
771.42
764.691
754.605
739.97
719.43
691.575
655.094
608.973
552.686
486.35
260.503
254.889
249.444
244.142
)


20
(
783.361
783.31
783.147
782.824
782.257
781.308
779.774
777.368
773.712
768.343
760.74
750.398
736.945
720.304
700.891
679.813
613.235
612.447
611.737
611.154
)


20
(
949.386
949.317
949.091
948.642
947.849
946.511
944.329
940.871
935.55
927.611
916.144
900.14
878.601
850.691
815.943
774.46
633.004
630.541
628.217
626.083
)


20
(
1111.47
1111.38
1111.09
1110.52
1109.5
1107.78
1104.95
1100.45
1093.48
1082.98
1067.68
1046.05
1016.48
977.38
927.395
865.628
649.724
645.579
641.634
637.94
)


20
(
1267.06
1266.95
1266.6
1265.91
1264.67
1262.56
1259.11
1253.58
1244.98
1231.99
1212.93
1185.81
1148.38
1098.33
1033.45
951.85
663.15
657.346
651.801
646.565
)


20
(
1413.7
1413.57
1413.16
1412.34
1410.89
1408.42
1404.35
1397.84
1387.68
1372.28
1349.6
1317.18
1272.19
1211.62
1132.42
1031.76
673.105
665.693
658.596
651.862
)


20
(
1549.07
1548.92
1548.46
1547.53
1545.87
1543.05
1538.4
1530.94
1519.3
1501.61
1475.5
1438.07
1385.94
1315.43
1222.71
1104.08
679.47
670.529
661.955
653.794
)


20
(
1671.04
1670.88
1670.36
1669.32
1667.47
1664.33
1659.13
1650.79
1637.76
1617.95
1588.65
1546.57
1487.82
1408.11
1302.91
1167.68
682.192
671.827
661.875
652.384
)


20
(
1777.69
1777.51
1776.94
1775.81
1773.78
1770.33
1764.64
1755.49
1741.19
1719.43
1687.24
1640.94
1576.2
1488.18
1371.71
1221.54
681.274
669.614
658.411
647.707
)


20
(
1867.33
1867.14
1866.53
1865.3
1863.11
1859.39
1853.25
1843.38
1827.95
1804.47
1769.71
1719.68
1649.67
1554.36
1428.04
1264.81
676.776
663.973
651.665
639.889
)


20
(
1938.55
1938.35
1937.69
1936.39
1934.06
1930.1
1923.57
1913.07
1896.66
1871.69
1834.73
1781.53
1707.04
1605.58
1470.97
1296.81
668.807
655.035
641.787
629.098
)


20
(
1990.22
1990.01
1989.33
1987.95
1985.5
1981.34
1974.47
1963.45
1946.23
1920.03
1881.27
1825.49
1747.4
1641.01
1499.82
1317.02
657.522
642.97
628.965
615.539
)


20
(
2021.54
2021.32
2020.61
2019.18
2016.63
2012.3
2005.17
1993.73
1975.87
1948.72
1908.58
1850.86
1770.09
1660.08
1514.1
1325.1
643.111
627.983
613.417
599.443
)


20
(
2032
2031.78
2031.04
2029.57
2026.94
2022.49
2015.16
2003.42
1985.1
1957.29
1916.22
1857.21
1774.71
1662.45
1513.57
1320.9
625.792
610.301
595.381
581.056
)


20
(
2021.45
2021.22
2020.46
2018.96
2016.28
2011.75
2004.29
1992.36
1973.78
1945.6
1904.04
1844.42
1761.19
1648.06
1498.2
1304.46
605.797
590.163
575.1
560.63
)


20
(
1990.04
1989.8
1989.04
1987.52
1984.82
1980.24
1972.73
1960.73
1942.06
1913.81
1872.23
1812.68
1729.69
1617.09
1468.18
1275.97
583.363
567.806
552.815
538.406
)


20
(
1938.27
1938.04
1937.27
1935.74
1933.04
1928.46
1920.96
1909.01
1890.45
1862.43
1821.27
1762.45
1680.69
1569.99
1423.94
1235.81
558.716
543.456
528.748
514.603
)


20
(
1866.96
1866.73
1865.96
1864.45
1861.76
1857.23
1849.81
1838.02
1819.75
1792.25
1751.95
1694.53
1614.92
1507.47
1366.1
1184.53
532.061
517.309
503.086
489.404
)


20
(
1777.23
1777
1776.25
1774.75
1772.11
1767.66
1760.4
1748.87
1731.08
1704.37
1665.35
1609.95
1533.4
1430.45
1295.5
1122.82
503.566
489.52
475.975
462.939
)


20
(
1670.5
1670.27
1669.54
1668.08
1665.5
1661.17
1654.13
1642.98
1625.83
1600.17
1562.84
1510.03
1437.38
1340.1
1213.17
1051.52
473.357
460.197
447.504
435.282
)


20
(
1548.46
1548.24
1547.52
1546.11
1543.62
1539.45
1532.69
1522.03
1505.68
1481.32
1446.03
1396.35
1328.36
1237.81
1120.33
971.599
441.513
429.397
417.708
406.446
)


20
(
1413.02
1412.81
1412.12
1410.77
1408.39
1404.42
1398
1387.92
1372.53
1349.69
1316.78
1270.71
1208.04
1125.13
1018.33
884.154
408.072
397.13
386.569
376.387
)


20
(
1266.33
1266.13
1265.48
1264.2
1261.96
1258.23
1252.21
1242.81
1228.51
1207.4
1177.17
1135.12
1078.34
1003.84
908.732
790.41
373.055
363.384
354.045
345.033
)


20
(
1110.7
1110.51
1109.91
1108.72
1106.63
1103.18
1097.63
1088.99
1075.92
1056.74
1029.45
991.781
941.363
875.87
793.218
691.711
336.506
328.171
320.115
312.328
)


20
(
948.59
948.42
947.867
946.78
944.886
941.749
936.732
928.952
917.247
900.178
876.064
843.077
799.386
743.343
673.66
589.564
298.559
291.587
284.841
278.302
)


20
(
782.603
782.455
781.972
781.026
779.376
776.649
772.296
765.562
755.469
740.823
720.265
692.384
655.866
609.693
553.337
486.905
260.711
255.09
249.637
244.329
)


20
(
783.361
783.31
783.147
782.824
782.257
781.308
779.774
777.368
773.712
768.343
760.74
750.398
736.945
720.304
700.891
679.813
613.235
612.447
611.737
611.154
)


20
(
949.386
949.317
949.091
948.642
947.849
946.511
944.329
940.871
935.55
927.611
916.144
900.14
878.601
850.691
815.943
774.46
633.004
630.541
628.217
626.083
)


20
(
1111.47
1111.38
1111.09
1110.52
1109.5
1107.78
1104.95
1100.45
1093.48
1082.98
1067.68
1046.05
1016.48
977.38
927.395
865.628
649.724
645.579
641.634
637.94
)


20
(
1267.06
1266.95
1266.6
1265.91
1264.67
1262.56
1259.11
1253.58
1244.98
1231.99
1212.93
1185.81
1148.38
1098.33
1033.45
951.85
663.15
657.346
651.801
646.565
)


20
(
1413.7
1413.57
1413.16
1412.34
1410.89
1408.42
1404.35
1397.84
1387.68
1372.28
1349.6
1317.18
1272.19
1211.62
1132.42
1031.76
673.105
665.693
658.595
651.862
)


20
(
1549.07
1548.92
1548.46
1547.53
1545.87
1543.05
1538.4
1530.94
1519.3
1501.61
1475.5
1438.07
1385.94
1315.43
1222.71
1104.08
679.47
670.529
661.955
653.794
)


20
(
1671.04
1670.88
1670.36
1669.32
1667.47
1664.33
1659.13
1650.79
1637.76
1617.95
1588.65
1546.57
1487.82
1408.11
1302.91
1167.68
682.192
671.827
661.875
652.384
)


20
(
1777.69
1777.51
1776.94
1775.81
1773.78
1770.33
1764.64
1755.49
1741.19
1719.43
1687.24
1640.94
1576.2
1488.18
1371.71
1221.54
681.274
669.614
658.411
647.707
)


20
(
1867.33
1867.14
1866.53
1865.3
1863.11
1859.39
1853.25
1843.38
1827.95
1804.47
1769.71
1719.68
1649.67
1554.36
1428.04
1264.81
676.776
663.973
651.665
639.889
)


20
(
1938.55
1938.35
1937.69
1936.39
1934.06
1930.1
1923.57
1913.07
1896.66
1871.69
1834.73
1781.53
1707.04
1605.58
1470.97
1296.81
668.807
655.035
641.787
629.098
)


20
(
1990.22
1990.01
1989.33
1987.95
1985.5
1981.34
1974.47
1963.45
1946.23
1920.03
1881.27
1825.49
1747.4
1641.01
1499.82
1317.02
657.522
642.97
628.965
615.539
)


20
(
2021.54
2021.32
2020.61
2019.18
2016.63
2012.3
2005.17
1993.73
1975.87
1948.72
1908.58
1850.86
1770.09
1660.08
1514.1
1325.1
643.111
627.983
613.417
599.443
)


20
(
2032
2031.78
2031.04
2029.57
2026.94
2022.49
2015.16
2003.42
1985.1
1957.29
1916.22
1857.21
1774.71
1662.45
1513.57
1320.9
625.792
610.301
595.381
581.056
)


20
(
2021.45
2021.22
2020.46
2018.96
2016.28
2011.75
2004.29
1992.36
1973.78
1945.6
1904.04
1844.42
1761.19
1648.06
1498.2
1304.46
605.797
590.163
575.1
560.63
)


20
(
1990.04
1989.8
1989.04
1987.52
1984.82
1980.24
1972.73
1960.73
1942.06
1913.81
1872.23
1812.68
1729.69
1617.09
1468.18
1275.97
583.363
567.806
552.815
538.406
)


20
(
1938.27
1938.04
1937.27
1935.74
1933.04
1928.46
1920.96
1909.01
1890.45
1862.43
1821.27
1762.45
1680.69
1569.99
1423.94
1235.81
558.716
543.456
528.748
514.603
)


20
(
1866.96
1866.73
1865.96
1864.45
1861.76
1857.23
1849.81
1838.02
1819.75
1792.25
1751.95
1694.53
1614.92
1507.47
1366.1
1184.53
532.061
517.309
503.086
489.404
)


20
(
1777.23
1777
1776.25
1774.75
1772.11
1767.66
1760.4
1748.87
1731.08
1704.37
1665.35
1609.95
1533.4
1430.45
1295.5
1122.82
503.566
489.52
475.975
462.939
)


20
(
1670.5
1670.27
1669.54
1668.08
1665.5
1661.17
1654.13
1642.98
1625.83
1600.17
1562.84
1510.03
1437.38
1340.1
1213.17
1051.52
473.357
460.197
447.504
435.282
)


20
(
1548.46
1548.24
1547.52
1546.11
1543.62
1539.45
1532.69
1522.03
1505.68
1481.32
1446.03
1396.35
1328.36
1237.81
1120.33
971.599
441.513
429.397
417.708
406.446
)


20
(
1413.02
1412.81
1412.12
1410.77
1408.39
1404.42
1398
1387.92
1372.53
1349.69
1316.78
1270.71
1208.04
1125.13
1018.33
884.154
408.072
397.13
386.569
376.387
)


20
(
1266.33
1266.13
1265.48
1264.2
1261.96
1258.23
1252.21
1242.81
1228.51
1207.4
1177.17
1135.12
1078.34
1003.84
908.732
790.41
373.055
363.384
354.046
345.033
)


20
(
1110.7
1110.51
1109.91
1108.72
1106.63
1103.18
1097.63
1088.99
1075.92
1056.74
1029.45
991.781
941.363
875.87
793.218
691.711
336.506
328.171
320.115
312.328
)


20
(
948.59
948.42
947.867
946.78
944.886
941.749
936.732
928.952
917.247
900.178
876.064
843.077
799.386
743.343
673.66
589.564
298.559
291.587
284.841
278.302
)


20
(
782.603
782.455
781.972
781.026
779.376
776.649
772.296
765.562
755.469
740.823
720.265
692.384
655.866
609.693
553.337
486.905
260.711
255.09
249.637
244.329
)


20
(
782.477
782.427
782.264
781.941
781.373
780.424
778.887
776.478
772.814
767.431
759.802
749.417
735.892
719.134
699.543
678.201
610.593
609.761
609.008
608.381
)


20
(
946.751
946.682
946.457
946.009
945.217
943.882
941.704
938.252
932.938
925.008
913.551
897.557
876.022
848.104
813.326
771.777
630.026
627.535
625.184
623.02
)


20
(
1107.13
1107.04
1106.75
1106.18
1105.16
1103.45
1100.63
1096.14
1089.19
1078.73
1063.47
1041.91
1012.42
973.414
923.546
861.912
646.447
642.291
638.335
634.627
)


20
(
1261.07
1260.97
1260.62
1259.92
1258.69
1256.6
1253.16
1247.65
1239.09
1226.16
1207.18
1180.16
1142.89
1093.05
1028.43
947.157
659.618
653.819
648.278
643.043
)


20
(
1406.16
1406.04
1405.63
1404.82
1403.37
1400.91
1396.87
1390.38
1380.27
1364.95
1342.38
1310.13
1265.37
1205.1
1126.3
1026.15
669.361
661.971
654.893
648.176
)


20
(
1540.1
1539.96
1539.5
1538.57
1536.93
1534.12
1529.5
1522.08
1510.5
1492.91
1466.95
1429.72
1377.89
1307.78
1215.59
1097.65
675.564
666.66
658.119
649.99
)


20
(
1660.79
1660.63
1660.11
1659.08
1657.24
1654.11
1648.95
1640.66
1627.71
1608.01
1578.88
1537.05
1478.66
1399.44
1294.89
1160.52
678.171
667.857
657.954
648.507
)


20
(
1766.31
1766.14
1765.57
1764.44
1762.43
1759
1753.34
1744.25
1730.04
1708.41
1676.42
1630.41
1566.08
1478.63
1362.92
1213.76
677.186
665.591
654.449
643.802
)


20
(
1855.01
1854.82
1854.21
1852.99
1850.82
1847.12
1841.01
1831.21
1815.87
1792.54
1758
1708.29
1638.74
1544.07
1418.61
1256.53
672.669
659.944
647.709
636.001
)


20
(
1925.48
1925.28
1924.63
1923.33
1921.02
1917.08
1910.58
1900.16
1883.85
1859.04
1822.32
1769.46
1695.48
1594.71
1461.04
1288.14
664.728
651.043
637.878
625.268
)


20
(
1976.61
1976.4
1975.71
1974.35
1971.91
1967.78
1960.95
1950
1932.89
1906.86
1868.35
1812.94
1735.39
1629.74
1489.55
1308.09
653.513
639.057
625.144
611.805
)


20
(
2007.59
2007.37
2006.66
2005.24
2002.71
1998.41
1991.32
1979.95
1962.21
1935.23
1895.36
1838.02
1757.8
1648.57
1503.64
1316.05
639.213
624.187
609.72
595.838
)


20
(
2017.94
2017.72
2016.99
2015.52
2012.91
2008.49
2001.21
1989.54
1971.33
1943.7
1902.9
1844.28
1762.35
1650.88
1503.08
1311.86
622.04
606.656
591.839
577.612
)


20
(
2007.5
2007.27
2006.52
2005.02
2002.37
1997.86
1990.45
1978.59
1960.12
1932.12
1890.83
1831.6
1748.94
1636.61
1487.83
1295.55
602.224
586.699
571.741
557.371
)


20
(
1976.42
1976.19
1975.43
1973.92
1971.23
1966.68
1959.21
1947.28
1928.73
1900.66
1859.34
1800.17
1717.75
1605.93
1458.1
1267.32
579.996
564.548
549.662
535.353
)


20
(
1925.2
1924.97
1924.2
1922.68
1919.99
1915.44
1907.99
1896.1
1877.65
1849.8
1808.9
1750.46
1669.23
1559.3
1414.29
1227.55
555.579
540.426
525.82
511.773
)


20
(
1854.64
1854.41
1853.65
1852.14
1849.47
1844.96
1837.58
1825.85
1807.69
1780.35
1740.29
1683.23
1604.14
1497.41
1357.02
1176.78
529.174
514.524
500.4
486.81
)


20
(
1765.86
1765.63
1764.88
1763.39
1760.76
1756.33
1749.11
1737.64
1719.95
1693.38
1654.59
1599.52
1523.45
1421.17
1287.14
1115.68
500.948
486.997
473.544
460.594
)


20
(
1660.25
1660.03
1659.29
1657.84
1655.27
1650.96
1643.95
1632.86
1615.8
1590.28
1553.14
1500.63
1428.42
1331.75
1205.65
1045.1
471.025
457.951
445.341
433.198
)


20
(
1539.5
1539.28
1538.57
1537.16
1534.68
1530.53
1523.8
1513.18
1496.91
1472.67
1437.56
1388.14
1320.52
1230.5
1113.75
965.992
439.484
427.444
415.827
404.634
)


20
(
1405.49
1405.28
1404.59
1403.24
1400.88
1396.92
1390.53
1380.48
1365.16
1342.42
1309.66
1263.81
1201.45
1118.99
1012.8
879.441
406.365
395.486
384.986
374.862
)


20
(
1260.35
1260.15
1259.5
1258.22
1255.99
1252.27
1246.27
1236.9
1222.65
1201.62
1171.51
1129.64
1073.11
998.959
904.335
786.661
371.69
362.07
352.779
343.812
)


20
(
1106.36
1106.17
1105.57
1104.38
1102.3
1098.85
1093.32
1084.7
1071.67
1052.55
1025.34
987.799
937.563
872.327
790.025
688.987
335.506
327.207
319.186
311.432
)


20
(
945.956
945.786
945.233
944.148
942.257
939.125
934.117
926.351
914.669
897.634
873.572
840.662
797.082
741.193
671.722
587.909
297.946
290.997
284.271
277.752
)


20
(
781.72
781.572
781.09
780.144
778.496
775.77
771.42
764.691
754.605
739.97
719.43
691.575
655.094
608.973
552.686
486.35
260.503
254.889
249.444
244.142
)


20
(
783.579
783.529
783.366
783.043
782.476
781.527
779.993
777.588
773.934
768.568
760.971
750.639
737.203
720.589
701.217
680.202
613.866
613.088
612.388
611.816
)


20
(
950.039
949.97
949.744
949.295
948.501
947.162
944.979
941.52
936.197
928.255
916.785
900.779
879.237
851.327
816.585
775.115
633.719
631.262
628.945
626.818
)


20
(
1112.55
1112.46
1112.17
1111.6
1110.58
1108.85
1106.02
1101.52
1094.54
1084.04
1068.72
1047.08
1017.49
978.358
928.342
866.539
650.514
646.372
642.429
638.739
)


20
(
1268.54
1268.44
1268.09
1267.39
1266.15
1264.04
1260.58
1255.05
1246.44
1233.44
1214.36
1187.2
1149.74
1099.64
1034.69
953.004
664.006
658.2
652.654
647.417
)


20
(
1415.56
1415.44
1415.03
1414.21
1412.75
1410.28
1406.21
1399.68
1389.51
1374.09
1351.38
1318.92
1273.88
1213.23
1133.93
1033.14
674.014
666.597
659.494
652.757
)


20
(
1551.29
1551.14
1550.68
1549.75
1548.09
1545.26
1540.61
1533.14
1521.48
1503.77
1477.62
1440.14
1387.94
1317.32
1224.47
1105.66
680.422
671.471
662.888
654.72
)


20
(
1673.58
1673.42
1672.9
1671.86
1670.01
1666.86
1661.65
1653.3
1640.25
1620.41
1591.07
1548.92
1490.09
1410.26
1304.89
1169.44
683.174
672.796
662.832
653.33
)


20
(
1780.5
1780.33
1779.76
1778.62
1776.59
1773.14
1767.44
1758.28
1743.96
1722.16
1689.92
1643.55
1578.71
1490.55
1373.89
1223.46
682.275
670.598
659.379
648.661
)


20
(
1870.38
1870.19
1869.58
1868.35
1866.16
1862.43
1856.28
1846.4
1830.94
1807.42
1772.61
1722.5
1652.37
1556.91
1430.37
1266.86
677.783
664.961
652.634
640.841
)


20
(
1941.79
1941.59
1940.93
1939.62
1937.29
1933.33
1926.78
1916.27
1899.84
1874.82
1837.8
1784.51
1709.91
1608.27
1473.42
1298.95
669.809
656.015
642.746
630.038
)


20
(
1993.6
1993.39
1992.7
1991.32
1988.87
1984.7
1977.82
1966.79
1949.54
1923.3
1884.47
1828.6
1750.38
1643.81
1502.36
1319.23
658.508
643.932
629.904
616.457
)


20
(
2025
2024.78
2024.06
2022.63
2020.08
2015.74
2008.6
1997.15
1979.26
1952.06
1911.86
1854.04
1773.13
1662.93
1516.69
1327.34
644.072
628.918
614.328
600.33
)


20
(
2035.49
2035.26
2034.52
2033.05
2030.42
2025.96
2018.62
2006.86
1988.51
1960.66
1919.52
1860.41
1777.78
1665.32
1516.17
1323.14
626.718
611.2
596.254
581.905
)


20
(
2024.9
2024.67
2023.92
2022.41
2019.73
2015.19
2007.72
1995.77
1977.16
1948.94
1907.32
1847.59
1764.22
1650.89
1500.76
1306.66
606.68
591.018
575.93
561.435
)


20
(
1993.41
1993.18
1992.41
1990.89
1988.18
1983.6
1976.08
1964.06
1945.36
1917.07
1875.42
1815.77
1732.64
1619.85
1470.68
1278.11
584.196
568.612
553.595
539.161
)


20
(
1941.51
1941.27
1940.51
1938.98
1936.27
1931.69
1924.18
1912.2
1893.62
1865.56
1824.33
1765.43
1683.52
1572.64
1426.33
1237.85
559.493
544.206
529.472
515.304
)


20
(
1870.01
1869.78
1869.02
1867.5
1864.81
1860.27
1852.84
1841.03
1822.74
1795.2
1754.84
1697.33
1617.59
1509.96
1368.35
1186.45
532.776
517.999
503.752
490.046
)


20
(
1780.05
1779.82
1779.07
1777.57
1774.92
1770.47
1763.19
1751.66
1733.84
1707.09
1668.02
1612.53
1535.87
1432.75
1297.58
1124.59
504.215
490.145
476.578
463.52
)


20
(
1673.04
1672.81
1672.08
1670.61
1668.03
1663.7
1656.65
1645.49
1628.32
1602.62
1565.24
1512.35
1439.6
1342.17
1215.04
1053.11
473.936
460.755
448.041
435.799
)


20
(
1550.68
1550.46
1549.74
1548.33
1545.84
1541.66
1534.89
1524.22
1507.86
1483.46
1448.13
1398.39
1330.3
1239.62
1121.96
972.988
442.017
429.882
418.175
406.896
)


20
(
1414.89
1414.68
1413.99
1412.63
1410.26
1406.28
1399.86
1389.76
1374.36
1351.49
1318.55
1272.42
1209.67
1126.65
1019.7
885.322
408.496
397.538
386.962
376.766
)


20
(
1267.82
1267.62
1266.97
1265.69
1263.44
1259.71
1253.69
1244.27
1229.96
1208.84
1178.57
1136.48
1079.64
1005.05
909.821
791.339
373.394
363.711
354.361
345.336
)


20
(
1111.78
1111.59
1110.98
1109.79
1107.71
1104.25
1098.7
1090.05
1076.97
1057.78
1030.47
992.768
942.304
876.748
794.009
692.386
336.755
328.41
320.346
312.551
)


20
(
949.243
949.073
948.519
947.432
945.537
942.399
937.38
929.596
917.886
900.808
876.681