/*--------------------------------*- C++ -*----------------------------------*\
| =========                 |                                                 |
| \\      /  F ield         | OpenFOAM: The Open Source CFD Toolbox           |
|  \\    /   O peration     | Version:  2212                                  |
|   \\  /    A nd           | Website:  www.openfoam.com                      |
|    \\/     M anipulation  |                                                 |
\*---------------------------------------------------------------------------*/
FoamFile
{
    version     2.0;
    format      ascii;
    arch        "LSB;label=32;scalar=64";
    class       volVectorField;
    location    "11/fluidRegion";
    object      U;
}
// * * * * * * * * * * * * * * * * * * * * * * * * * * * * * * * * * * * * * //

dimensions      [0 1 -1 0 0 0 0];

internalField   nonuniform List<vector> 
350
(
(1.90093e-08 1.0975e-08 -14.8297)
(2.7133e-08 1.56652e-08 -14.8285)
(2.88989e-08 1.66848e-08 -14.8274)
(3.11815e-08 1.80026e-08 -14.8262)
(3.44625e-08 1.98969e-08 -14.825)
(3.87859e-08 2.2393e-08 -14.8238)
(4.41568e-08 2.54939e-08 -14.8226)
(5.05926e-08 2.92096e-08 -14.8215)
(5.81211e-08 3.35561e-08 -14.8203)
(6.67433e-08 3.85342e-08 -14.8192)
(7.64103e-08 4.41154e-08 -14.818)
(8.69875e-08 5.02221e-08 -14.8169)
(9.82096e-08 5.67012e-08 -14.8157)
(1.0962e-07 6.32892e-08 -14.8146)
(1.20522e-07 6.95833e-08 -14.8135)
(1.29935e-07 7.5018e-08 -14.8124)
(1.36622e-07 7.88786e-08 -14.8113)
(1.39325e-07 8.04389e-08 -14.8102)
(1.37807e-07 7.95626e-08 -14.8091)
(1.35889e-07 7.84552e-08 -14.808)
(1.49427e-07 8.62716e-08 -14.8069)
(2.00748e-07 1.15902e-07 -14.8058)
(2.5045e-07 1.44597e-07 -14.8048)
(-2.16764e-08 -1.25148e-08 -14.8037)
(-1.05903e-06 -6.11429e-07 -14.9016)
(1.90093e-08 1.0975e-08 -14.8297)
(2.7133e-08 1.56652e-08 -14.8285)
(2.88989e-08 1.66848e-08 -14.8274)
(3.11815e-08 1.80026e-08 -14.8262)
(3.44625e-08 1.98969e-08 -14.825)
(3.87859e-08 2.2393e-08 -14.8238)
(4.41568e-08 2.54939e-08 -14.8226)
(5.05926e-08 2.92096e-08 -14.8215)
(5.81211e-08 3.35561e-08 -14.8203)
(6.67433e-08 3.85342e-08 -14.8192)
(7.64103e-08 4.41154e-08 -14.818)
(8.69875e-08 5.02221e-08 -14.8169)
(9.82096e-08 5.67012e-08 -14.8157)
(1.0962e-07 6.32892e-08 -14.8146)
(1.20522e-07 6.95833e-08 -14.8135)
(1.29935e-07 7.5018e-08 -14.8124)
(1.36622e-07 7.88786e-08 -14.8113)
(1.39325e-07 8.04389e-08 -14.8102)
(1.37807e-07 7.95626e-08 -14.8091)
(1.35889e-07 7.84552e-08 -14.808)
(1.49427e-07 8.62716e-08 -14.8069)
(2.00748e-07 1.15902e-07 -14.8058)
(2.5045e-07 1.44597e-07 -14.8048)
(-2.16764e-08 -1.25148e-08 -14.8037)
(-1.05903e-06 -6.11429e-07 -14.9016)
(-0.000388695 -0.000224413 -119.911)
(-0.00051877 -0.000299512 -119.276)
(-0.000489159 -0.000282416 -118.143)
(-0.000404142 -0.000233331 -116.366)
(-0.00032008 -0.000184798 -113.957)
(-0.000234011 -0.000135106 -110.939)
(-0.000149666 -8.64096e-05 -107.345)
(-6.70173e-05 -3.86924e-05 -103.219)
(1.08805e-05 6.28183e-06 -98.612)
(8.4401e-05 4.87289e-05 -93.5844)
(0.000150369 8.68157e-05 -88.2022)
(0.000210145 0.000121327 -82.5371)
(0.000260525 0.000150414 -76.6645)
(0.000303314 0.000175118 -70.6625)
(0.000335534 0.000193721 -64.6097)
(0.000359533 0.000207576 -58.5847)
(0.000372585 0.000215112 -52.6639)
(0.000377269 0.000217816 -46.9208)
(0.00037104 0.00021422 -41.4242)
(0.00035635 0.000205738 -36.2375)
(0.000330615 0.00019088 -31.4171)
(0.000295941 0.000170862 -27.0106)
(0.00024899 0.000143754 -23.0552)
(0.000184224 0.000106362 -19.578)
(-3.5331e-05 -2.03983e-05 -16.4809)
(-0.000328863 -0.000153159 -120.21)
(-0.000375383 -0.000167366 -119.582)
(-0.000358988 -0.000182316 -118.458)
(-0.000294157 -0.000160252 -116.685)
(-0.000230526 -0.000138368 -114.276)
(-0.000169124 -0.000100993 -111.255)
(-0.000110324 -6.48626e-05 -107.653)
(-5.392e-05 -2.27374e-05 -103.516)
(-6.8402e-09 1.07101e-05 -98.8951)
(5.02537e-05 4.66528e-05 -93.8501)
(9.64558e-05 7.08534e-05 -88.448)
(0.000137783 9.7718e-05 -82.7609)
(0.000173604 0.000112221 -76.8648)
(0.000203355 0.000129846 -70.8383)
(0.000226486 0.000135525 -64.7609)
(0.000243133 0.000144569 -58.7114)
(0.000252582 0.000142847 -52.7671)
(0.000255696 0.000144328 -47.0019)
(0.000251497 0.000136766 -41.4852)
(0.000241418 0.000131521 -36.2808)
(0.000224037 0.000118678 -31.4456)
(0.000201795 0.000105168 -27.0273)
(0.000171499 8.74671e-05 -23.0634)
(0.000123082 6.46012e-05 -19.5809)
(-9.48066e-05 -5.3349e-05 -16.4814)
(-0.000262636 -0.000337311 -119.862)
(-0.000326469 -0.000607722 -119.226)
(-0.000287896 -0.000533566 -118.092)
(-0.000231113 -0.000436152 -116.314)
(-0.00017576 -0.000339244 -113.905)
(-0.000123627 -0.000243969 -110.888)
(-7.44206e-05 -0.000148188 -107.295)
(-2.77425e-05 -5.69006e-05 -103.171)
(1.67798e-05 3.18787e-05 -98.5664)
(5.7727e-05 0.000113572 -93.5416)
(9.5446e-05 0.000190255 -88.1626)
(0.000128802 0.000257216 -82.501)
(0.00015759 0.000317179 -76.6322)
(0.000180922 0.000365482 -70.6339)
(0.000198872 0.000405453 -64.5851)
(0.000210934 0.000432602 -58.5639)
(0.000217264 0.000450747 -52.6468)
(0.000217687 0.000455435 -46.9071)
(0.000212526 0.000450411 -41.4136)
(0.000201528 0.000431253 -36.2297)
(0.000184941 0.000401041 -31.4116)
(0.000163252 0.000355471 -27.007)
(0.000136443 0.000295256 -23.053)
(9.24657e-05 0.000222426 -19.5769)
(-1.07025e-06 0.000158702 -16.4806)
(-0.000377654 -0.000218038 -120.143)
(-0.000585812 -0.000338218 -119.514)
(-0.00051562 -0.000297693 -118.387)
(-0.000418509 -0.000241626 -116.614)
(-0.000322905 -0.000186429 -114.205)
(-0.000230325 -0.000132978 -111.183)
(-0.000139439 -8.0505e-05 -107.584)
(-5.29691e-05 -3.05816e-05 -103.449)
(3.04727e-05 1.75934e-05 -98.8311)
(0.000107343 6.19746e-05 -93.79)
(0.000178933 0.000103307 -88.3924)
(0.00024182 0.000139615 -82.7102)
(0.000297352 0.000171676 -76.8194)
(0.000342294 0.000197623 -70.7984)
(0.000378549 0.000218555 -64.7266)
(0.000403195 0.000232784 -58.6826)
(0.000418518 0.000241631 -52.7437)
(0.00042175 0.000243497 -46.9835)
(0.000415375 0.000239816 -41.4714)
(0.00039648 0.000228907 -36.2711)
(0.000367189 0.000211996 -31.4392)
(0.000325076 0.000187682 -27.0236)
(0.000270795 0.000156343 -23.0616)
(0.000197518 0.000114037 -19.5803)
(9.75184e-05 5.63021e-05 -16.4813)
(0.000377554 0.00021798 -120.143)
(0.000585501 0.000338038 -119.514)
(0.000513262 0.000296331 -118.387)
(0.000417693 0.000241155 -116.614)
(0.000322676 0.000186297 -114.205)
(0.000230686 0.000133186 -111.183)
(0.000139921 8.07834e-05 -107.584)
(5.33454e-05 3.07989e-05 -103.449)
(-3.04475e-05 -1.75788e-05 -98.8311)
(-0.000107385 -6.19984e-05 -93.79)
(-0.000179326 -0.000103534 -88.3924)
(-0.000242212 -0.000139841 -82.7102)
(-0.000297978 -0.000172037 -76.8194)
(-0.00034274 -0.00019788 -70.7984)
(-0.000378995 -0.000218812 -64.7266)
(-0.000403318 -0.000232855 -58.6826)
(-0.000418488 -0.000241614 -52.7437)
(-0.000421502 -0.000243353 -46.9835)
(-0.000414865 -0.000239522 -41.4714)
(-0.00039586 -0.000228549 -36.2711)
(-0.000366329 -0.0002115 -31.4392)
(-0.000324142 -0.000187143 -27.0236)
(-0.000269022 -0.00015532 -23.0616)
(-0.000195469 -0.000112854 -19.5803)
(-9.74119e-05 -5.62407e-05 -16.4813)
(0.000419457 7.3469e-05 -119.862)
(0.000683894 -2.7726e-06 -119.226)
(0.000601915 -8.81161e-06 -118.092)
(0.000491519 -1.40315e-05 -116.314)
(0.000382573 -2.09355e-05 -113.905)
(0.000273214 -1.44053e-05 -110.888)
(0.000166275 -1.07937e-05 -107.295)
(6.18865e-05 9.54615e-07 -103.171)
(-3.68408e-05 4.70636e-06 -98.5664)
(-0.000129754 1.55775e-05 -93.5416)
(-0.000214076 1.73087e-05 -88.1626)
(-0.000289988 2.60309e-05 -82.501)
(-0.000354858 2.56454e-05 -76.6322)
(-0.000409287 3.30393e-05 -70.6339)
(-0.000451123 3.14771e-05 -64.5851)
(-0.000481455 3.78599e-05 -58.5639)
(-0.000498549 3.564e-05 -52.6468)
(-0.000503634 4.08384e-05 -46.9071)
(-0.000495119 3.79537e-05 -41.4136)
(-0.000473907 4.11789e-05 -36.2297)
(-0.000438235 3.67076e-05 -31.4116)
(-0.00038853 3.49449e-05 -27.007)
(-0.000321712 2.54308e-05 -23.053)
(-0.00023767 3.13724e-05 -19.5769)
(-0.000138226 8.50039e-05 -16.4806)
(0.000310569 0.000226341 -120.21)
(0.000348065 0.000261573 -119.582)
(0.000339705 0.000231345 -118.458)
(0.000285729 0.000179237 -116.685)
(0.000231214 0.000126901 -114.276)
(0.000171213 9.64309e-05 -111.255)
(0.00011055 6.19324e-05 -107.653)
(4.97501e-05 4.13696e-05 -103.516)
(-7.16907e-06 9.59839e-06 -98.8951)
(-6.03977e-05 -9.95533e-06 -93.8501)
(-0.000107076 -4.17254e-05 -88.448)
(-0.000148824 -5.96463e-05 -82.7609)
(-0.000182965 -8.90564e-05 -76.8648)
(-0.000211339 -0.000102402 -70.8383)
(-0.000231807 -0.000126099 -64.7609)
(-0.000246346 -0.000132636 -58.7114)
(-0.000253328 -0.000148192 -52.7671)
(-0.000254645 -0.000146703 -47.0019)
(-0.000248946 -0.000152443 -41.4852)
(-0.000237733 -0.000142625 -36.2808)
(-0.000219699 -0.000138392 -31.4456)
(-0.000195961 -0.000123317 -27.0273)
(-0.000166186 -0.000109682 -23.0634)
(-0.000120225 -7.39153e-05 -19.5809)
(9.26461e-05 6.19955e-05 -16.4814)
(0.000402279 0.000232256 -119.911)
(0.00053314 0.000307808 -119.276)
(0.000493742 0.000285062 -118.143)
(0.00040509 0.000233879 -116.366)
(0.000316887 0.000182955 -113.957)
(0.000233609 0.000134874 -110.939)
(0.000149015 8.60338e-05 -107.345)
(7.04801e-05 4.06917e-05 -103.219)
(-8.31245e-06 -4.79919e-06 -98.612)
(-7.85714e-05 -4.53632e-05 -93.5844)
(-0.000146943 -8.48375e-05 -88.2022)
(-0.000204371 -0.000117993 -82.5371)
(-0.000258269 -0.000149112 -76.6645)
(-0.000299173 -0.000172727 -70.6624)
(-0.000335374 -0.000193628 -64.6097)
(-0.000357633 -0.000206479 -58.5847)
(-0.000374584 -0.000216266 -52.6639)
(-0.000377528 -0.000217966 -46.9208)
(-0.00037452 -0.000216229 -41.4242)
(-0.00035789 -0.000206628 -36.2375)
(-0.000334375 -0.000193051 -31.4171)
(-0.000298484 -0.000172329 -27.0106)
(-0.000253059 -0.000146104 -23.0552)
(-0.000185584 -0.000107147 -19.578)
(3.67386e-05 2.1211e-05 -16.4809)
(0.00038036 0.0002196 -120.143)
(0.000585253 0.000337895 -119.514)
(0.000515597 0.000297679 -118.387)
(0.000417691 0.000241154 -116.614)
(0.000322724 0.000186324 -114.205)
(0.000230727 0.00013321 -111.183)
(0.000140341 8.10259e-05 -107.584)
(5.41219e-05 3.12472e-05 -103.449)
(-2.9167e-05 -1.68395e-05 -98.8311)
(-0.000105991 -6.11939e-05 -93.79)
(-0.000177462 -0.000102457 -88.3924)
(-0.000240464 -0.000138831 -82.7102)
(-0.000295979 -0.000170883 -76.8194)
(-0.000340899 -0.000196818 -70.7984)
(-0.000377149 -0.000217747 -64.7265)
(-0.000401543 -0.00023183 -58.6826)
(-0.000416972 -0.000240738 -52.7437)
(-0.000419882 -0.000242419 -46.9835)
(-0.000413645 -0.000238817 -41.4714)
(-0.000394185 -0.000227582 -36.2711)
(-0.000365143 -0.000210815 -31.4392)
(-0.000322339 -0.000186102 -27.0236)
(-0.000268298 -0.000154901 -23.0616)
(-0.000193128 -0.000111502 -19.5803)
(-9.37873e-05 -5.4148e-05 -16.4813)
(0.000245641 0.00035756 -119.862)
(0.000303094 0.000633228 -119.226)
(0.000272609 0.000548933 -118.092)
(0.000224991 0.000441979 -116.314)
(0.000176618 0.000337194 -113.905)
(0.00012598 0.000242461 -110.888)
(7.47977e-05 0.000148084 -107.295)
(2.49312e-05 6.1816e-05 -103.171)
(-2.24116e-05 -2.51782e-05 -98.5664)
(-6.53889e-05 -0.000103328 -93.5416)
(-0.000103741 -0.000180705 -88.1626)
(-0.00013712 -0.000246345 -82.501)
(-0.00016473 -0.000309051 -76.6322)
(-0.00018661 -0.000357465 -70.6339)
(-0.0002025 -0.000401112 -64.5851)
(-0.00021247 -0.000428905 -58.5639)
(-0.000216851 -0.000450609 -52.6468)
(-0.000215454 -0.000455687 -46.9071)
(-0.000209093 -0.000453245 -41.4136)
(-0.000196887 -0.000433831 -36.2297)
(-0.000179931 -0.000405154 -31.4116)
(-0.000156723 -0.000359926 -27.007)
(-0.000130235 -0.000300097 -23.053)
(-8.77144e-05 -0.000223736 -19.5769)
(1.2875e-06 -0.000155559 -16.4806)
(-0.000417049 -1.83947e-05 -119.862)
(-0.000683653 7.38901e-05 -119.226)
(-0.000603558 4.38315e-05 -118.092)
(-0.00049224 2.81044e-05 -116.314)
(-0.000383827 1.08936e-05 -113.905)
(-0.000272416 1.19643e-05 -110.888)
(-0.000166651 7.83843e-06 -107.295)
(-6.07095e-05 1.42262e-05 -103.171)
(3.64339e-05 9.55822e-06 -98.5664)
(0.000130877 1.29571e-05 -93.5416)
(0.000213438 3.2433e-06 -88.1626)
(0.00029105 3.35455e-06 -82.501)
(0.000354081 -9.77546e-06 -76.6322)
(0.000410419 -1.1633e-05 -70.6339)
(0.000450394 -2.58354e-05 -64.5851)
(0.000482757 -2.7903e-05 -58.5639)
(0.000497992 -4.07753e-05 -52.6468)
(0.000505059 -4.14553e-05 -46.9071)
(0.000494778 -5.0484e-05 -41.4136)
(0.000475477 -4.82467e-05 -36.2297)
(0.000438331 -5.18646e-05 -31.4116)
(0.000390078 -4.73446e-05 -27.007)
(0.00032206 -4.20876e-05 -23.053)
(0.000239509 -3.72211e-05 -19.5769)
(0.000139898 -7.71624e-05 -16.4806)
(-0.000360757 -0.000208283 -120.143)
(-0.000569007 -0.000328516 -119.514)
(-0.000505706 -0.000291969 -118.387)
(-0.000415316 -0.000239782 -116.614)
(-0.0003257 -0.000188043 -114.205)
(-0.000230783 -0.000133243 -111.183)
(-0.00014025 -8.0973e-05 -107.584)
(-4.86608e-05 -2.80942e-05 -103.449)
(3.44096e-05 1.98663e-05 -98.8311)
(0.000115348 6.65963e-05 -93.79)
(0.00018476 0.000106671 -88.3924)
(0.000250374 0.000144553 -82.7102)
(0.000302173 0.00017446 -76.8194)
(0.000349098 0.000201551 -70.7984)
(0.000380813 0.000219862 -64.7265)
(0.00040725 0.000235125 -58.6826)
(0.000417936 0.000241295 -52.7437)
(0.000423158 0.00024431 -46.9835)
(0.000412749 0.0002383 -41.4714)
(0.000396363 0.00022884 -36.2711)
(0.000364031 0.000210173 -31.4392)
(0.000323697 0.000186886 -27.0236)
(0.000266699 0.000153978 -23.0616)
(0.000197744 0.000114167 -19.5803)
(0.000102432 5.91392e-05 -16.4813)
)
;

boundaryField
{
    outletCentralUnloaded
    {
        type            zeroGradient;
    }
    inletCentralUnloaded
    {
        type            fixedValue;
        value           uniform (0 0 -15);
    }
    outletFuelElement
    {
        type            zeroGradient;
    }
    inletFuelElement
    {
        type            fixedValue;
        value           uniform (0 0 -15);
    }
    defaultFaces
    {
        type            slip;
    }
    baffle_master
    {
        type            slip;
    }
    baffle_slave
    {
        type            slip;
    }
}


// ************************************************************************* //
