/*--------------------------------*- C++ -*----------------------------------*\
| =========                 |                                                 |
| \\      /  F ield         | OpenFOAM: The Open Source CFD Toolbox           |
|  \\    /   O peration     | Version:  2212                                  |
|   \\  /    A nd           | Website:  www.openfoam.com                      |
|    \\/     M anipulation  |                                                 |
\*---------------------------------------------------------------------------*/
FoamFile
{
    version     2.0;
    format      ascii;
    arch        "LSB;label=32;scalar=64";
    class       surfaceScalarField;
    location    "55/fluidRegion";
    object      alphaPhi;
}
// * * * * * * * * * * * * * * * * * * * * * * * * * * * * * * * * * * * * * //

dimensions      [0 3 -1 0 0 0 0];

oriented        oriented;

internalField   nonuniform List<scalar> 
661
(
-0.000538962
5.687e-13
-0.000538922
6.50809e-13
-0.000538882
4.61657e-13
-0.00053884
2.06421e-13
-0.000538795
-4.10144e-14
-0.000538747
-2.55741e-13
-0.000538697
-4.2168e-13
-0.000538648
-5.27401e-13
-0.000538599
-5.81115e-13
-0.000538552
-5.77182e-13
-0.000538507
-5.2652e-13
-0.000538465
-4.30605e-13
-0.000538424
-2.87816e-13
-0.000538385
-1.18207e-13
-0.000538347
6.11213e-14
-0.00053831
2.17992e-13
-0.000538273
3.33986e-13
-0.000538235
3.95024e-13
-0.000538195
4.0439e-13
-0.000538153
3.76953e-13
-0.000538108
3.25519e-13
-0.000538059
2.61844e-13
-0.000538007
1.78689e-13
-0.000537954
-4.6935e-14
-4.76245e-13
-0.000538962
-0.000538922
-0.000538882
-0.00053884
-0.000538795
-0.000538747
-0.000538697
-0.000538648
-0.000538599
-0.000538552
-0.000538507
-0.000538465
-0.000538424
-0.000538385
-0.000538347
-0.00053831
-0.000538273
-0.000538235
-0.000538195
-0.000538153
-0.000538108
-0.000538059
-0.000538007
-0.000537954
-0.0202231
1.41334e-06
-0.0197956
6.72232e-07
-0.0192516
7.28519e-07
-0.0186002
6.55573e-07
-0.0178509
5.9344e-07
-0.0170137
5.35885e-07
-0.0160988
4.82579e-07
-0.0151167
4.30902e-07
-0.0140781
3.75104e-07
-0.0129942
3.05743e-07
-0.0118768
2.10957e-07
-0.0107388
7.91219e-08
-0.0095944
-9.32701e-08
-0.00845938
-2.92246e-07
-0.00735058
-4.95319e-07
-0.00628517
-6.68339e-07
-0.00527936
-7.846e-07
-0.00434729
-8.36996e-07
-0.00350055
-8.39305e-07
-0.00274887
-8.15847e-07
-0.00210097
-7.88642e-07
-0.00156621
-7.62878e-07
-0.00115531
-7.2778e-07
-0.000879351
-6.31705e-07
-6.01793e-07
-0.020353
-4.06171e-08
-3.63197e-08
-0.0199245
-1.76032e-07
-1.76302e-07
-0.0193784
-1.67077e-07
-1.6698e-07
-0.018724
-1.44668e-07
-1.44602e-07
-0.0179709
-1.25335e-07
-1.25237e-07
-0.0171292
-1.07469e-07
-1.07412e-07
-0.016209
-9.10756e-08
-9.11193e-08
-0.015221
-7.55024e-08
-7.56269e-08
-0.0141759
-5.9205e-08
-5.94835e-08
-0.0130849
-3.95199e-08
-4.00255e-08
-0.0119598
-1.27734e-08
-1.35104e-08
-0.0108137
2.45092e-08
2.34845e-08
-0.00966086
7.28092e-08
7.13593e-08
-0.00851705
1.33228e-07
1.31226e-07
-0.00739941
1.95661e-07
1.92964e-07
-0.00632535
2.50244e-07
2.46717e-07
-0.00531134
2.87957e-07
2.83436e-07
-0.00437176
3.0577e-07
3.0007e-07
-0.00351837
3.07603e-07
3.00418e-07
-0.00276099
3.00898e-07
2.92018e-07
-0.00210841
2.92597e-07
2.81508e-07
-0.00157007
2.82682e-07
2.69506e-07
-0.00115676
2.64917e-07
2.48617e-07
-0.000879546
2.11288e-07
1.94433e-07
1.61938e-07
1.49712e-07
-0.0202018
6.9328e-07
-0.0197746
6.5477e-07
-0.0192311
6.30272e-07
-0.0185802
5.61014e-07
-0.0178316
4.9902e-07
-0.0169952
4.41974e-07
-0.0160812
3.89077e-07
-0.0151001
3.37315e-07
-0.0140626
2.80222e-07
-0.0129798
2.07561e-07
-0.0118636
1.0655e-07
-0.010727
-3.33527e-08
-0.00958395
-2.14923e-07
-0.00845031
-4.2466e-07
-0.0073429
-6.3576e-07
-0.00627884
-8.12211e-07
-0.00527429
-9.26812e-07
-0.00434338
-9.73714e-07
-0.00349766
-9.68962e-07
-0.00274684
-9.38517e-07
-0.00209963
-9.04058e-07
-0.00156541
-8.69213e-07
-0.00115487
-8.11086e-07
-0.000879133
-6.74112e-07
-5.51174e-07
-0.0203241
3.3683e-09
-0.0198957
-4.23939e-11
-0.01935
1.91374e-10
-0.0186962
1.55186e-10
-0.017944
2.40571e-10
-0.0171032
2.9765e-10
-0.0161842
2.73248e-10
-0.0151974
3.03125e-10
-0.0141538
2.89801e-10
-0.0130643
2.14265e-10
-0.011941
1.93786e-10
-0.0107967
1.53472e-10
-0.00964573
9.00993e-11
-0.00850391
-5.47801e-11
-0.00738827
-2.96212e-10
-0.00631618
-6.34676e-10
-0.00530403
-1.00321e-09
-0.00436617
-1.35984e-09
-0.0035143
-1.81468e-09
-0.00275822
-2.2921e-09
-0.00210672
-2.77385e-09
-0.00156921
-3.32603e-09
-0.00115645
-4.04332e-09
-0.000879528
-3.90883e-09
-3.59655e-09
-0.0203241
-6.861e-07
-0.0198957
-6.54967e-07
-0.01935
-6.29731e-07
-0.0186962
-5.6051e-07
-0.017944
-4.98355e-07
-0.0171032
-4.41215e-07
-0.0161842
-3.88318e-07
-0.0151975
-3.36489e-07
-0.0141538
-2.79403e-07
-0.0130643
-2.0682e-07
-0.011941
-1.05824e-07
-0.0107967
3.40778e-08
-0.00964574
2.15563e-07
-0.00850392
4.25089e-07
-0.00738828
6.35821e-07
-0.00631618
8.11754e-07
-0.00530404
9.25781e-07
-0.00436618
9.72058e-07
-0.0035143
9.66418e-07
-0.00275823
9.34876e-07
-0.00210672
8.99025e-07
-0.00156921
8.62412e-07
-0.00115645
8.01767e-07
-0.000879529
6.64323e-07
5.40999e-07
-0.0202019
3.6433e-08
-0.0197746
1.76436e-07
-0.0192311
1.67041e-07
-0.0185802
1.44624e-07
-0.0178316
1.25342e-07
-0.0169952
1.07524e-07
-0.0160813
9.11716e-08
-0.0151001
7.56833e-08
-0.0140626
5.9452e-08
-0.0129798
3.98358e-08
-0.0118637
1.32009e-08
-0.010727
-2.3927e-08
-0.00958396
-7.19863e-08
-0.00845032
-1.32156e-07
-0.00734291
-1.94307e-07
-0.00627884
-2.48556e-07
-0.0052743
-2.85835e-07
-0.00434338
-3.03136e-07
-0.00349766
-3.04483e-07
-0.00274684
-2.97408e-07
-0.00209963
-2.88697e-07
-0.00156541
-2.78713e-07
-0.00115487
-2.61404e-07
-0.000879131
-2.0845e-07
-1.58862e-07
-0.020353
-1.41324e-06
-4.06769e-08
-0.0199245
-6.72105e-07
-1.7615e-07
-0.0193784
-7.28441e-07
-1.67195e-07
-0.018724
-6.55507e-07
-1.44776e-07
-0.0179709
-5.93301e-07
-1.25488e-07
-0.0171292
-5.35706e-07
-1.07699e-07
-0.016209
-4.8239e-07
-9.13779e-08
-0.015221
-4.30672e-07
-7.58929e-08
-0.0141759
-3.74891e-07
-5.96928e-08
-0.0130849
-3.05572e-07
-4.01168e-08
-0.0119598
-2.10784e-07
-1.35e-08
-0.0108137
-7.89582e-08
2.35921e-08
-0.00966086
9.3372e-08
7.17002e-08
-0.00851705
2.92188e-07
1.31951e-07
-0.00739941
4.94959e-07
1.94296e-07
-0.00632535
6.67495e-07
2.48942e-07
-0.00531134
7.8306e-07
2.86915e-07
-0.00437176
8.3433e-07
3.05318e-07
-0.00351837
8.34699e-07
3.08401e-07
-0.00276099
8.08039e-07
3.03952e-07
-0.00210841
7.75813e-07
2.99194e-07
-0.00157007
7.43189e-07
2.94265e-07
-0.00115676
6.97877e-07
2.82283e-07
-0.000879546
5.95142e-07
2.32557e-07
5.62506e-07
1.87626e-07
-0.0202231
-0.0197956
-0.0192516
-0.0186002
-0.0178509
-0.0170137
-0.0160988
-0.0151167
-0.0140781
-0.0129942
-0.0118768
-0.0107388
-0.0095944
-0.00845938
-0.00735058
-0.00628517
-0.00527936
-0.00434729
-0.00350055
-0.00274887
-0.00210097
-0.00156621
-0.00115531
-0.000879351
-0.0203241
-6.9306e-07
3.16609e-09
-0.0198957
-6.54502e-07
-2.91168e-10
-0.01935
-6.30029e-07
-1.15765e-11
-0.0186962
-5.60769e-07
-7.89818e-13
-0.017944
-4.98642e-07
-6.4925e-11
-0.0171032
-4.41476e-07
-1.25112e-10
-0.0161842
-3.88509e-07
-1.60668e-10
-0.0151974
-3.36611e-07
-2.50788e-10
-0.0141538
-2.794e-07
-3.33375e-10
-0.0130643
-2.06629e-07
-4.02683e-10
-0.011941
-1.05469e-07
-5.68572e-10
-0.0107967
3.46707e-08
-7.48425e-10
-0.00964573
2.16533e-07
-1.07421e-09
-0.00850391
4.26561e-07
-1.47191e-09
-0.00738827
6.37986e-07
-2.00078e-09
-0.00631618
8.14877e-07
-2.74752e-09
-0.00530403
9.30275e-07
-3.88325e-09
-0.00436617
9.78545e-07
-5.61345e-09
-0.0035143
9.7608e-07
-8.14026e-09
-0.00275822
9.49317e-07
-1.17999e-08
-0.00210672
9.21148e-07
-1.73485e-08
-0.00156921
8.94757e-07
-2.39768e-08
-0.00115645
8.47773e-07
-3.20753e-08
-0.000879527
7.20019e-07
-3.66457e-08
5.99496e-07
-3.76656e-08
-0.0202018
-0.0197746
-0.0192311
-0.0185802
-0.0178316
-0.0169952
-0.0160812
-0.0151001
-0.0140626
-0.0129798
-0.0118636
-0.010727
-0.00958395
-0.00845031
-0.0073429
-0.00627884
-0.00527429
-0.00434338
-0.00349766
-0.00274684
-0.00209963
-0.00156541
-0.00115487
-0.000879133
-0.0202019
6.86377e-07
-0.0197746
6.55288e-07
-0.0192311
6.2999e-07
-0.0185802
5.60751e-07
-0.0178316
4.98744e-07
-0.0169952
4.4169e-07
-0.0160813
3.88799e-07
-0.0151001
3.37063e-07
-0.0140626
2.79996e-07
-0.0129798
2.07378e-07
-0.0118637
1.06412e-07
-0.010727
-3.34857e-08
-0.00958396
-2.1487e-07
-0.00845032
-4.2441e-07
-0.00734291
-6.35222e-07
-0.00627884
-8.11292e-07
-0.0052743
-9.25419e-07
-0.00434338
-9.71903e-07
-0.00349766
-9.66922e-07
-0.00274684
-9.36923e-07
-0.00209963
-9.03961e-07
-0.00156541
-8.72401e-07
-0.00115487
-8.19878e-07
-0.000879131
-6.89581e-07
-5.69149e-07
-0.0203241
-0.0198957
-0.01935
-0.0186962
-0.017944
-0.0171032
-0.0161842
-0.0151975
-0.0141538
-0.0130643
-0.011941
-0.0107967
-0.00964574
-0.00850392
-0.00738828
-0.00631618
-0.00530404
-0.00436618
-0.0035143
-0.00275823
-0.00210672
-0.00156921
-0.00115645
-0.00087953
)
;

boundaryField
{
    outletCentralUnloaded
    {
        type            calculated;
        value           nonuniform List<scalar> 2(0.000539003 0.000539003);
    }
    inletCentralUnloaded
    {
        type            calculated;
        value           uniform -0.000540134;
    }
    outletFuelElement
    {
        type            calculated;
        value           nonuniform List<scalar> 
12
(
0.0205635
0.0206966
0.0205427
0.0206668
0.0206669
0.0205427
0.0206966
0.0205635
0.0206668
0.0205427
0.0205427
0.0206669
)
;
    }
    inletFuelElement
    {
        type            calculated;
        value           nonuniform List<scalar> 
12
(
-0.000722059
-0.00072206
-0.000722059
-0.000722059
-0.00072206
-0.000722059
-0.00072206
-0.000722059
-0.000722059
-0.000722059
-0.000722059
-0.00072206
)
;
    }
    defaultFaces
    {
        type            calculated;
        value           nonuniform List<scalar> 
450
(
2.29438e-23
-5.20094e-23
0
1.2141e-23
-7.98984e-24
0
3.03639e-23
9.48533e-24
0
-4.62322e-23
-1.97153e-23
0
-1.88456e-23
-4.47143e-23
0
-3.3835e-23
-9.53892e-24
0
-2.73648e-23
-1.53011e-23
0
-2.53245e-23
-1.58821e-23
0
-1.68844e-23
-1.04474e-23
0
-2.33272e-23
-1.04297e-23
0
-1.10048e-23
-5.36365e-24
0
-6.23046e-24
-2.81867e-24
0
5.06563e-24
2.3144e-24
0
2.09684e-23
1.22736e-23
0
3.83183e-23
1.53661e-23
0
4.77787e-23
2.06717e-23
0
4.31669e-23
1.36277e-23
0
4.44027e-23
2.77635e-23
0
3.23868e-23
-4.03441e-23
0
-1.6863e-23
-1.28441e-23
0
-2.85404e-23
-1.60066e-23
0
3.31626e-23
-1.75376e-23
0
-2.14441e-23
-6.61611e-24
0
-2.43735e-23
-2.74879e-23
0
-6.54341e-24
-1.95602e-23
0
2.60738e-23
0
2.40681e-23
0
-1.60454e-23
0
8.0227e-24
0
-8.0227e-24
0
8.0227e-24
0
1.60454e-23
0
1.60454e-23
0
-6.01702e-24
0
6.01702e-24
0
2.00567e-24
0
0
0
-4.01135e-24
0
-1.60454e-23
0
-2.40681e-23
0
-1.60454e-23
0
3.20908e-23
0
-1.60454e-23
0
1.60454e-23
0
-4.81362e-23
0
-1.60454e-23
0
4.01135e-23
0
8.0227e-24
0
-1.60454e-23
0
-1.60454e-23
0
0
-1.60454e-23
0
0
1.60454e-23
-8.0227e-24
-8.0227e-24
0
1.2034e-23
-4.01135e-24
-2.00567e-24
0
4.01135e-24
8.0227e-24
8.0227e-24
0
-4.81362e-23
0
-1.60454e-23
0
0
-4.81362e-23
-3.20908e-23
1.60454e-23
8.0227e-24
0
0
0
0
0
0
0
0
0
0
0
0
0
0
0
0
0
0
0
0
0
0
0
0
0
-2.40681e-23
2.40681e-23
8.0227e-24
2.40681e-23
2.40681e-23
4.01135e-23
-1.60454e-23
-1.60454e-23
1.60454e-23
-8.0227e-24
-1.60454e-23
-8.0227e-24
-1.2034e-23
-8.0227e-24
-8.0227e-24
-1.2034e-23
1.80511e-23
-8.0227e-24
-4.01135e-24
-2.00567e-24
-1.50426e-24
-3.00851e-24
1.00284e-24
2.13103e-24
1.00284e-23
6.01702e-24
1.2034e-23
1.2034e-23
1.60454e-23
1.2034e-23
1.60454e-23
8.0227e-24
-1.60454e-23
4.01135e-23
1.60454e-23
1.60454e-23
-6.41816e-23
4.81362e-23
-3.20908e-23
-4.01135e-23
0
-2.40681e-23
-4.01135e-23
4.01135e-23
-1.60454e-23
-2.40681e-23
0
-2.00567e-23
-1.60454e-23
-2.00567e-23
2.79754e-23
0
0
7.18705e-24
0
0
3.89128e-23
0
-6.41816e-23
-5.76065e-23
0
8.0227e-24
1.70589e-23
0
-8.0227e-24
-4.44425e-23
0
8.0227e-24
-4.48815e-23
0
8.0227e-24
-3.13325e-23
0
0
-1.47573e-23
0
-1.60454e-23
-2.38745e-23
0
4.01135e-24
-2.05768e-23
0
0
-6.57788e-24
0
0
7.16652e-24
-0
-2.00567e-24
2.51054e-23
-0
-4.01135e-24
5.18904e-23
-0
0
6.58577e-23
-0
-2.40681e-23
3.00904e-23
-0
0
7.77045e-23
-0
0
2.66292e-23
-0
-4.81362e-23
-2.38902e-23
-0
1.60454e-23
-3.58877e-24
-0
1.60454e-23
4.13471e-23
-0
1.60454e-23
-2.33672e-23
-0
0
-1.20753e-23
-0
8.0227e-24
-1.25148e-23
-0
1.60454e-23
0
-1.60454e-23
-8.0227e-24
-1.60454e-23
8.0227e-24
0
-8.0227e-24
-1.2034e-23
0
-8.0227e-24
-2.00567e-24
1.00284e-24
4.01135e-24
0
0
1.60454e-23
-4.81362e-23
3.20908e-23
-4.81362e-23
0
-1.60454e-23
-4.81362e-23
-1.60454e-23
0
0
2.40681e-23
0
1.60454e-23
0
8.0227e-24
0
2.40681e-23
0
-8.0227e-24
0
2.00567e-23
0
1.2034e-23
0
1.60454e-23
0
-2.00567e-24
0
6.01702e-24
0
4.51277e-24
0
-1.00284e-24
0
-1.00284e-23
-0
-1.2034e-23
-0
-8.0227e-24
-0
-4.01135e-23
-0
6.41816e-23
-0
-3.20908e-23
-0
4.81362e-23
-0
-4.81362e-23
-0
-4.81362e-23
-0
3.20908e-23
-0
1.60454e-23
-0
-4.01135e-23
-0
-2.40681e-23
-0
-2.00567e-23
1.60454e-23
-1.60454e-23
1.60454e-23
-1.60454e-23
1.60454e-23
-8.0227e-24
-4.01135e-23
0
1.60454e-23
-8.0227e-24
-3.61021e-23
-1.2034e-23
-2.80794e-23
-1.2034e-23
-2.00567e-23
4.01135e-24
-1.2034e-23
-6.01702e-24
-1.2034e-23
-3.50993e-24
-6.01702e-24
1.00284e-24
4.63812e-24
2.00567e-24
1.60454e-23
1.2034e-23
3.61021e-23
8.0227e-24
4.81362e-23
3.20908e-23
6.41816e-23
8.0227e-24
4.81362e-23
3.20908e-23
8.82497e-23
0
4.01135e-23
0
-3.20908e-23
-8.0227e-24
-3.20908e-23
8.0227e-24
4.81362e-23
2.40681e-23
-3.20908e-23
0
-1.60454e-23
0
-1.60454e-23
-0
-0
-0
-0
-0
-0
-0
-0
-0
-0
-0
0
0
0
0
0
0
0
0
0
0
0
0
0
0
)
;
    }
    baffle_master
    {
        type            calculated;
        value           nonuniform List<scalar> 
150
(
4.00043e-30
0
0
-2.29585e-30
0
0
-2.89032e-30
0
-5.72334e-30
-7.27917e-31
0
0
-2.11605e-30
0
-2.14625e-30
9.29456e-31
0
0
2.17018e-30
0
0
-2.6154e-30
0
0
8.73256e-30
0
0
-1.65012e-31
0
0
2.93499e-30
0
0
4.94398e-30
0
5.72334e-30
3.51087e-30
0
0
4.99726e-31
0
0
1.13967e-31
0
0
1.35742e-30
0
-2.86167e-30
-3.45257e-29
0
-1.717e-29
3.59274e-30
0
5.72334e-30
-2.97982e-29
0
-1.14467e-29
2.49593e-30
0
-1.14467e-29
-3.11576e-31
0
0
1.20488e-29
0
1.14467e-29
-1.0454e-30
0
2.86167e-30
2.59202e-31
0
0
3.19628e-30
0
5.72334e-30
0
1.70097e-29
-0
0
1.90878e-29
-0
-5.72334e-30
9.50504e-30
-0
0
4.93627e-30
-0
7.15418e-31
1.65325e-30
0
0
-9.5024e-30
0
5.72334e-30
-1.74478e-29
0
-1.14467e-29
-1.90642e-29
0
-2.28934e-29
-1.22043e-29
0
1.14467e-29
-2.25624e-29
0
0
-2.22965e-29
0
1.14467e-29
-2.33377e-29
0
5.72334e-30
-5.86786e-30
0
2.86167e-30
-4.03243e-30
0
-1.43084e-30
2.0359e-30
-0
-2.86167e-30
4.86523e-30
-0
5.72334e-30
1.0102e-29
-0
-1.14467e-29
1.91163e-29
-0
1.14467e-29
3.49504e-30
-0
-5.72334e-30
-9.43039e-30
-0
0
-8.00596e-30
-0
1.14467e-29
-1.72287e-29
-0
5.72334e-30
5.8708e-30
-0
0
1.40372e-30
0
5.72334e-30
7.15924e-30
0
)
;
    }
    baffle_slave
    {
        type            calculated;
        value           nonuniform List<scalar> 
150
(
1.12819e-23
-0
0
6.18155e-24
-0
1.60454e-23
-9.19006e-24
-0
1.60454e-23
-1.38086e-24
-0
-8.0227e-24
-3.21065e-23
-0
-1.60454e-23
3.23572e-24
-0
-8.0227e-24
2.50905e-24
-0
8.0227e-24
-5.56261e-24
-0
0
-4.30907e-25
-0
0
-1.56693e-26
-0
-4.01135e-24
-1.62961e-24
-0
0
9.4016e-26
0
0
2.50709e-25
0
0
-3.76064e-25
0
8.0227e-24
0
0
0
7.52128e-25
0
-1.60454e-23
-4.72587e-23
0
-4.81362e-23
1.75497e-24
0
-1.60454e-23
-2.98344e-23
0
-3.20908e-23
2.50709e-25
0
-1.60454e-23
-2.00567e-24
0
-1.60454e-23
3.00851e-23
0
4.81362e-23
2.50709e-24
0
0
-3.50993e-24
0
-8.0227e-24
2.00567e-24
0
-8.0227e-24
-5.07662e-24
4.95151e-23
0
-1.005e-23
2.20154e-23
0
-6.35826e-24
1.6774e-23
0
6.66972e-24
2.05268e-23
0
1.06256e-24
-3.73322e-23
0
-6.91111e-24
1.61159e-23
0
2.43459e-24
8.51628e-24
0
-8.59159e-24
1.58574e-23
0
9.35927e-24
7.63097e-24
0
-2.96254e-24
1.1517e-23
0
-7.08326e-25
6.25206e-24
0
3.68774e-25
3.49426e-24
0
3.42506e-24
-8.46144e-25
0
2.08962e-24
-6.08754e-24
0
2.06791e-23
-1.02996e-23
0
1.97531e-24
-1.1846e-23
0
-2.634e-23
-1.92106e-23
0
1.94202e-23
-2.18117e-23
0
-1.07003e-23
2.7578e-24
0
-1.93898e-24
1.22848e-23
0
-1.56679e-23
1.75497e-23
0
-3.50689e-23
2.20624e-23
0
-1.66499e-23
-1.90539e-23
0
1.16313e-23
7.01986e-24
0
5.45289e-24
1.00284e-23
0
)
;
    }
}


// ************************************************************************* //
