/*--------------------------------*- C++ -*----------------------------------*\
| =========                 |                                                 |
| \\      /  F ield         | OpenFOAM: The Open Source CFD Toolbox           |
|  \\    /   O peration     | Version:  2212                                  |
|   \\  /    A nd           | Website:  www.openfoam.com                      |
|    \\/     M anipulation  |                                                 |
\*---------------------------------------------------------------------------*/
FoamFile
{
    version     2.0;
    format      ascii;
    arch        "LSB;label=32;scalar=64";
    class       volScalarField;
    location    "55/fluidRegion";
    object      epsilon;
}
// * * * * * * * * * * * * * * * * * * * * * * * * * * * * * * * * * * * * * //

dimensions      [0 2 -3 0 0 0 0];

internalField   nonuniform List<scalar> 
350
(
66.9835
66.9671
66.951
66.9349
66.9189
66.9028
66.8865
66.8701
66.8537
66.8374
66.8215
66.8062
66.7915
66.7779
66.766
66.7564
66.7505
66.7503
66.7586
66.7801
66.8218
66.8943
67.0138
67.2053
67.5066
66.9835
66.9671
66.951
66.9349
66.9189
66.9028
66.8865
66.8701
66.8537
66.8374
66.8215
66.8062
66.7915
66.7779
66.766
66.7564
66.7505
66.7503
66.7586
66.7801
66.8218
66.8943
67.0138
67.2053
67.5066
7.64733e+06
7.03775e+06
6.36294e+06
5.64407e+06
4.90897e+06
4.1832e+06
3.48891e+06
2.84414e+06
2.26239e+06
1.75252e+06
1.31887e+06
961561
677076
458866
298182
185020
109111
60829.9
31871.9
15612.7
7149.85
3116.79
1385.63
735.656
547.136
7.81287e+06
7.19155e+06
6.50366e+06
5.77024e+06
5.01985e+06
4.27859e+06
3.56918e+06
2.91009e+06
2.31519e+06
1.79361e+06
1.34983e+06
984082
692807
469363
304836
189003
111345
61993
32427
15851
7239.42
3145.14
1392.81
737.1
547.559
7.62025e+06
7.01252e+06
6.33997e+06
5.62354e+06
4.89101e+06
4.1678e+06
3.476e+06
2.83357e+06
2.25396e+06
1.74599e+06
1.31396e+06
958001
674597
457215
297136
184394
108760
60646
31783.3
15573.9
7134.63
3111.53
1384
735.166
546.96
7.7762e+06
7.15742e+06
6.47234e+06
5.7421e+06
4.99506e+06
4.25722e+06
3.55115e+06
2.89525e+06
2.30329e+06
1.78432e+06
1.34282e+06
978971
689230
466971
303318
188093
110834
61726.8
32300
15796.5
7218.99
3138.72
1391.22
736.801
547.48
7.7762e+06
7.15742e+06
6.47234e+06
5.7421e+06
4.99506e+06
4.25722e+06
3.55115e+06
2.89525e+06
2.30329e+06
1.78432e+06
1.34282e+06
978971
689230
466971
303318
188093
110834
61726.8
32300
15796.5
7218.99
3138.72
1391.22
736.801
547.48
7.62026e+06
7.01254e+06
6.33998e+06
5.62355e+06
4.89101e+06
4.16781e+06
3.47601e+06
2.83358e+06
2.25397e+06
1.74599e+06
1.31396e+06
958003
674598
457215
297136
184395
108760
60646
31783.3
15573.9
7134.61
3111.51
1383.99
735.162
546.959
7.81287e+06
7.19155e+06
6.50366e+06
5.77024e+06
5.01985e+06
4.27859e+06
3.56918e+06
2.91009e+06
2.31519e+06
1.79361e+06
1.34983e+06
984082
692807
469363
304836
189003
111345
61993
32427
15851
7239.42
3145.14
1392.81
737.1
547.559
7.64733e+06
7.03775e+06
6.36294e+06
5.64407e+06
4.90897e+06
4.1832e+06
3.48891e+06
2.84414e+06
2.26239e+06
1.75252e+06
1.31887e+06
961561
677076
458866
298182
185020
109111
60829.9
31871.9
15612.7
7149.83
3116.79
1385.63
735.654
547.135
7.7762e+06
7.15742e+06
6.47234e+06
5.7421e+06
4.99506e+06
4.25722e+06
3.55115e+06
2.89525e+06
2.30328e+06
1.78432e+06
1.34282e+06
978971
689230
466971
303318
188093
110834
61726.8
32300
15796.5
7218.99
3138.72
1391.22
736.8
547.479
7.62025e+06
7.01253e+06
6.33997e+06
5.62354e+06
4.89101e+06
4.1678e+06
3.476e+06
2.83357e+06
2.25396e+06
1.74599e+06
1.31396e+06
958002
674597
457215
297136
184395
108760
60646.1
31783.3
15573.9
7134.66
3111.54
1384.01
735.172
546.963
7.62026e+06
7.01253e+06
6.33998e+06
5.62355e+06
4.89101e+06
4.16781e+06
3.47601e+06
2.83358e+06
2.25397e+06
1.74599e+06
1.31396e+06
958002
674598
457215
297136
184394
108760
60645.9
31783.2
15573.8
7134.6
3111.51
1383.99
735.163
546.959
7.7762e+06
7.15742e+06
6.47234e+06
5.7421e+06
4.99506e+06
4.25722e+06
3.55115e+06
2.89525e+06
2.30328e+06
1.78432e+06
1.34282e+06
978970
689229
466971
303318
188093
110834
61726.8
32299.9
15796.5
7218.97
3138.71
1391.21
736.797
547.478
)
;

boundaryField
{
    outletCentralUnloaded
    {
        type            zeroGradient;
    }
    inletCentralUnloaded
    {
        type            zeroGradient;
    }
    outletFuelElement
    {
        type            zeroGradient;
    }
    inletFuelElement
    {
        type            zeroGradient;
    }
    defaultFaces
    {
        type            zeroGradient;
    }
    baffle_master
    {
        type            zeroGradient;
    }
    baffle_slave
    {
        type            zeroGradient;
    }
}


// ************************************************************************* //
