/*--------------------------------*- C++ -*----------------------------------*\
| =========                 |                                                 |
| \\      /  F ield         | OpenFOAM: The Open Source CFD Toolbox           |
|  \\    /   O peration     | Version:  2212                                  |
|   \\  /    A nd           | Website:  www.openfoam.com                      |
|    \\/     M anipulation  |                                                 |
\*---------------------------------------------------------------------------*/
FoamFile
{
    version     2.0;
    format      ascii;
    arch        "LSB;label=32;scalar=64";
    class       volScalarField;
    location    "55/fluidRegion";
    object      nut;
}
// * * * * * * * * * * * * * * * * * * * * * * * * * * * * * * * * * * * * * //

dimensions      [0 2 -1 0 0 0 0];

internalField   nonuniform List<scalar> 
350
(
0.00053761
0.000537567
0.000537523
0.000537478
0.000537431
0.000537383
0.000537335
0.000537288
0.000537242
0.000537198
0.000537156
0.000537117
0.000537081
0.00053705
0.000537023
0.000537002
0.000536991
0.000536993
0.000537015
0.000537068
0.000537169
0.000537346
0.000537642
0.00053812
0.000539499
0.00053761
0.000537567
0.000537523
0.000537478
0.000537431
0.000537383
0.000537335
0.000537288
0.000537242
0.000537198
0.000537156
0.000537117
0.000537081
0.00053705
0.000537023
0.000537002
0.000536991
0.000536993
0.000537015
0.000537068
0.000537169
0.000537346
0.000537642
0.00053812
0.000539499
0.0104187
0.0101995
0.00992806
0.00960077
0.00922253
0.00879852
0.00833407
0.00783468
0.007306
0.00675388
0.00618449
0.0056044
0.00502075
0.00444129
0.00387429
0.00332823
0.00281129
0.00233084
0.00189311
0.00150332
0.00116608
0.000885843
0.000666867
0.000511759
0.000416366
0.010486
0.0102657
0.00999333
0.00966457
0.00928445
0.00885816
0.00839106
0.00788869
0.00735671
0.00680101
0.00622776
0.00564358
0.00505563
0.00447173
0.00390026
0.00334979
0.00282865
0.00234431
0.00190311
0.00151032
0.00117059
0.000888402
0.000668055
0.00051214
0.000416432
0.0104078
0.0101886
0.0099174
0.00959038
0.00921248
0.00878887
0.00832488
0.007826
0.00729787
0.00674636
0.0061776
0.00559818
0.00501522
0.00443647
0.00387018
0.00332482
0.00280853
0.00232868
0.00189149
0.00150216
0.0011653
0.000885353
0.000666585
0.00051161
0.000416316
0.0104711
0.010251
0.00997884
0.00965038
0.00927064
0.00884483
0.0083783
0.00787657
0.00734531
0.0067904
0.006218
0.00563472
0.00504773
0.00446482
0.00389435
0.00334489
0.0028247
0.00234124
0.00190083
0.00150873
0.00116957
0.000887826
0.000667793
0.000512064
0.000416423
0.0104711
0.010251
0.00997884
0.00965038
0.00927064
0.00884483
0.0083783
0.00787657
0.00734531
0.0067904
0.006218
0.00563472
0.00504773
0.00446482
0.00389435
0.00334489
0.0028247
0.00234124
0.00190083
0.00150873
0.00116957
0.000887826
0.000667793
0.000512064
0.000416423
0.0104078
0.0101886
0.0099174
0.00959039
0.00921249
0.00878888
0.00832489
0.007826
0.00729788
0.00674636
0.0061776
0.00559818
0.00501523
0.00443647
0.00387019
0.00332482
0.00280853
0.00232868
0.00189149
0.00150216
0.0011653
0.000885353
0.000666584
0.000511609
0.000416316
0.010486
0.0102657
0.00999333
0.00966457
0.00928445
0.00885816
0.00839106
0.00788869
0.00735671
0.00680101
0.00622776
0.00564358
0.00505563
0.00447173
0.00390026
0.00334979
0.00282865
0.00234431
0.00190311
0.00151032
0.00117059
0.000888402
0.000668055
0.00051214
0.000416432
0.0104187
0.0101995
0.00992806
0.00960077
0.00922253
0.00879852
0.00833407
0.00783468
0.007306
0.00675388
0.00618449
0.0056044
0.00502075
0.00444129
0.00387429
0.00332823
0.00281129
0.00233084
0.00189311
0.00150332
0.00116608
0.000885843
0.000666867
0.000511759
0.000416366
0.0104711
0.010251
0.00997884
0.00965038
0.00927064
0.00884483
0.0083783
0.00787657
0.00734531
0.0067904
0.006218
0.00563472
0.00504773
0.00446482
0.00389435
0.00334489
0.0028247
0.00234124
0.00190083
0.00150873
0.00116957
0.000887826
0.000667793
0.000512064
0.000416423
0.0104078
0.0101886
0.0099174
0.00959038
0.00921248
0.00878887
0.00832488
0.007826
0.00729787
0.00674636
0.0061776
0.00559818
0.00501523
0.00443647
0.00387018
0.00332482
0.00280853
0.00232868
0.00189149
0.00150216
0.0011653
0.000885353
0.000666584
0.00051161
0.000416316
0.0104078
0.0101886
0.0099174
0.00959039
0.00921249
0.00878888
0.00832489
0.007826
0.00729788
0.00674636
0.0061776
0.00559818
0.00501523
0.00443647
0.00387019
0.00332482
0.00280853
0.00232868
0.00189149
0.00150216
0.0011653
0.000885353
0.000666584
0.000511609
0.000416316
0.0104711
0.010251
0.00997884
0.00965038
0.00927064
0.00884483
0.0083783
0.00787657
0.00734531
0.0067904
0.006218
0.00563472
0.00504773
0.00446482
0.00389435
0.00334489
0.0028247
0.00234124
0.00190083
0.00150873
0.00116957
0.000887826
0.000667794
0.000512064
0.000416423
)
;

boundaryField
{
    outletCentralUnloaded
    {
        type            zeroGradient;
    }
    inletCentralUnloaded
    {
        type            zeroGradient;
    }
    outletFuelElement
    {
        type            zeroGradient;
    }
    inletFuelElement
    {
        type            zeroGradient;
    }
    defaultFaces
    {
        type            zeroGradient;
    }
    baffle_master
    {
        type            calculated;
        value           nonuniform List<scalar> 
150
(
0.00053761
0.00053761
0.00053761
0.000537567
0.000537567
0.000537567
0.000537523
0.000537523
0.000537523
0.000537478
0.000537478
0.000537478
0.000537431
0.000537431
0.000537431
0.000537383
0.000537383
0.000537383
0.000537335
0.000537335
0.000537335
0.000537288
0.000537288
0.000537288
0.000537242
0.000537242
0.000537242
0.000537198
0.000537198
0.000537198
0.000537156
0.000537156
0.000537156
0.000537117
0.000537117
0.000537117
0.000537081
0.000537081
0.000537081
0.00053705
0.00053705
0.00053705
0.000537023
0.000537023
0.000537023
0.000537002
0.000537002
0.000537002
0.000536991
0.000536991
0.000536991
0.000536993
0.000536993
0.000536993
0.000537015
0.000537015
0.000537015
0.000537068
0.000537068
0.000537068
0.000537169
0.000537169
0.000537169
0.000537346
0.000537346
0.000537346
0.000537642
0.000537642
0.000537642
0.00053812
0.00053812
0.00053812
0.000539499
0.000539499
0.000539499
0.00053761
0.00053761
0.00053761
0.000537567
0.000537567
0.000537567
0.000537523
0.000537523
0.000537523
0.000537478
0.000537478
0.000537478
0.000537431
0.000537431
0.000537431
0.000537383
0.000537383
0.000537383
0.000537335
0.000537335
0.000537335
0.000537288
0.000537288
0.000537288
0.000537242
0.000537242
0.000537242
0.000537198
0.000537198
0.000537198
0.000537156
0.000537156
0.000537156
0.000537117
0.000537117
0.000537117
0.000537081
0.000537081
0.000537081
0.00053705
0.00053705
0.00053705
0.000537023
0.000537023
0.000537023
0.000537002
0.000537002
0.000537002
0.000536991
0.000536991
0.000536991
0.000536993
0.000536993
0.000536993
0.000537015
0.000537015
0.000537015
0.000537068
0.000537068
0.000537068
0.000537169
0.000537169
0.000537169
0.000537346
0.000537346
0.000537346
0.000537642
0.000537642
0.000537642
0.00053812
0.00053812
0.00053812
0.000539499
0.000539499
0.000539499
)
;
    }
    baffle_slave
    {
        type            calculated;
        value           nonuniform List<scalar> 
150
(
0.010486
0.0104711
0.0104711
0.0102657
0.010251
0.010251
0.00999333
0.00997884
0.00997884
0.00966457
0.00965038
0.00965038
0.00928445
0.00927064
0.00927064
0.00885816
0.00884483
0.00884483
0.00839106
0.0083783
0.0083783
0.00788869
0.00787657
0.00787657
0.00735671
0.00734531
0.00734531
0.00680101
0.0067904
0.0067904
0.00622776
0.006218
0.006218
0.00564358
0.00563472
0.00563472
0.00505563
0.00504773
0.00504773
0.00447173
0.00446482
0.00446482
0.00390026
0.00389435
0.00389435
0.00334979
0.00334489
0.00334489
0.00282865
0.0028247
0.0028247
0.00234431
0.00234124
0.00234124
0.00190311
0.00190083
0.00190083
0.00151032
0.00150873
0.00150873
0.00117059
0.00116957
0.00116957
0.000888402
0.000887826
0.000887826
0.000668055
0.000667793
0.000667794
0.00051214
0.000512064
0.000512064
0.000416432
0.000416423
0.000416423
0.0104711
0.010486
0.0104711
0.010251
0.0102657
0.010251
0.00997884
0.00999333
0.00997884
0.00965038
0.00966457
0.00965038
0.00927064
0.00928445
0.00927064
0.00884483
0.00885816
0.00884483
0.0083783
0.00839106
0.0083783
0.00787657
0.00788869
0.00787657
0.00734531
0.00735671
0.00734531
0.0067904
0.00680101
0.0067904
0.006218
0.00622776
0.006218
0.00563472
0.00564358
0.00563472
0.00504773
0.00505563
0.00504773
0.00446482
0.00447173
0.00446482
0.00389435
0.00390026
0.00389435
0.00334489
0.00334979
0.00334489
0.0028247
0.00282865
0.0028247
0.00234124
0.00234431
0.00234124
0.00190083
0.00190311
0.00190083
0.00150873
0.00151032
0.00150873
0.00116957
0.00117059
0.00116957
0.000887826
0.000888402
0.000887826
0.000667793
0.000668055
0.000667793
0.000512064
0.00051214
0.000512064
0.000416423
0.000416432
0.000416423
)
;
    }
}


// ************************************************************************* //
