/*--------------------------------*- C++ -*----------------------------------*\
| =========                 |                                                 |
| \\      /  F ield         | OpenFOAM: The Open Source CFD Toolbox           |
|  \\    /   O peration     | Version:  2212                                  |
|   \\  /    A nd           | Website:  www.openfoam.com                      |
|    \\/     M anipulation  |                                                 |
\*---------------------------------------------------------------------------*/
FoamFile
{
    version     2.0;
    format      ascii;
    arch        "LSB;label=32;scalar=64";
    class       volScalarField;
    location    "55/fluidRegion";
    object      p;
}
// * * * * * * * * * * * * * * * * * * * * * * * * * * * * * * * * * * * * * //

dimensions      [1 -1 -2 0 0 0 0];

internalField   nonuniform List<scalar> 
350
(
3.44743e+06
3.44772e+06
3.44802e+06
3.44831e+06
3.44861e+06
3.4489e+06
3.4492e+06
3.44949e+06
3.44979e+06
3.45009e+06
3.45038e+06
3.45068e+06
3.45098e+06
3.45127e+06
3.45157e+06
3.45186e+06
3.45216e+06
3.45245e+06
3.45275e+06
3.45304e+06
3.45334e+06
3.45364e+06
3.45393e+06
3.45422e+06
3.45451e+06
3.44743e+06
3.44772e+06
3.44802e+06
3.44831e+06
3.44861e+06
3.4489e+06
3.4492e+06
3.44949e+06
3.44979e+06
3.45009e+06
3.45038e+06
3.45068e+06
3.45098e+06
3.45127e+06
3.45157e+06
3.45186e+06
3.45216e+06
3.45245e+06
3.45275e+06
3.45304e+06
3.45334e+06
3.45364e+06
3.45393e+06
3.45422e+06
3.45451e+06
3.47384e+06
3.52566e+06
3.57687e+06
3.62717e+06
3.67624e+06
3.72381e+06
3.76961e+06
3.8134e+06
3.85499e+06
3.89418e+06
3.93081e+06
3.96475e+06
3.99588e+06
4.02412e+06
4.04944e+06
4.07182e+06
4.09131e+06
4.108e+06
4.12203e+06
4.13358e+06
4.14284e+06
4.15004e+06
4.15542e+06
4.15928e+06
4.16195e+06
3.47384e+06
3.52566e+06
3.57687e+06
3.62717e+06
3.67624e+06
3.72381e+06
3.76961e+06
3.8134e+06
3.85499e+06
3.89418e+06
3.93081e+06
3.96475e+06
3.99588e+06
4.02412e+06
4.04944e+06
4.07182e+06
4.09131e+06
4.108e+06
4.12203e+06
4.13358e+06
4.14284e+06
4.15004e+06
4.15542e+06
4.15928e+06
4.16195e+06
3.47384e+06
3.52566e+06
3.57687e+06
3.62717e+06
3.67624e+06
3.72381e+06
3.76961e+06
3.8134e+06
3.85499e+06
3.89418e+06
3.93081e+06
3.96475e+06
3.99588e+06
4.02412e+06
4.04944e+06
4.07182e+06
4.09131e+06
4.108e+06
4.12203e+06
4.13358e+06
4.14284e+06
4.15004e+06
4.15542e+06
4.15928e+06
4.16195e+06
3.47384e+06
3.52566e+06
3.57687e+06
3.62717e+06
3.67624e+06
3.72381e+06
3.76961e+06
3.8134e+06
3.85499e+06
3.89418e+06
3.93081e+06
3.96475e+06
3.99588e+06
4.02412e+06
4.04944e+06
4.07182e+06
4.09131e+06
4.108e+06
4.12203e+06
4.13358e+06
4.14284e+06
4.15004e+06
4.15542e+06
4.15928e+06
4.16195e+06
3.47384e+06
3.52566e+06
3.57687e+06
3.62717e+06
3.67624e+06
3.72381e+06
3.76961e+06
3.8134e+06
3.85499e+06
3.89418e+06
3.93081e+06
3.96475e+06
3.99588e+06
4.02412e+06
4.04944e+06
4.07182e+06
4.09131e+06
4.108e+06
4.12203e+06
4.13358e+06
4.14284e+06
4.15004e+06
4.15542e+06
4.15928e+06
4.16195e+06
3.47384e+06
3.52566e+06
3.57687e+06
3.62717e+06
3.67624e+06
3.72381e+06
3.76961e+06
3.8134e+06
3.85499e+06
3.89418e+06
3.93081e+06
3.96475e+06
3.99588e+06
4.02412e+06
4.04944e+06
4.07182e+06
4.09131e+06
4.108e+06
4.12203e+06
4.13358e+06
4.14284e+06
4.15004e+06
4.15542e+06
4.15928e+06
4.16195e+06
3.47384e+06
3.52566e+06
3.57687e+06
3.62717e+06
3.67624e+06
3.72381e+06
3.76961e+06
3.8134e+06
3.85499e+06
3.89418e+06
3.93081e+06
3.96475e+06
3.99588e+06
4.02412e+06
4.04944e+06
4.07182e+06
4.09131e+06
4.108e+06
4.12203e+06
4.13358e+06
4.14284e+06
4.15004e+06
4.15542e+06
4.15928e+06
4.16195e+06
3.47384e+06
3.52566e+06
3.57687e+06
3.62717e+06
3.67624e+06
3.72381e+06
3.76961e+06
3.8134e+06
3.85499e+06
3.89418e+06
3.93081e+06
3.96475e+06
3.99588e+06
4.02412e+06
4.04944e+06
4.07182e+06
4.09131e+06
4.108e+06
4.12203e+06
4.13358e+06
4.14284e+06
4.15004e+06
4.15542e+06
4.15928e+06
4.16195e+06
3.47384e+06
3.52566e+06
3.57687e+06
3.62717e+06
3.67624e+06
3.72381e+06
3.76961e+06
3.8134e+06
3.85499e+06
3.89418e+06
3.93081e+06
3.96475e+06
3.99588e+06
4.02412e+06
4.04944e+06
4.07182e+06
4.09131e+06
4.108e+06
4.12203e+06
4.13358e+06
4.14284e+06
4.15004e+06
4.15542e+06
4.15928e+06
4.16195e+06
3.47384e+06
3.52566e+06
3.57687e+06
3.62717e+06
3.67624e+06
3.72381e+06
3.76961e+06
3.8134e+06
3.85499e+06
3.89418e+06
3.93081e+06
3.96475e+06
3.99588e+06
4.02412e+06
4.04944e+06
4.07182e+06
4.09131e+06
4.108e+06
4.12203e+06
4.13358e+06
4.14284e+06
4.15004e+06
4.15542e+06
4.15928e+06
4.16195e+06
3.47384e+06
3.52566e+06
3.57687e+06
3.62717e+06
3.67624e+06
3.72381e+06
3.76961e+06
3.8134e+06
3.85499e+06
3.89418e+06
3.93081e+06
3.96475e+06
3.99588e+06
4.02412e+06
4.04944e+06
4.07182e+06
4.09131e+06
4.108e+06
4.12203e+06
4.13358e+06
4.14284e+06
4.15004e+06
4.15542e+06
4.15928e+06
4.16195e+06
3.47384e+06
3.52566e+06
3.57687e+06
3.62717e+06
3.67624e+06
3.72381e+06
3.76961e+06
3.8134e+06
3.85499e+06
3.89418e+06
3.93081e+06
3.96475e+06
3.99588e+06
4.02412e+06
4.04944e+06
4.07182e+06
4.09131e+06
4.108e+06
4.12203e+06
4.13358e+06
4.14284e+06
4.15004e+06
4.15542e+06
4.15928e+06
4.16195e+06
)
;

boundaryField
{
    outletCentralUnloaded
    {
        type            fixedValue;
        value           uniform 3.44728e+06;
    }
    inletCentralUnloaded
    {
        type            zeroGradient;
    }
    outletFuelElement
    {
        type            fixedValue;
        value           uniform 3.44728e+06;
    }
    inletFuelElement
    {
        type            zeroGradient;
    }
    defaultFaces
    {
        type            zeroGradient;
    }
    baffle_master
    {
        type            zeroGradient;
    }
    baffle_slave
    {
        type            zeroGradient;
    }
}


// ************************************************************************* //
