/*--------------------------------*- C++ -*----------------------------------*\
| =========                 |                                                 |
| \\      /  F ield         | OpenFOAM: The Open Source CFD Toolbox           |
|  \\    /   O peration     | Version:  2212                                  |
|   \\  /    A nd           | Website:  www.openfoam.com                      |
|    \\/     M anipulation  |                                                 |
\*---------------------------------------------------------------------------*/
FoamFile
{
    version     2.0;
    format      ascii;
    arch        "LSB;label=32;scalar=64";
    class       volScalarField;
    location    "55/fluidRegion";
    object      Re;
}
// * * * * * * * * * * * * * * * * * * * * * * * * * * * * * * * * * * * * * //

dimensions      [0 0 0 0 0 0 0];

internalField   nonuniform List<scalar> 
350
(
174030
174031
174032
174033
174033
174033
174031
174030
174028
174027
174027
174027
174028
174030
174032
174034
174036
174038
174040
174041
174042
174041
174040
174037
174395
174030
174031
174032
174033
174033
174033
174031
174030
174028
174027
174027
174027
174028
174030
174032
174034
174036
174038
174040
174041
174042
174041
174040
174037
174395
55428.5
55379.1
55380.4
55380.6
55379.6
55377.2
55373.3
55367.7
55360.2
55350.6
55338.6
55324.4
55307.9
55289.2
55268
55243.1
55212.9
55175.4
55129.8
55081.9
55051.2
55097.4
55364.5
56110.3
56600.5
54937.6
54880.6
54877.7
54873.7
54868.9
54862.9
54855.7
54847
54836.6
54824.4
54810.3
54794.9
54778.7
54762.9
54748.1
54734.4
54720.5
54704.7
54686.2
54671.3
54680.9
54777.9
55112.5
55948.7
56547.8
55510.6
55460.8
55462.5
55463
55462.2
55460
55456.3
55450.8
55443.3
55433.7
55421.6
55407
55389.9
55370
55347
55319.6
55285.9
55243.9
55193
55138.7
55100.2
55136.5
55391.3
56122.5
56602.4
55047.4
54992.6
54990.8
54988
54984.2
54979.3
54973
54965.2
54955.7
54944.2
54930.8
54915.8
54899.8
54883.5
54867.5
54851.4
54834
54813.3
54788.8
54766.5
54767.1
54852.6
55172
55987.6
56560.8
55047.4
54992.6
54990.8
54988
54984.2
54979.3
54973
54965.2
54955.7
54944.2
54930.8
54915.8
54899.8
54883.5
54867.5
54851.4
54834
54813.3
54788.8
54766.5
54767.1
54852.6
55172
55987.6
56560.8
55510.6
55460.8
55462.5
55463
55462.2
55460
55456.3
55450.8
55443.3
55433.6
55421.6
55407
55389.8
55370
55346.9
55319.5
55285.8
55243.9
55192.9
55138.6
55100.1
55136.4
55391.1
56122.3
56602.3
54937.6
54880.6
54877.7
54873.7
54868.9
54862.9
54855.7
54847
54836.6
54824.4
54810.3
54794.9
54778.7
54762.9
54748.1
54734.4
54720.5
54704.7
54686.2
54671.3
54680.9
54777.9
55112.5
55948.7
56547.8
55428.5
55379.1
55380.4
55380.6
55379.6
55377.2
55373.3
55367.7
55360.2
55350.6
55338.6
55324.4
55307.9
55289.2
55268
55243.1
55212.9
55175.4
55129.8
55081.9
55051.3
55097.4
55364.5
56110.4
56600.5
55047.4
54992.6
54990.8
54988
54984.2
54979.3
54973
54965.2
54955.7
54944.2
54930.8
54915.8
54899.8
54883.5
54867.5
54851.4
54834
54813.3
54788.8
54766.5
54767.1
54852.6
55172
55987.6
56560.8
55510.6
55460.8
55462.5
55463
55462.2
55460
55456.3
55450.8
55443.3
55433.7
55421.6
55407
55389.9
55370
55347
55319.6
55285.9
55243.9
55193
55138.7
55100.2
55136.5
55391.2
56122.5
56602.4
55510.6
55460.8
55462.5
55463
55462.2
55460
55456.3
55450.8
55443.3
55433.6
55421.6
55407
55389.8
55370
55346.9
55319.5
55285.8
55243.9
55192.9
55138.6
55100.1
55136.4
55391.1
56122.3
56602.3
55047.4
54992.6
54990.8
54988
54984.2
54979.3
54973
54965.2
54955.7
54944.2
54930.8
54915.8
54899.8
54883.5
54867.5
54851.4
54834
54813.3
54788.8
54766.5
54767.1
54852.7
55172
55987.7
56560.9
)
;

boundaryField
{
    outletCentralUnloaded
    {
        type            zeroGradient;
    }
    inletCentralUnloaded
    {
        type            zeroGradient;
    }
    outletFuelElement
    {
        type            zeroGradient;
    }
    inletFuelElement
    {
        type            zeroGradient;
    }
    defaultFaces
    {
        type            zeroGradient;
    }
    baffle_master
    {
        type            zeroGradient;
    }
    baffle_slave
    {
        type            zeroGradient;
    }
}


// ************************************************************************* //
