/*--------------------------------*- C++ -*----------------------------------*\
| =========                 |                                                 |
| \\      /  F ield         | OpenFOAM: The Open Source CFD Toolbox           |
|  \\    /   O peration     | Version:  2212                                  |
|   \\  /    A nd           | Website:  www.openfoam.com                      |
|    \\/     M anipulation  |                                                 |
\*---------------------------------------------------------------------------*/
FoamFile
{
    version     2.0;
    format      ascii;
    arch        "LSB;label=32;scalar=64";
    class       volScalarField;
    location    "55/fluidRegion";
    object      Tco.nuclearFuelPin;
}
// * * * * * * * * * * * * * * * * * * * * * * * * * * * * * * * * * * * * * //

dimensions      [0 0 0 1 0 0 0];

internalField   nonuniform List<scalar> 
350
(
0
0
0
0
0
0
0
0
0
0
0
0
0
0
0
0
0
0
0
0
0
0
0
0
0
0
0
0
0
0
0
0
0
0
0
0
0
0
0
0
0
0
0
0
0
0
0
0
0
0
1839.42
1866.22
1880.36
1881.98
1871.4
1849.03
1815.45
1771.36
1717.58
1655.05
1584.83
1508.08
1426.05
1340.09
1251.62
1162.08
1072.79
984.755
898.264
812.38
724.057
626.854
509.871
360.848
181.225
1867.79
1895.08
1909.47
1911.14
1900.37
1877.6
1843.42
1798.53
1743.77
1680.09
1608.57
1530.39
1446.8
1359.19
1268.99
1177.69
1086.63
996.891
908.81
821.491
731.885
633.466
515.116
364.269
182.382
1834.81
1861.56
1875.67
1877.31
1866.77
1844.48
1811.01
1767.06
1713.45
1651.12
1581.12
1504.61
1422.83
1337.14
1248.94
1159.68
1070.68
982.906
896.663
811.003
722.881
625.872
509.104
360.351
181.049
1861.41
1888.57
1902.89
1904.53
1893.79
1871.1
1837.04
1792.32
1737.78
1674.36
1603.13
1525.26
1442.03
1354.79
1264.99
1174.08
1083.44
994.085
906.371
819.383
730.073
631.934
513.9
363.475
182.114
1861.41
1888.57
1902.89
1904.53
1893.79
1871.1
1837.04
1792.32
1737.78
1674.36
1603.13
1525.26
1442.03
1354.79
1264.99
1174.08
1083.44
994.085
906.371
819.383
730.073
631.934
513.9
363.475
182.114
1834.81
1861.56
1875.67
1877.31
1866.77
1844.48
1811.02
1767.07
1713.46
1651.13
1581.13
1504.61
1422.83
1337.14
1248.94
1159.69
1070.68
982.907
896.663
811.003
722.882
625.873
509.105
360.352
181.049
1867.79
1895.08
1909.47
1911.14
1900.37
1877.6
1843.42
1798.53
1743.77
1680.09
1608.57
1530.39
1446.8
1359.19
1268.99
1177.69
1086.63
996.891
908.81
821.491
731.885
633.466
515.116
364.269
182.382
1839.42
1866.22
1880.36
1881.98
1871.4
1849.03
1815.45
1771.36
1717.58
1655.05
1584.83
1508.08
1426.05
1340.09
1251.62
1162.08
1072.79
984.755
898.264
812.38
724.057
626.854
509.872
360.848
181.225
1861.41
1888.57
1902.89
1904.53
1893.79
1871.1
1837.04
1792.32
1737.78
1674.36
1603.13
1525.26
1442.03
1354.79
1264.99
1174.08
1083.44
994.085
906.371
819.383
730.073
631.934
513.9
363.475
182.114
1834.81
1861.56
1875.67
1877.31
1866.77
1844.48
1811.01
1767.06
1713.45
1651.12
1581.12
1504.61
1422.83
1337.14
1248.94
1159.68
1070.68
982.906
896.663
811.003
722.881
625.872
509.104
360.351
181.049
1834.81
1861.56
1875.67
1877.31
1866.77
1844.48
1811.02
1767.07
1713.46
1651.13
1581.13
1504.61
1422.83
1337.14
1248.94
1159.68
1070.68
982.907
896.663
811.003
722.882
625.873
509.105
360.352
181.049
1861.41
1888.57
1902.89
1904.53
1893.79
1871.1
1837.04
1792.32
1737.78
1674.36
1603.13
1525.26
1442.03
1354.79
1264.99
1174.08
1083.44
994.085
906.371
819.383
730.073
631.934
513.9
363.475
182.114
)
;

boundaryField
{
    outletCentralUnloaded
    {
        type            zeroGradient;
    }
    inletCentralUnloaded
    {
        type            zeroGradient;
    }
    outletFuelElement
    {
        type            zeroGradient;
    }
    inletFuelElement
    {
        type            zeroGradient;
    }
    defaultFaces
    {
        type            zeroGradient;
    }
    baffle_master
    {
        type            zeroGradient;
    }
    baffle_slave
    {
        type            zeroGradient;
    }
}


// ************************************************************************* //
