/*--------------------------------*- C++ -*----------------------------------*\
| =========                 |                                                 |
| \\      /  F ield         | OpenFOAM: The Open Source CFD Toolbox           |
|  \\    /   O peration     | Version:  2212                                  |
|   \\  /    A nd           | Website:  www.openfoam.com                      |
|    \\/     M anipulation  |                                                 |
\*---------------------------------------------------------------------------*/
FoamFile
{
    version     2.0;
    format      ascii;
    arch        "LSB;label=32;scalar=64";
    class       volScalarField;
    location    "55/fluidRegion";
    object      Tfav.nuclearFuelPin;
}
// * * * * * * * * * * * * * * * * * * * * * * * * * * * * * * * * * * * * * //

dimensions      [0 0 0 1 0 0 0];

internalField   nonuniform List<scalar> 
350
(
0
0
0
0
0
0
0
0
0
0
0
0
0
0
0
0
0
0
0
0
0
0
0
0
0
0
0
0
0
0
0
0
0
0
0
0
0
0
0
0
0
0
0
0
0
0
0
0
0
0
2219.62
3006.69
3763.06
4477.19
5138.15
5735.77
6260.84
6705.27
7062.17
7326
7492.68
7559.63
7525.85
7391.91
7160
6833.82
6418.43
5919.96
5345.15
4700.85
3992.73
3224.2
2394.9
1503.93
564.498
2252.3
3048.57
3813.71
4536.04
5204.51
5808.84
6339.71
6788.93
7149.55
7415.98
7584.08
7651.24
7616.45
7480.32
7245.04
6914.38
6493.49
5988.61
5406.63
4754.49
4038
3260.56
2421.73
1520.44
570.042
2214.32
2999.95
3754.94
4467.79
5127.57
5724.14
6248.31
6691.98
7048.3
7311.74
7478.2
7545.13
7511.5
7377.92
7146.55
6821.08
6406.56
5909.11
5335.44
4692.38
3985.59
3218.48
2390.7
1501.35
563.624
2244.93
3039.07
3802.17
4522.6
5189.32
5792.09
6321.62
6769.72
7129.48
7395.3
7563.06
7630.16
7595.6
7459.96
7225.46
6895.83
6476.2
5972.8
5392.47
4742.13
4027.57
3252.18
2415.55
1516.63
568.764
2244.93
3039.07
3802.17
4522.6
5189.32
5792.09
6321.62
6769.72
7129.48
7395.3
7563.06
7630.16
7595.6
7459.96
7225.46
6895.83
6476.2
5972.8
5392.47
4742.13
4027.57
3252.18
2415.55
1516.63
568.764
2214.32
2999.95
3754.94
4467.79
5127.57
5724.14
6248.31
6691.98
7048.3
7311.74
7478.2
7545.13
7511.51
7377.92
7146.55
6821.08
6406.56
5909.11
5335.44
4692.38
3985.59
3218.48
2390.7
1501.35
563.624
2252.3
3048.57
3813.71
4536.04
5204.51
5808.84
6339.71
6788.93
7149.55
7415.98
7584.08
7651.24
7616.45
7480.32
7245.04
6914.38
6493.49
5988.61
5406.63
4754.49
4038
3260.56
2421.73
1520.44
570.042
2219.62
3006.69
3763.06
4477.19
5138.15
5735.77
6260.84
6705.27
7062.17
7326
7492.68
7559.63
7525.85
7391.91
7160
6833.82
6418.43
5919.95
5345.15
4700.85
3992.73
3224.2
2394.9
1503.93
564.499
2244.93
3039.07
3802.17
4522.6
5189.32
5792.09
6321.62
6769.72
7129.48
7395.3
7563.06
7630.16
7595.6
7459.96
7225.46
6895.83
6476.2
5972.8
5392.47
4742.13
4027.57
3252.18
2415.55
1516.63
568.764
2214.32
2999.95
3754.94
4467.79
5127.57
5724.14
6248.31
6691.98
7048.3
7311.74
7478.2
7545.13
7511.5
7377.92
7146.55
6821.08
6406.56
5909.1
5335.44
4692.38
3985.59
3218.48
2390.7
1501.35
563.624
2214.32
2999.95
3754.94
4467.79
5127.57
5724.14
6248.31
6691.98
7048.3
7311.74
7478.2
7545.13
7511.51
7377.92
7146.55
6821.08
6406.56
5909.11
5335.44
4692.38
3985.59
3218.48
2390.7
1501.35
563.624
2244.93
3039.07
3802.17
4522.6
5189.32
5792.09
6321.62
6769.72
7129.48
7395.3
7563.06
7630.16
7595.6
7459.96
7225.46
6895.83
6476.2
5972.8
5392.47
4742.13
4027.57
3252.18
2415.55
1516.63
568.764
)
;

boundaryField
{
    outletCentralUnloaded
    {
        type            zeroGradient;
    }
    inletCentralUnloaded
    {
        type            zeroGradient;
    }
    outletFuelElement
    {
        type            zeroGradient;
    }
    inletFuelElement
    {
        type            zeroGradient;
    }
    defaultFaces
    {
        type            zeroGradient;
    }
    baffle_master
    {
        type            zeroGradient;
    }
    baffle_slave
    {
        type            zeroGradient;
    }
}


// ************************************************************************* //
