/*--------------------------------*- C++ -*----------------------------------*\
| =========                 |                                                 |
| \\      /  F ield         | OpenFOAM: The Open Source CFD Toolbox           |
|  \\    /   O peration     | Version:  2212                                  |
|   \\  /    A nd           | Website:  www.openfoam.com                      |
|    \\/     M anipulation  |                                                 |
\*---------------------------------------------------------------------------*/
FoamFile
{
    version     2.0;
    format      ascii;
    arch        "LSB;label=32;scalar=64";
    class       volScalarField;
    location    "55/fluidRegion";
    object      Tfo.nuclearFuelPin;
}
// * * * * * * * * * * * * * * * * * * * * * * * * * * * * * * * * * * * * * //

dimensions      [0 0 0 1 0 0 0];

internalField   nonuniform List<scalar> 
350
(
0
0
0
0
0
0
0
0
0
0
0
0
0
0
0
0
0
0
0
0
0
0
0
0
0
0
0
0
0
0
0
0
0
0
0
0
0
0
0
0
0
0
0
0
0
0
0
0
0
0
2020.78
2410.04
2778.03
3119.34
3428.9
3702.11
3934.86
4123.67
4265.67
4358.73
4401.45
4393.2
4334.17
4225.33
4068.47
3866.11
3621.35
3337.63
3018.34
2666.22
2282.41
1865.15
1408.57
905.813
363.943
2051.21
2445.11
2817.41
3162.65
3475.7
3751.9
3987.1
4177.77
4321.04
4414.73
4457.45
4448.55
4388.23
4277.47
4118.11
3912.68
3664.38
3376.72
3053.16
2696.56
2308.09
1885.94
1424.1
915.475
367.191
2015.84
2404.38
2771.71
3112.41
3421.44
3694.19
3926.57
4115.09
4256.9
4349.88
4392.61
4384.47
4325.65
4217.12
4060.66
3858.78
3614.58
3331.49
3012.87
2661.46
2278.39
1861.91
1406.16
904.323
363.434
2044.36
2437.17
2808.47
3152.79
3465.02
3740.51
3975.14
4165.37
4308.33
4401.87
4444.58
4435.82
4375.79
4265.47
4106.67
3901.95
3654.46
3367.71
3045.13
2689.57
2302.17
1881.15
1420.52
913.244
366.442
2044.36
2437.17
2808.47
3152.79
3465.02
3740.51
3975.14
4165.37
4308.33
4401.87
4444.58
4435.82
4375.78
4265.47
4106.67
3901.95
3654.46
3367.71
3045.13
2689.57
2302.17
1881.15
1420.52
913.244
366.442
2015.85
2404.39
2771.71
3112.41
3421.44
3694.19
3926.57
4115.09
4256.91
4349.88
4392.61
4384.47
4325.65
4217.12
4060.66
3858.78
3614.58
3331.49
3012.87
2661.46
2278.39
1861.91
1406.16
904.323
363.434
2051.21
2445.11
2817.41
3162.65
3475.7
3751.9
3987.1
4177.77
4321.04
4414.73
4457.45
4448.55
4388.23
4277.47
4118.11
3912.68
3664.38
3376.71
3053.16
2696.56
2308.09
1885.94
1424.11
915.475
367.191
2020.78
2410.04
2778.03
3119.34
3428.9
3702.11
3934.86
4123.67
4265.67
4358.73
4401.45
4393.2
4334.17
4225.33
4068.47
3866.11
3621.35
3337.63
3018.34
2666.22
2282.41
1865.15
1408.57
905.813
363.943
2044.36
2437.17
2808.47
3152.79
3465.02
3740.52
3975.14
4165.37
4308.33
4401.87
4444.58
4435.82
4375.78
4265.47
4106.67
3901.95
3654.46
3367.71
3045.13
2689.57
2302.17
1881.15
1420.52
913.244
366.442
2015.85
2404.38
2771.71
3112.41
3421.44
3694.19
3926.57
4115.09
4256.9
4349.88
4392.61
4384.47
4325.65
4217.12
4060.66
3858.78
3614.58
3331.49
3012.87
2661.46
2278.39
1861.91
1406.16
904.323
363.434
2015.85
2404.39
2771.71
3112.41
3421.44
3694.19
3926.57
4115.09
4256.91
4349.88
4392.61
4384.47
4325.65
4217.12
4060.66
3858.78
3614.58
3331.49
3012.87
2661.46
2278.39
1861.91
1406.16
904.323
363.434
2044.36
2437.17
2808.47
3152.79
3465.02
3740.51
3975.14
4165.37
4308.33
4401.87
4444.58
4435.82
4375.78
4265.47
4106.67
3901.95
3654.46
3367.71
3045.13
2689.57
2302.17
1881.15
1420.52
913.244
366.442
)
;

boundaryField
{
    outletCentralUnloaded
    {
        type            zeroGradient;
    }
    inletCentralUnloaded
    {
        type            zeroGradient;
    }
    outletFuelElement
    {
        type            zeroGradient;
    }
    inletFuelElement
    {
        type            zeroGradient;
    }
    defaultFaces
    {
        type            zeroGradient;
    }
    baffle_master
    {
        type            zeroGradient;
    }
    baffle_slave
    {
        type            zeroGradient;
    }
}


// ************************************************************************* //
