/*--------------------------------*- C++ -*----------------------------------*\
| =========                 |                                                 |
| \\      /  F ield         | OpenFOAM: The Open Source CFD Toolbox           |
|  \\    /   O peration     | Version:  2212                                  |
|   \\  /    A nd           | Website:  www.openfoam.com                      |
|    \\/     M anipulation  |                                                 |
\*---------------------------------------------------------------------------*/
FoamFile
{
    version     2.0;
    format      ascii;
    arch        "LSB;label=32;scalar=64";
    class       scalarFieldField;
    location    "55/fluidRegion";
    object      Trad.nuclearFuelPin;
}
// * * * * * * * * * * * * * * * * * * * * * * * * * * * * * * * * * * * * * //


350
(
0()
0()
0()
0()
0()
0()
0()
0()
0()
0()
0()
0()
0()
0()
0()
0()
0()
0()
0()
0()
0()
0()
0()
0()
0()
0()
0()
0()
0()
0()
0()
0()
0()
0()
0()
0()
0()
0()
0()
0()
0()
0()
0()
0()
0()
0()
0()
0()
0()
0()

20
(
2419.99
2418.22
2412.91
2404.05
2391.65
2375.71
2356.22
2333.18
2306.59
2276.44
2242.74
2205.48
2164.66
2120.27
2072.31
2020.78
1851.15
1847.11
1843.2
1839.42
)


20
(
3608.42
3603.1
3587.13
3560.52
3523.26
3475.35
3416.78
3347.57
3267.7
3177.18
3075.99
2964.14
2841.62
2708.44
2564.58
2410.04
1901.41
1889.3
1877.57
1866.22
)


20
(
4756.64
4747.85
4721.47
4677.52
4615.99
4536.87
4440.16
4325.87
4193.99
4044.51
3877.44
3692.77
3490.5
3270.62
3033.13
2778.03
1938.44
1918.44
1899.09
1880.36
)


20
(
5846.92
5834.8
5798.44
5737.85
5653.01
5543.93
5410.61
5253.04
5071.23
4865.17
4634.85
4380.27
4101.44
3798.34
3470.97
3119.34
1962.05
1934.48
1907.81
1881.98
)


20
(
6862.4
6847.14
6801.37
6725.09
6618.29
6480.98
6313.15
6114.79
5885.92
5626.52
5336.59
5016.13
4665.14
4283.6
3871.53
3428.9
1972.18
1937.48
1903.91
1871.4
)


20
(
7787.33
7769.18
7714.72
7623.95
7496.88
7333.49
7133.8
6897.79
6625.47
6316.83
5971.87
5590.58
5172.96
4719.02
4228.73
3702.11
1968.94
1927.65
1887.71
1849.03
)


20
(
8607.34
8586.57
8524.29
8420.47
8275.13
8088.25
7859.85
7589.91
7278.44
6925.43
6530.87
6094.78
5617.13
5097.93
4537.18
3934.86
1952.59
1905.37
1859.69
1815.45
)


20
(
9309.67
9286.62
9217.49
9102.26
8940.94
8733.53
8480.01
8180.41
7834.7
7442.89
7004.97
6520.94
5990.8
5414.54
4792.17
4123.67
1923.57
1871.16
1820.46
1771.36
)


20
(
9883.38
9858.42
9783.52
9658.7
9483.95
9259.27
8984.65
8660.1
8285.61
7861.18
7386.81
6862.49
6288.22
5663.99
4989.81
4265.67
1882.45
1825.68
1770.76
1717.58
)


20
(
10319.5
10293
10213.6
10081.1
9895.69
9657.29
9365.9
9021.52
8624.16
8173.81
7670.46
7114.12
6504.78
5842.44
5127.09
4358.73
1830
1769.76
1711.49
1655.05
)


20
(
10611.3
10583.7
10500.9
10362.9
10169.7
9921.37
9617.81
9259.04
8845.08
8375.91
7851.53
7271.95
6637.15
5947.14
5201.91
4401.45
1767.09
1704.33
1643.63
1584.83
)


20
(
10754.1
10725.8
10641
10499.7
10301.8
10047.4
9736.46
9368.97
8944.93
8464.34
7927.21
7333.53
6683.29
5976.49
5213.13
4393.2
1694.77
1630.49
1568.3
1508.08
)


20
(
10745.8
10717.3
10631.8
10489.4
10289.9
10033.5
9720.03
9349.61
8922.19
8437.77
7896.35
7297.93
6642.51
5930.07
5160.63
4334.17
1614.22
1549.43
1486.75
1426.05
)


20
(
10586.6
10558.3
10473.5
10332.1
10134.2
9879.82
9568.85
9201.33
8777.27
8296.66
7759.5
7165.78
6515.51
5808.68
5045.29
4225.33
1526.78
1462.5
1400.31
1340.09
)


20
(
10278.9
10251.3
10168.5
10030.5
9837.35
9588.95
9285.35
8926.54
8512.53
8043.31
7518.88
6939.23
6304.37
5614.29
4868.99
4068.47
1433.89
1371.13
1310.42
1251.62
)


20
(
9827.85
9801.36
9721.87
9589.4
9403.94
9165.49
8874.05
8529.61
8132.18
7681.75
7178.32
6621.89
6012.46
5350.02
4634.57
3866.11
1337.05
1276.8
1218.52
1162.08
)


20
(
9240.32
9215.35
9140.43
9015.58
8840.78
8616.04
8341.35
8016.72
7642.14
7217.6
6743.12
6218.68
5644.29
5019.94
4345.62
3621.35
1237.7
1180.92
1125.99
1072.79
)


20
(
8525.19
8502.13
8432.97
8317.7
8156.33
7948.84
7695.24
7395.53
7049.71
6657.77
6219.72
5735.55
5205.25
4628.84
4006.3
3337.63
1137
1084.58
1033.87
984.755
)


20
(
7692.62
7671.84
7609.52
7505.66
7360.25
7173.29
6944.79
6674.73
6363.13
6009.97
5615.26
5178.99
4701.17
4181.78
3620.84
3018.34
1035.45
988.213
942.518
898.264
)


20
(
6753.52
6735.36
6680.87
6590.04
6462.89
6299.41
6099.6
5863.46
5590.98
5282.17
4937.03
4555.55
4137.73
3683.57
3193.07
2666.22
932.337
891.034
851.077
812.38
)


20
(
5718.22
5702.96
5657.15
5580.8
5473.92
5336.5
5168.53
4970.03
4740.99
4481.4
4191.27
3870.59
3519.37
3137.6
2725.28
2282.41
824.893
790.174
756.585
724.057
)


20
(
4595.31
4583.17
4546.77
4486.11
4401.18
4291.98
4158.51
4000.78
3818.78
3612.51
3381.96
3127.15
2848.06
2544.7
2217.06
1865.15
706.981
679.392
652.702
626.854
)


20
(
3389.98
3381.18
3354.76
3310.73
3249.09
3169.84
3072.98
2958.51
2826.42
2676.71
2509.4
2324.47
2121.92
1901.75
1663.97
1408.57
568.023
548.001
528.63
509.871
)


20
(
2107.35
2102.01
2085.99
2059.29
2021.91
1973.86
1915.12
1845.7
1765.6
1674.82
1573.36
1461.21
1338.39
1204.88
1060.69
905.813
396.111
383.969
372.223
360.848
)


20
(
766.854
765.063
759.69
750.736
738.2
722.083
702.384
679.104
652.242
621.799
587.776
550.171
508.985
464.218
415.871
363.943
193.048
188.977
185.039
181.225
)


20
(
2454.95
2453.16
2447.79
2438.83
2426.29
2410.17
2390.45
2367.15
2340.26
2309.77
2275.69
2238.01
2196.72
2151.83
2103.33
2051.21
1879.65
1875.57
1871.61
1867.79
)


20
(
3657.18
3651.79
3635.64
3608.72
3571.04
3522.58
3463.35
3393.34
3312.56
3221.01
3118.66
3005.54
2881.62
2746.92
2601.41
2445.11
1930.67
1918.41
1906.56
1895.08
)


20
(
4818.64
4809.75
4783.08
4738.62
4676.38
4596.36
4498.55
4382.95
4249.56
4098.38
3929.4
3742.61
3538.03
3315.64
3075.43
2817.41
1968.22
1947.99
1928.42
1909.47
)


20
(
5921.44
5909.18
5872.4
5811.12
5725.31
5614.98
5480.14
5320.77
5136.88
4928.45
4695.5
4438.01
4155.99
3849.42
3518.31
3162.65
1992.12
1964.24
1937.26
1911.14
)


20
(
6948.49
6933.06
6886.77
6809.61
6701.59
6562.71
6392.95
6192.33
5960.84
5698.47
5405.22
5081.1
4726.08
4340.18
3923.39
3475.7
2002.3
1967.21
1933.25
1900.37
)


20
(
7883.88
7865.52
7810.43
7718.63
7590.1
7424.85
7222.87
6984.16
6708.72
6396.55
6047.64
5661.99
5239.59
4780.45
4284.55
3751.9
1998.88
1957.13
1916.73
1877.6
)


20
(
8713.06
8692.06
8629.06
8524.06
8377.05
8188.04
7957.02
7683.99
7368.95
7011.9
6612.83
6171.74
5688.63
5163.48
4596.31
3987.1
1982.13
1934.37
1888.17
1843.42
)


20
(
9423.15
9399.84
9329.91
9213.36
9050.2
8840.41
8584
8280.96
7931.29
7534.99
7092.06
6602.49
6066.28
5483.43
4853.93
4177.77
1952.48
1899.47
1848.19
1798.53
)


20
(
10003.1
9977.82
9902.07
9775.82
9599.06
9371.81
9094.05
8765.78
8387.01
7957.72
7477.91
6947.59
6366.74
5735.37
5053.47
4321.04
1910.53
1853.11
1797.56
1743.77
)


20
(
10443.8
10417
10336.6
10202.6
10015.1
9773.96
9479.23
9130.91
8729
8273.49
7764.39
7201.68
6585.36
5915.43
5191.89
4414.73
1857.04
1796.11
1737.17
1680.09
)


20
(
10738.4
10710.5
10626.7
10487.2
10291.8
10040.6
9733.53
9370.66
8951.95
8477.41
7947.04
7360.81
6718.75
6020.83
5267.07
4457.45
1792.91
1729.44
1668.04
1608.57
)


20
(
10882.3
10853.7
10767.9
10625
10424.8
10167.5
9852.99
9481.29
9052.4
8566.31
8023.03
7422.54
6764.86
6049.97
5277.86
4448.55
1719.21
1654.19
1591.3
1530.39
)


20
(
10873.3
10844.5
10758
10613.9
10412.2
10152.8
9835.77
9461.1
9028.78
8538.82
7991.2
7385.93
6723
6002.41
5224.15
4388.23
1637.13
1571.6
1508.2
1446.8
)


20
(
10711.5
10683
10597.2
10454.2
10254.1
9996.72
9682.18
9310.46
8881.54
8395.43
7852.12
7251.6
6593.88
5878.96
5106.82
4277.47
1548.02
1483
1420.1
1359.19
)


20
(
10399.7
10371.8
10288
10148.5
9953.05
9701.8
9394.73
9031.81
8613.06
8138.46
7608.03
7021.75
6379.61
5681.63
4927.8
4118.11
1453.35
1389.87
1328.47
1268.99
)


20
(
9942.7
9915.9
9835.51
9701.52
9513.94
9272.76
8977.98
8629.59
8227.61
7772.02
7262.83
6700.03
6083.62
5413.59
4689.95
3912.68
1354.66
1293.72
1234.77
1177.69
)


20
(
9347.7
9322.44
9246.67
9120.39
8943.59
8716.27
8438.44
8110.09
7731.21
7301.82
6821.9
6291.46
5710.49
5078.99
4396.95
3664.38
1253.43
1196
1140.44
1086.63
)


20
(
8623.68
8600.37
8530.41
8413.82
8250.6
8040.73
7784.23
7481.09
7131.31
6734.88
6291.81
5802.09
5265.73
4682.71
4053.04
3376.72
1150.88
1097.86
1046.57
996.891
)


20
(
7780.98
7759.97
7696.94
7591.88
7444.81
7255.71
7024.58
6751.44
6436.26
6079.06
5679.83
5238.56
4755.27
4229.94
3662.57
3053.16
1047.56
999.789
953.57
908.81
)


20
(
6830.68
6812.31
6757.19
6665.33
6536.72
6371.37
6169.27
5930.42
5654.83
5342.48
4993.38
4607.53
4184.93
3725.56
3229.44
2696.56
942.821
901.045
860.631
821.491
)


20
(
5783.25
5767.81
5721.48
5644.26
5536.15
5397.15
5227.27
5026.49
4794.82
4532.26
4238.81
3914.46
3559.21
3173.07
2756.03
2308.09
833.876
798.759
764.786
731.885
)


20
(
4647.37
4635.1
4598.28
4536.92
4451.02
4340.57
4205.57
4046.03
3861.95
3653.31
3420.13
3162.4
2880.11
2573.28
2241.89
1885.94
714.51
686.605
659.609
633.466
)


20
(
3428.21
3419.3
3392.59
3348.05
3285.71
3205.55
3107.58
2991.79
2858.19
2706.77
2537.54
2350.49
2145.62
1922.94
1682.43
1424.1
573.933
553.681
534.089
515.116
)


20
(
2130.77
2125.37
2109.17
2082.16
2044.36
1995.75
1936.34
1866.12
1785.1
1693.28
1590.66
1477.23
1353
1217.96
1072.12
915.475
399.936
387.655
375.775
364.269
)


20
(
774.712
772.901
767.467
758.41
745.731
729.429
709.505
685.959
658.79
627.998
593.585
555.55
513.893
468.614
419.713
367.191
194.341
190.223
186.24
182.382
)


20
(
2414.34
2412.57
2407.27
2398.43
2386.05
2370.13
2350.68
2327.68
2301.14
2271.05
2237.41
2200.21
2159.46
2115.16
2067.28
2015.84
1846.52
1842.49
1838.59
1834.81
)


20
(
3600.59
3595.28
3579.34
3552.77
3515.58
3467.75
3409.3
3340.21
3260.49
3170.13
3069.12
2957.48
2835.18
2702.24
2558.64
2404.38
1896.68
1884.59
1872.89
1861.56
)


20
(
4746.71
4737.94
4711.61
4667.74
4606.32
4527.34
4430.81
4316.73
4185.09
4035.88
3869.11
3684.78
3482.88
3263.4
3026.34
2771.71
1933.65
1913.68
1894.37
1875.67
)


20
(
5835.02
5822.92
5786.63
5726.14
5641.46
5532.58
5399.51
5242.23
5060.74
4855.06
4625.16
4371.05
4092.72
3790.17
3463.4
3112.41
1957.23
1929.71
1903.09
1877.31
)


20
(
6848.68
6833.45
6787.76
6711.62
6605.01
6467.95
6300.42
6102.43
5873.98
5615.05
5325.65
5005.77
4655.42
4274.58
3863.25
3421.44
1967.37
1932.73
1899.22
1866.77
)


20
(
7771.96
7753.84
7699.48
7608.88
7482.03
7318.95
7119.62
6884.04
6612.22
6304.14
5959.8
5579.21
5162.36
4709.24
4219.85
3694.19
1964.17
1922.96
1883.09
1844.48
)


20
(
8590.52
8569.8
8507.62
8403.99
8258.92
8072.38
7844.4
7574.95
7264.04
6911.68
6517.84
6082.54
5605.76
5087.51
4527.78
3926.57
1947.9
1900.77
1855.17
1811.01
)


20
(
9291.63
9268.63
9199.62
9084.6
8923.58
8716.54
8463.49
8164.43
7819.35
7428.25
6991.14
6507.99
5978.82
5403.61
4782.37
4115.09
1919
1866.68
1816.08
1767.06
)


20
(
9864.37
9839.45
9764.7
9640.1
9465.67
9241.4
8967.28
8643.32
8269.51
7845.86
7372.35
6848.99
6275.76
5652.68
4979.73
4256.9
1878.03
1821.37
1766.54
1713.45
)


20
(
10299.8
10273.4
10194
10061.8
9876.74
9638.77
9347.91
9004.16
8607.53
8158
7655.57
7100.24
6492.01
5830.88
5116.83
4349.88
1825.75
1765.62
1707.46
1651.12
)


20
(
10591.1
10563.6
10480.9
10343.2
10150.4
9902.46
9599.45
9241.34
8828.13
8359.82
7836.4
7257.87
6624.23
5935.48
5191.6
4392.61
1763.05
1700.41
1639.81
1581.12
)


20
(
10733.8
10705.6
10620.9
10479.8
10282.3
10028.4
9717.98
9351.16
8927.89
8448.19
7912.03
7319.43
6670.38
5964.87
5202.9
4384.47
1690.95
1626.79
1564.72
1504.61
)


20
(
10725.6
10697.1
10611.8
10469.6
10270.5
10014.6
9701.69
9331.94
8905.3
8421.76
7881.33
7284.01
6629.78
5918.64
5150.6
4325.65
1610.66
1545.99
1483.42
1422.83
)


20
(
10566.7
10538.5
10453.9
10312.8
10115.3
9861.29
9550.89
9184.04
8760.75
8281.02
7744.84
7152.21
6503.12
5797.58
5035.58
4217.12
1523.49
1459.33
1397.25
1337.14
)


20
(
10259.8
10232.3
10149.6
10011.9
9819.01
9571.07
9268.02
8909.87
8496.61
8028.25
7504.77
6926.18
6292.48
5603.66
4859.72
4060.66
1430.88
1368.24
1307.63
1248.94
)


20
(
9809.65
9783.21
9703.87
9571.64
9386.52
9148.5
8857.59
8513.78
8117.07
7667.47
7164.96
6609.54
6001.22
5339.99
4625.84
3858.78
1334.33
1274.2
1216.02
1159.68
)


20
(
9223.31
9198.38
9123.61
8998.98
8824.5
8600.17
8325.98
8001.94
7628.04
7204.28
6730.66
6207.18
5633.84
5010.62
4337.54
3614.58
1235.29
1178.61
1123.78
1070.68
)


20
(
8509.59
8486.57
8417.54
8302.48
8141.4
7934.29
7681.15
7381.99
7036.8
6645.58
6208.32
5725.03
5195.71
4620.34
3998.94
3331.49
1134.88
1082.55
1031.93
982.906
)


20
(
7678.62
7657.89
7595.68
7492.01
7346.86
7160.25
6932.16
6662.59
6351.56
5999.04
5605.05
5169.58
4692.63
4174.19
3614.27
3012.87
1033.6
986.447
940.835
896.663
)


20
(
6741.31
6723.18
6668.78
6578.13
6451.21
6288.03
6088.58
5852.87
5580.89
5272.64
4928.13
4547.34
4130.29
3676.95
3187.35
2661.46
930.74
889.513
849.628
811.003
)


20
(
5707.94
5692.7
5646.98
5570.77
5464.08
5326.91
5159.25
4961.11
4732.49
4473.37
4183.77
3863.68
3513.1
3132.02
2720.45
2278.39
823.534
788.878
755.351
722.881
)


20
(
4587.09
4574.97
4538.64
4478.09
4393.31
4284.31
4151.09
3993.64
3811.97
3606.08
3375.96
3121.61
2843.03
2540.22
2213.18
1861.91
705.852
678.314
651.673
625.872
)


20
(
3383.96
3375.17
3348.81
3304.86
3243.33
3164.23
3067.54
2953.27
2821.42
2672
2504.98
2320.39
2118.21
1898.45
1661.1
1406.16
567.15
547.163
527.829
509.104
)


20
(
2103.67
2098.34
2082.35
2055.7
2018.39
1970.42
1911.79
1842.49
1762.54
1671.93
1570.65
1458.71
1336.11
1202.84
1058.91
904.323
395.55
383.431
371.706
360.351
)


20
(
765.611
763.823
758.461
749.523
737.01
720.922
701.259
678.021
651.208
620.821
586.859
549.322
508.212
463.527
415.267
363.434
192.851
188.787
184.856
181.049
)


20
(
2447.05
2445.27
2439.91
2430.98
2418.47
2402.38
2382.72
2359.48
2332.66
2302.25
2268.26
2230.67
2189.49
2144.72
2096.34
2044.36
1873.24
1869.17
1865.22
1861.41
)


20
(
3646.09
3640.72
3624.61
3597.76
3560.17
3511.84
3452.76
3382.94
3302.37
3211.05
3108.98
2996.14
2872.55
2738.19
2593.07
2437.17
1924.07
1911.85
1900.02
1888.57
)


20
(
4804.49
4795.62
4769.02
4724.68
4662.6
4582.79
4485.23
4369.93
4236.89
4086.1
3917.56
3731.26
3527.21
3305.39
3065.81
2808.47
1961.49
1941.31
1921.79
1902.89
)


20
(
5904.39
5892.16
5855.48
5794.35
5708.77
5598.73
5464.24
5305.28
5121.87
4913.99
4681.64
4424.83
4143.54
3837.77
3507.52
3152.79
1985.3
1957.49
1930.59
1904.53
)


20
(
6928.76
6913.37
6867.2
6790.24
6682.51
6543.98
6374.67
6174.57
5943.68
5682
5389.52
5066.23
4712.15
4327.25
3911.54
3465.02
1995.46
1960.45
1926.59
1893.79
)


20
(
7861.73
7843.42
7788.48
7696.91
7568.72
7403.9
7202.44
6964.36
6689.63
6378.27
6030.27
5645.62
5224.33
4766.38
4271.78
3740.51
1992.07
1950.42
1910.12
1871.1
)


20
(
8688.79
8667.84
8605
8500.27
8353.65
8165.13
7934.71
7662.4
7348.18
6992.06
6594.03
6154.09
5672.23
5148.46
4582.76
3975.14
1975.39
1927.76
1881.67
1837.04
)


20
(
9397.08
9373.83
9304.08
9187.84
9025.1
8815.85
8560.11
8257.86
7909.11
7513.84
7072.07
6583.77
6048.96
5467.62
4839.76
4165.37
1945.88
1893.01
1841.86
1792.32
)


20
(
9975.56
9950.37
9874.82
9748.9
9572.61
9345.94
9068.91
8741.49
8363.7
7935.53
7456.98
6928.04
6348.71
5718.98
5038.86
4308.33
1904.11
1846.84
1791.43
1737.78
)


20
(
10415.2
10388.5
10308.3
10174.7
9987.64
9747.13
9453.17
9105.76
8704.9
8250.58
7742.79
7181.55
6566.84
5898.66
5177
4401.87
1850.84
1790.08
1731.29
1674.36
)


20
(
10709.1
10681.3
10597.8
10458.6
10263.7
10013.2
9706.91
9344.98
8927.37
8454.07
7925.07
7340.38
6699.98
6003.89
5252.09
4444.58
1786.99
1723.68
1662.44
1603.13
)


20
(
10852.8
10824.3
10738.7
10596.1
10396.5
10139.9
9826.18
9455.44
9027.67
8542.85
8000.98
7402.06
6746.09
6033.06
5262.97
4435.82
1713.59
1648.75
1586.02
1525.26
)


20
(
10843.9
10815.2
10729
10585.2
10384
10125.3
9809.13
9435.44
9004.25
8515.56
7969.37
7365.68
6704.47
5985.76
5209.53
4375.79
1631.86
1566.5
1503.27
1442.03
)


20
(
10682.8
10654.3
10568.7
10426.1
10226.5
9969.8
9656.09
9285.34
8857.54
8372.69
7830.79
7231.85
6575.84
5862.78
5092.66
4265.47
1543.13
1478.28
1415.55
1354.79
)


20
(
10371.9
10344
10260.5
10121.3
9926.41
9675.82
9369.54
9007.57
8589.91
8116.55
7587.5
7002.74
6362.29
5666.13
4914.26
4106.67
1448.86
1385.55
1324.3
1264.99
)


20
(
9916.25
9889.53
9809.34
9675.7
9488.61
9248.05
8954.04
8606.57
8205.63
7751.23
7243.37
6682.03
6067.23
5398.95
4677.19
3901.95
1350.59
1289.82
1231.02
1174.08
)


20
(
9322.97
9297.78
9222.21
9096.25
8919.91
8693.19
8416.08
8088.58
7710.7
7282.42
6803.76
6274.7
5695.24
5065.38
4385.12
3654.46
1249.8
1192.52
1137.1
1083.44
)


20
(
8601
8577.74
8507.97
8391.68
8228.88
8019.57
7763.73
7461.38
7112.51
6717.12
6275.2
5786.76
5251.79
4670.3
4042.27
3367.71
1147.68
1094.79
1043.63
994.085
)


20
(
7760.63
7739.67
7676.8
7572.02
7425.33
7236.72
7006.2
6733.77
6419.41
6063.14
5664.95
5224.84
4742.8
4218.84
3652.95
3045.13
1044.76
997.113
951.014
906.371
)


20
(
6812.91
6794.58
6739.61
6647.99
6519.72
6354.79
6153.22
5915
5640.12
5328.59
4980.4
4595.55
4174.05
3715.89
3221.06
2689.57
940.397
898.73
858.421
819.383
)


20
(
5768.27
5752.87
5706.66
5629.64
5521.81
5383.18
5213.74
5013.48
4782.42
4520.54
4227.85
3904.35
3550.03
3164.9
2748.94
2302.17
831.798
796.773
762.888
730.073
)


20
(
4635.37
4623.13
4586.41
4525.21
4439.53
4329.37
4194.73
4035.61
3852
3643.91
3411.33
3154.27
2872.72
2566.69
2236.16
1881.15
712.767
684.935
658.01
631.934
)


20
(
3419.4
3410.52
3383.87
3339.45
3277.27
3197.32
3099.61
2984.12
2850.87
2699.85
2531.05
2344.49
2140.16
1918.05
1678.17
1420.52
572.564
552.365
532.824
513.9
)


20
(
2125.37
2119.99
2103.82
2076.89
2039.18
1990.7
1931.44
1861.41
1780.61
1689.03
1586.67
1473.54
1349.63
1214.95
1069.48
913.244
399.049
386.8
374.95
363.475
)


20
(
772.902
771.095
765.676
756.643
743.996
727.737
707.865
684.379
657.281
626.57
592.247
554.31
512.762
467.601
418.827
366.442
194.042
189.935
185.962
182.114
)


20
(
2447.05
2445.27
2439.91
2430.98
2418.47
2402.38
2382.72
2359.48
2332.66
2302.25
2268.26
2230.67
2189.49
2144.72
2096.34
2044.36
1873.24
1869.17
1865.22
1861.41
)


20
(
3646.09
3640.72
3624.61
3597.76
3560.17
3511.84
3452.76
3382.94
3302.37
3211.05
3108.98
2996.14
2872.55
2738.19
2593.07
2437.17
1924.07
1911.85
1900.02
1888.57
)


20
(
4804.49
4795.62
4769.02
4724.68
4662.6
4582.79
4485.23
4369.93
4236.89
4086.1
3917.56
3731.26
3527.21
3305.39
3065.81
2808.47
1961.49
1941.31
1921.79
1902.89
)


20
(
5904.39
5892.16
5855.48
5794.35
5708.77
5598.73
5464.24
5305.28
5121.87
4913.99
4681.65
4424.83
4143.54
3837.77
3507.52
3152.79
1985.3
1957.49
1930.59
1904.53
)


20
(
6928.76
6913.37
6867.2
6790.24
6682.51
6543.98
6374.67
6174.57
5943.68
5682
5389.52
5066.23
4712.15
4327.25
3911.54
3465.02
1995.46
1960.45
1926.59
1893.79
)


20
(
7861.73
7843.42
7788.48
7696.91
7568.72
7403.9
7202.44
6964.36
6689.63
6378.27
6030.27
5645.62
5224.33
4766.38
4271.78
3740.51
1992.07
1950.42
1910.12
1871.1
)


20
(
8688.79
8667.84
8605
8500.27
8353.65
8165.13
7934.71
7662.4
7348.18
6992.06
6594.03
6154.09
5672.23
5148.46
4582.76
3975.14
1975.39
1927.76
1881.67
1837.04
)


20
(
9397.08
9373.83
9304.08
9187.84
9025.1
8815.85
8560.11
8257.86
7909.11
7513.84
7072.06
6583.77
6048.96
5467.62
4839.76
4165.37
1945.88
1893.01
1841.86
1792.32
)


20
(
9975.56
9950.37
9874.82
9748.9
9572.61
9345.94
9068.91
8741.49
8363.7
7935.53
7456.98
6928.04
6348.71
5718.98
5038.86
4308.33
1904.11
1846.84
1791.43
1737.78
)


20
(
10415.2
10388.5
10308.3
10174.7
9987.64
9747.13
9453.17
9105.76
8704.9
8250.58
7742.79
7181.55
6566.84
5898.66
5177
4401.87
1850.84
1790.08
1731.29
1674.36
)


20
(
10709.1
10681.3
10597.8
10458.6
10263.7
10013.2
9706.91
9344.98
8927.37
8454.07
7925.07
7340.38
6699.98
6003.89
5252.09
4444.58
1786.99
1723.68
1662.44
1603.13
)


20
(
10852.8
10824.3
10738.7
10596.1
10396.5
10139.9
9826.18
9455.44
9027.67
8542.85
8000.98
7402.06
6746.09
6033.06
5262.97
4435.82
1713.59
1648.75
1586.01
1525.26
)


20
(
10843.9
10815.2
10729
10585.2
10384
10125.3
9809.13
9435.44
9004.25
8515.56
7969.37
7365.68
6704.47
5985.76
5209.53
4375.78
1631.86
1566.5
1503.27
1442.03
)


20
(
10682.8
10654.3
10568.7
10426.1
10226.5
9969.8
9656.09
9285.34
8857.54
8372.69
7830.79
7231.84
6575.84
5862.78
5092.66
4265.47
1543.13
1478.28
1415.55
1354.79
)


20
(
10371.9
10344
10260.5
10121.3
9926.41
9675.82
9369.54
9007.57
8589.91
8116.55
7587.5
7002.74
6362.29
5666.12
4914.25
4106.67
1448.86
1385.55
1324.3
1264.99
)


20
(
9916.25
9889.53
9809.34
9675.7
9488.61
9248.05
8954.04
8606.57
8205.63
7751.23
7243.37
6682.03
6067.23
5398.95
4677.19
3901.95
1350.59
1289.82
1231.02
1174.08
)


20
(
9322.97
9297.78
9222.21
9096.25
8919.91
8693.19
8416.08
8088.58
7710.7
7282.42
6803.76
6274.7
5695.24
5065.38
4385.12
3654.46
1249.8
1192.52
1137.1
1083.44
)


20
(
8601
8577.74
8507.97
8391.68
8228.88
8019.57
7763.73
7461.38
7112.51
6717.12
6275.2
5786.76
5251.79
4670.3
4042.27
3367.71
1147.67
1094.79
1043.63
994.085
)


20
(
7760.63
7739.67
7676.8
7572.02
7425.33
7236.72
7006.2
6733.77
6419.41
6063.14
5664.95
5224.84
4742.8
4218.84
3652.95
3045.13
1044.76
997.113
951.014
906.371
)


20
(
6812.91
6794.58
6739.61
6647.99
6519.72
6354.79
6153.22
5915
5640.12
5328.59
4980.4
4595.55
4174.05
3715.89
3221.06
2689.57
940.397
898.73
858.421
819.383
)


20
(
5768.27
5752.87
5706.66
5629.64
5521.81
5383.18
5213.74
5013.48
4782.42
4520.54
4227.85
3904.35
3550.03
3164.9
2748.94
2302.17
831.798
796.772
762.888
730.073
)


20
(
4635.37
4623.13
4586.41
4525.21
4439.53
4329.37
4194.73
4035.61
3852
3643.91
3411.33
3154.27
2872.73
2566.69
2236.16
1881.15
712.767
684.935
658.01
631.934
)


20
(
3419.4
3410.52
3383.87
3339.45
3277.27
3197.32
3099.61
2984.12
2850.87
2699.85
2531.05
2344.49
2140.16
1918.05
1678.17
1420.52
572.564
552.365
532.824
513.9
)


20
(
2125.37
2119.99
2103.82
2076.89
2039.18
1990.7
1931.44
1861.41
1780.61
1689.03
1586.67
1473.54
1349.63
1214.95
1069.48
913.244
399.049
386.8
374.95
363.475
)


20
(
772.902
771.095
765.676
756.643
743.996
727.737
707.865
684.379
657.281
626.57
592.247
554.31
512.762
467.601
418.828
366.442
194.042
189.935
185.962
182.114
)


20
(
2414.34
2412.57
2407.27
2398.43
2386.05
2370.13
2350.68
2327.68
2301.14
2271.05
2237.41
2200.21
2159.47
2115.16
2067.28
2015.85
1846.52
1842.49
1838.59
1834.81
)


20
(
3600.59
3595.28
3579.34
3552.77
3515.58
3467.75
3409.3
3340.21
3260.49
3170.13
3069.13
2957.48
2835.19
2702.24
2558.64
2404.39
1896.68
1884.59
1872.89
1861.56
)


20
(
4746.71
4737.94
4711.61
4667.74
4606.32
4527.34
4430.81
4316.73
4185.09
4035.88
3869.12
3684.78
3482.88
3263.4
3026.34
2771.71
1933.65
1913.68
1894.37
1875.67
)


20
(
5835.02
5822.92
5786.63
5726.15
5641.47
5532.59
5399.51
5242.23
5060.75
4855.06
4625.16
4371.05
4092.72
3790.18
3463.41
3112.41
1957.23
1929.71
1903.09
1877.31
)


20
(
6848.68
6833.45
6787.76
6711.62
6605.01
6467.95
6300.42
6102.43
5873.98
5615.05
5325.65
5005.77
4655.42
4274.58
3863.25
3421.44
1967.37
1932.73
1899.22
1866.77
)


20
(
7771.96
7753.84
7699.48
7608.88
7482.04
7318.95
7119.62
6884.04
6612.22
6304.14
5959.81
5579.21
5162.36
4709.24
4219.85
3694.19
1964.17
1922.96
1883.09
1844.48
)


20
(
8590.52
8569.8
8507.62
8404
8258.92
8072.38
7844.4
7574.95
7264.05
6911.68
6517.84
6082.54
5605.77
5087.51
4527.78
3926.57
1947.91
1900.77
1855.17
1811.02
)


20
(
9291.64
9268.63
9199.62
9084.6
8923.58
8716.54
8463.49
8164.43
7819.35
7428.26
6991.14
6507.99
5978.82
5403.61
4782.37
4115.09
1919
1866.69
1816.08
1767.07
)


20
(
9864.37
9839.45
9764.7
9640.1
9465.67
9241.4
8967.28
8643.32
8269.52
7845.86
7372.35
6848.99
6275.76
5652.68
4979.73
4256.91
1878.03
1821.37
1766.55
1713.46
)


20
(
10299.8
10273.4
10194
10061.8
9876.74
9638.77
9347.91
9004.17
8607.53
8158
7655.57
7100.24
6492.02
5830.88
5116.84
4349.88
1825.75
1765.63
1707.46
1651.13
)


20
(
10591.1
10563.6
10480.9
10343.2
10150.4
9902.46
9599.45
9241.34
8828.13
8359.82
7836.4
7257.87
6624.23
5935.48
5191.6
4392.61
1763.05
1700.41
1639.81
1581.13
)


20
(
10733.8
10705.6
10620.9
10479.8
10282.3
10028.4
9717.98
9351.16
8927.9
8448.19
7912.03
7319.43
6670.38
5964.87
5202.9
4384.47
1690.96
1626.79
1564.72
1504.61
)


20
(
10725.6
10697.1
10611.8
10469.6
10270.5
10014.6
9701.69
9331.94
8905.3
8421.76
7881.33
7284.01
6629.78
5918.64
5150.6
4325.65
1610.66
1545.99
1483.42
1422.83
)


20
(
10566.7
10538.5
10453.9
10312.8
10115.3
9861.29
9550.89
9184.04
8760.76
8281.02
7744.84
7152.21
6503.12
5797.58
5035.58
4217.12
1523.49
1459.33
1397.25
1337.14
)


20
(
10259.8
10232.3
10149.6
10011.9
9819.01
9571.07
9268.02
8909.87
8496.61
8028.25
7504.77
6926.19
6292.48
5603.66
4859.72
4060.66
1430.88
1368.24
1307.64
1248.94
)


20
(
9809.65
9783.21
9703.87
9571.64
9386.52
9148.5
8857.59
8513.78
8117.07
7667.47
7164.96
6609.54
6001.22
5339.99
4625.84
3858.78
1334.34
1274.2
1216.02
1159.69
)


20
(
9223.31
9198.38
9123.61
8998.98
8824.5
8600.17
8325.98
8001.94
7628.04
7204.28
6730.66
6207.18
5633.84
5010.62
4337.54
3614.58
1235.29
1178.61
1123.78
1070.68
)


20
(
8509.59
8486.58
8417.54
8302.48
8141.4
7934.29
7681.15
7381.99
7036.8
6645.58
6208.32
5725.03
5195.71
4620.34
3998.94
3331.49
1134.88
1082.55
1031.93
982.907
)


20
(
7678.62
7657.89
7595.68
7492.01
7346.86
7160.25
6932.16
6662.6
6351.56
5999.04
5605.05
5169.58
4692.63
4174.19
3614.28
3012.87
1033.6
986.448
940.836
896.663
)


20
(
6741.31
6723.18
6668.79
6578.13
6451.21
6288.03
6088.58
5852.87
5580.89
5272.64
4928.13
4547.34
4130.29
3676.95
3187.35
2661.46
930.741
889.513
849.629
811.003
)


20
(
5707.94
5692.7
5646.98
5570.77
5464.08
5326.91
5159.25
4961.11
4732.49
4473.37
4183.77
3863.68
3513.1
3132.02
2720.46
2278.39
823.535
788.878
755.351
722.882
)


20
(
4587.09
4574.98
4538.64
4478.09
4393.31
4284.31
4151.09
3993.65
3811.98
3606.08
3375.96
3121.61
2843.03
2540.22
2213.18
1861.91
705.853
678.315
651.674
625.873
)


20
(
3383.96
3375.18
3348.81
3304.86
3243.33
3164.23
3067.54
2953.27
2821.43
2672
2504.99
2320.39
2118.21
1898.45
1661.1
1406.16
567.15
547.164
527.829
509.105
)


20
(
2103.67
2098.34
2082.35
2055.7
2018.39
1970.42
1911.79
1842.49
1762.54
1671.93
1570.65
1458.71
1336.11
1202.84
1058.92
904.323
395.551
383.431
371.707
360.352
)


20
(
765.611
763.824
758.461
749.523
737.01
720.922
701.259
678.021
651.208
620.821
586.859
549.323
508.212
463.527
415.268
363.434
192.851
188.788
184.856
181.049
)


20
(
2454.95
2453.16
2447.79
2438.83
2426.29
2410.17
2390.45
2367.15
2340.26
2309.77
2275.69
2238.01
2196.72
2151.83
2103.33
2051.21
1879.65
1875.57
1871.61
1867.79
)


20
(
3657.18
3651.79
3635.64
3608.72
3571.04
3522.58
3463.35
3393.34
3312.56
3221.01
3118.66
3005.54
2881.62
2746.91
2601.41
2445.11
1930.67
1918.41
1906.56
1895.08
)


20
(
4818.64
4809.75
4783.08
4738.62
4676.39
4596.36
4498.55
4382.95
4249.56
4098.38
3929.4
3742.61
3538.03
3315.64
3075.43
2817.41
1968.22
1947.99
1928.42
1909.47
)


20
(
5921.44
5909.18
5872.41
5811.12
5725.31
5614.98
5480.14
5320.77
5136.88
4928.45
4695.5
4438.02
4155.99
3849.42
3518.31
3162.65
1992.12
1964.24
1937.26
1911.14
)


20
(
6948.49
6933.06
6886.77
6809.61
6701.59
6562.7
6392.95
6192.33
5960.84
5698.47
5405.22
5081.1
4726.08
4340.18
3923.39
3475.7
2002.3
1967.21
1933.25
1900.37
)


20
(
7883.88
7865.52
7810.43
7718.63
7590.1
7424.85
7222.87
6984.16
6708.72
6396.55
6047.64
5661.99
5239.59
4780.45
4284.55
3751.9
1998.88
1957.13
1916.73
1877.6
)


20
(
8713.06
8692.06
8629.06
8524.06
8377.05
8188.04
7957.02
7683.99
7368.95
7011.9
6612.83
6171.74
5688.63
5163.48
4596.31
3987.1
1982.13
1934.37
1888.17
1843.42
)


20
(
9423.15
9399.84
9329.91
9213.36
9050.2
8840.41
8583.99
8280.96
7931.29
7534.99
7092.06
6602.49
6066.28
5483.43
4853.93
4177.77
1952.48
1899.47
1848.19
1798.53
)


20
(
10003.1
9977.82
9902.07
9775.82
9599.06
9371.81
9094.05
8765.78
8387.01
7957.72
7477.91
6947.59
6366.74
5735.37
5053.47
4321.04
1910.53
1853.11
1797.56
1743.77
)


20
(
10443.8
10417
10336.6
10202.6
10015.1
9773.96
9479.23
9130.91
8729
8273.49
7764.39
7201.68
6585.36
5915.43
5191.89
4414.73
1857.04
1796.11
1737.17
1680.09
)


20
(
10738.4
10710.5
10626.7
10487.2
10291.8
10040.6
9733.53
9370.66
8951.95
8477.41
7947.03
7360.81
6718.75
6020.83
5267.07
4457.45
1792.91
1729.44
1668.04
1608.57
)


20
(
10882.3
10853.7
10767.9
10625
10424.8
10167.5
9852.99
9481.29
9052.4
8566.31
8023.03
7422.54
6764.86
6049.97
5277.86
4448.55
1719.21
1654.19
1591.3
1530.39
)


20
(
10873.3
10844.5
10758
10613.9
10412.2
10152.8
9835.77
9461.1
9028.78
8538.82
7991.2
7385.93
6723
6002.41
5224.15
4388.23
1637.13
1571.6
1508.2
1446.8
)


20
(
10711.5
10683
10597.2
10454.2
10254.1
9996.71
9682.18
9310.46
8881.54
8395.43
7852.12
7251.6
6593.88
5878.96
5106.82
4277.47
1548.02
1483
1420.1
1359.19
)


20
(
10399.7
10371.8
10288
10148.5
9953.05
9701.8
9394.73
9031.81
8613.06
8138.46
7608.03
7021.74
6379.61
5681.63
4927.8
4118.11
1453.35
1389.87
1328.47
1268.99
)


20
(
9942.7
9915.9
9835.51
9701.52
9513.94
9272.76
8977.98
8629.59
8227.61
7772.02
7262.83
6700.03
6083.62
5413.59
4689.95
3912.68
1354.66
1293.72
1234.77
1177.69
)


20
(
9347.7
9322.44
9246.67
9120.39
8943.59
8716.27
8438.44
8110.09
7731.21
7301.82
6821.9
6291.46
5710.49
5078.99
4396.95
3664.38
1253.43
1196
1140.44
1086.63
)


20
(
8623.68
8600.36
8530.41
8413.82
8250.6
8040.73
7784.23
7481.09
7131.31
6734.88
6291.81
5802.09
5265.73
4682.71
4053.04
3376.71
1150.88
1097.86
1046.57
996.891
)


20
(
7780.98
7759.97
7696.94
7591.88
7444.81
7255.71
7024.58
6751.44
6436.26
6079.06
5679.83
5238.56
4755.27
4229.94
3662.57
3053.16
1047.56
999.789
953.57
908.81
)


20
(
6830.68
6812.31
6757.19
6665.33
6536.72
6371.37
6169.27
5930.42
5654.83
5342.48
4993.38
4607.53
4184.93
3725.56
3229.44
2696.56
942.821
901.045
860.631
821.491
)


20
(
5783.25
5767.81
5721.48
5644.26
5536.15
5397.15
5227.27
5026.49
4794.82
4532.26
4238.81
3914.46
3559.21
3173.07
2756.03
2308.09
833.876
798.758
764.785
731.885
)


20
(
4647.37
4635.1
4598.28
4536.92
4451.02
4340.57
4205.57
4046.03
3861.95
3653.31
3420.13
3162.4
2880.11
2573.28
2241.89
1885.94
714.51
686.605
659.609
633.466
)


20
(
3428.21
3419.31
3392.59
3348.05
3285.71
3205.55
3107.58
2991.79
2858.19
2706.78
2537.54
2350.49
2145.62
1922.94
1682.43
1424.11
573.934
553.682
534.09
515.116
)


20
(
2130.77
2125.37
2109.17
2082.16
2044.36
1995.75
1936.34
1866.12
1785.1
1693.28