/*--------------------------------*- C++ -*----------------------------------*\
| =========                 |                                                 |
| \\      /  F ield         | OpenFOAM: The Open Source CFD Toolbox           |
|  \\    /   O peration     | Version:  2212                                  |
|   \\  /    A nd           | Website:  www.openfoam.com                      |
|    \\/     M anipulation  |                                                 |
\*---------------------------------------------------------------------------*/
FoamFile
{
    version     2.0;
    format      ascii;
    arch        "LSB;label=32;scalar=64";
    class       volVectorField;
    location    "55/fluidRegion";
    object      U;
}
// * * * * * * * * * * * * * * * * * * * * * * * * * * * * * * * * * * * * * //

dimensions      [0 1 -1 0 0 0 0];

internalField   nonuniform List<vector> 
350
(
(-1.29942e-09 -7.50221e-10 -14.9676)
(-1.48156e-09 -8.55376e-10 -14.9665)
(-1.05238e-09 -6.0759e-10 -14.9655)
(-4.73465e-10 -2.73354e-10 -14.9645)
(8.88116e-11 5.12753e-11 -14.9634)
(5.77884e-10 3.3364e-10 -14.9622)
(9.5776e-10 5.52962e-10 -14.9609)
(1.20164e-09 6.93768e-10 -14.9596)
(1.32734e-09 7.66338e-10 -14.9582)
(1.32227e-09 7.63411e-10 -14.9569)
(1.2094e-09 6.98244e-10 -14.9557)
(9.92127e-10 5.72803e-10 -14.9544)
(6.66773e-10 3.8496e-10 -14.9532)
(2.79174e-10 1.6118e-10 -14.9521)
(-1.31951e-10 -7.61817e-11 -14.951)
(-4.93129e-10 -2.84707e-10 -14.9499)
(-7.61179e-10 -4.39465e-10 -14.9488)
(-9.04742e-10 -5.22351e-10 -14.9477)
(-9.2989e-10 -5.36871e-10 -14.9467)
(-8.69381e-10 -5.01936e-10 -14.9455)
(-7.52751e-10 -4.346e-10 -14.9443)
(-6.06594e-10 -3.50216e-10 -14.943)
(-4.12019e-10 -2.37878e-10 -14.9416)
(1.12938e-10 6.52046e-11 -14.9402)
(1.08753e-09 6.27881e-10 -14.9697)
(-1.29942e-09 -7.50221e-10 -14.9676)
(-1.48156e-09 -8.55376e-10 -14.9665)
(-1.05238e-09 -6.0759e-10 -14.9655)
(-4.73465e-10 -2.73354e-10 -14.9645)
(8.88116e-11 5.12753e-11 -14.9634)
(5.77884e-10 3.3364e-10 -14.9622)
(9.5776e-10 5.52962e-10 -14.9609)
(1.20164e-09 6.93768e-10 -14.9596)
(1.32734e-09 7.66338e-10 -14.9582)
(1.32227e-09 7.63411e-10 -14.9569)
(1.2094e-09 6.98244e-10 -14.9557)
(9.92127e-10 5.72803e-10 -14.9544)
(6.66773e-10 3.8496e-10 -14.9532)
(2.79174e-10 1.6118e-10 -14.9521)
(-1.31951e-10 -7.61817e-11 -14.951)
(-4.93129e-10 -2.84707e-10 -14.9499)
(-7.61179e-10 -4.39465e-10 -14.9488)
(-9.04742e-10 -5.22351e-10 -14.9477)
(-9.2989e-10 -5.36871e-10 -14.9467)
(-8.69381e-10 -5.01936e-10 -14.9455)
(-7.52751e-10 -4.346e-10 -14.9443)
(-6.06594e-10 -3.50216e-10 -14.943)
(-4.12019e-10 -2.37878e-10 -14.9416)
(1.12938e-10 6.52046e-11 -14.9402)
(1.08753e-09 6.27881e-10 -14.9697)
(-0.00197514 -0.00114035 -423.649)
(-0.000939444 -0.000542388 -415.672)
(-0.00101811 -0.000587803 -405.581)
(-0.000916164 -0.000528947 -393.165)
(-0.000829334 -0.000478816 -378.616)
(-0.000748901 -0.000432378 -362.138)
(-0.000674407 -0.000389369 -343.939)
(-0.000602189 -0.000347674 -324.235)
(-0.00052421 -0.000302653 -303.245)
(-0.000427277 -0.000246688 -281.198)
(-0.000294813 -0.00017021 -258.333)
(-0.000110569 -6.38372e-05 -234.907)
(0.000130355 7.52606e-05 -211.2)
(0.000408435 0.00023581 -187.524)
(0.000692249 0.00039967 -164.217)
(0.00093407 0.000539285 -141.634)
(0.00109658 0.000633112 -120.12)
(0.00116985 0.000675415 -99.9916)
(0.00117309 0.000677284 -81.5152)
(0.00114045 0.00065844 -64.9125)
(0.00110247 0.000636509 -50.3751)
(0.00106646 0.000615719 -38.0908)
(0.00101718 0.000587271 -28.2684)
(0.00088298 0.000509788 -21.134)
(0.000841167 0.000485647 -16.6338)
(-0.00191437 -0.00112144 -426.38)
(-0.000693696 -0.000399484 -418.361)
(-0.000784531 -0.000453308 -408.237)
(-0.000713939 -0.000412424 -395.768)
(-0.000654101 -0.00037799 -381.148)
(-0.000598681 -0.000345824 -364.583)
(-0.0005472 -0.000315701 -346.282)
(-0.000496834 -0.000286287 -326.462)
(-0.000441794 -0.000253886 -305.344)
(-0.00037261 -0.000213025 -283.156)
(-0.000277777 -0.000157315 -260.138)
(-0.000145954 -8.00038e-05 -236.548)
(2.70048e-05 2.16245e-05 -212.669)
(0.000220041 0.000135385 -188.813)
(0.000415832 0.000251354 -165.324)
(0.000580434 0.000349941 -142.558)
(0.000689099 0.000416996 -120.87)
(0.0007361 0.00044933 -100.578)
(0.000735054 0.000455313 -81.9544)
(0.000709733 0.000448338 -65.2233)
(0.000680748 0.000441461 -50.5781)
(0.000656106 0.000436616 -38.2081)
(0.000628188 0.000433861 -28.3235)
(0.000568251 0.000401431 -21.151)
(0.000600589 0.000399816 -16.6358)
(-0.000874262 -0.000657684 -423.212)
(-0.000505044 -0.000954388 -415.234)
(-0.000491667 -0.000912945 -405.151)
(-0.000447078 -0.000802819 -392.744)
(-0.000405476 -0.000706001 -378.208)
(-0.000367374 -0.000616724 -361.745)
(-0.000331641 -0.000534357 -343.564)
(-0.000295588 -0.000454888 -323.879)
(-0.000253775 -0.000369359 -302.911)
(-0.000198101 -0.000263065 -280.888)
(-0.000119261 -0.000116797 -258.048)
(-1.06172e-05 8.63656e-05 -234.648)
(0.000130587 0.000349829 -210.969)
(0.00028292 0.000665373 -187.321)
(0.000432457 0.000986913 -164.044)
(0.000551846 0.00126152 -141.488)
(0.000624084 0.00144543 -120.002)
(0.000648062 0.00152659 -99.8984)
(0.000637047 0.00152738 -81.4445)
(0.000610094 0.00148701 -64.8613)
(0.000581204 0.00143951 -50.3402)
(0.000555593 0.00138784 -38.0687)
(0.000515566 0.00129828 -28.2554)
(0.000449185 0.00105841 -21.1271)
(0.00039269 0.00083953 -16.6315)
(-0.000973573 -0.000562091 -425.771)
(-0.00091499 -0.000528268 -417.762)
(-0.000881082 -0.000508691 -407.644)
(-0.000784245 -0.000452783 -395.185)
(-0.000697729 -0.000402833 -380.58)
(-0.000618089 -0.000356853 -364.033)
(-0.000544132 -0.000314154 -345.755)
(-0.000471838 -0.000272415 -325.96)
(-0.000392031 -0.000226339 -304.87)
(-0.00029038 -0.000167651 -282.713)
(-0.000149185 -8.61317e-05 -259.729)
(4.63951e-05 2.67861e-05 -236.176)
(0.000300245 0.000173346 -212.335)
(0.000593585 0.000342705 -188.52)
(0.000888981 0.000513252 -165.072)
(0.00113611 0.000655933 -142.348)
(0.00129689 0.000748756 -120.699)
(0.00136308 0.00078697 -100.444)
(0.00135722 0.000783589 -81.8542)
(0.0013157 0.00075962 -65.1525)
(0.00126856 0.000732402 -50.532)
(0.00122105 0.00070497 -38.1817)
(0.00114104 0.000658778 -28.3113)
(0.000949775 0.000548351 -21.1477)
(0.000777479 0.000448876 -16.6356)
(0.000954108 0.000550853 -425.771)
(0.000915365 0.000528485 -417.762)
(0.00087977 0.000507934 -407.644)
(0.000783085 0.000452113 -395.185)
(0.000696102 0.000401894 -380.58)
(0.000616171 0.000355745 -364.033)
(0.000542282 0.000313086 -345.755)
(0.000469811 0.000271245 -325.96)
(0.000390054 0.000225197 -304.87)
(0.000288732 0.000166699 -282.713)
(0.000147629 8.52336e-05 -259.729)
(-4.78114e-05 -2.76038e-05 -236.176)
(-0.000301324 -0.000173969 -212.335)
(-0.000593899 -0.000342887 -188.52)
(-0.000888007 -0.00051269 -165.072)
(-0.00113333 -0.000654325 -142.348)
(-0.00129206 -0.000745971 -120.699)
(-0.0013561 -0.00078294 -100.444)
(-0.00134734 -0.000777887 -81.8542)
(-0.00130246 -0.000751975 -65.1525)
(-0.00125141 -0.000722503 -50.532)
(-0.00119921 -0.00069236 -38.1817)
(-0.00111299 -0.000642586 -28.3113)
(-0.000921378 -0.000531957 -21.1477)
(-0.000749836 -0.000432917 -16.6356)
(0.000992762 0.000435986 -423.212)
(0.00107969 -4.09778e-05 -415.234)
(0.00103567 -3.10169e-05 -405.151)
(0.000918048 -1.45204e-05 -392.745)
(0.000813221 -2.43979e-06 -378.209)
(0.000716769 8.96241e-06 -361.745)
(0.00062761 1.90601e-05 -343.564)
(0.000540751 2.72303e-05 -323.879)
(0.000445852 3.35568e-05 -302.912)
(0.000326146 3.83051e-05 -280.888)
(0.000160196 4.2781e-05 -258.048)
(-6.98969e-05 4.97291e-05 -234.648)
(-0.000368281 5.84026e-05 -210.969)
(-0.000717128 8.35293e-05 -187.321)
(-0.00106949 0.000114067 -164.044)
(-0.00136585 0.000147166 -141.489)
(-0.00155986 0.000175422 -120.002)
(-0.00164056 0.000193852 -99.8984)
(-0.00163375 0.000202674 -81.4445)
(-0.00158306 0.000205285 -64.8613)
(-0.00152472 0.000206195 -50.3401)
(-0.00146418 0.000203801 -38.0686)
(-0.00136311 0.000197571 -28.2554)
(-0.00112217 0.000138194 -21.1271)
(-0.000903993 7.80226e-05 -16.6315)
(0.0019142 0.00112114 -426.38)
(0.00069336 0.000399231 -418.361)
(0.000784192 0.000453334 -408.237)
(0.000713598 0.000412568 -395.768)
(0.000653625 0.000377922 -381.148)
(0.000597965 0.000345899 -364.583)
(0.000546232 0.000316156 -346.282)
(0.00049559 0.000286936 -326.462)
(0.000440241 0.000255106 -305.344)
(0.000370682 0.000215105 -283.156)
(0.000275391 0.000160164 -260.138)
(0.000142966 8.38455e-05 -236.548)
(-3.05817e-05 -1.65473e-05 -212.669)
(-0.000224127 -0.000128632 -188.813)
(-0.000420131 -0.000242608 -165.324)
(-0.000584385 -0.000339101 -142.558)
(-0.00069192 -0.000404106 -120.87)
(-0.000736341 -0.000434447 -100.578)
(-0.000730021 -0.000438257 -81.9544)
(-0.000695064 -0.000429437 -65.2233)
(-0.000650493 -0.000420867 -50.5781)
(-0.000603412 -0.000415886 -38.2081)
(-0.000547038 -0.00040698 -28.3235)
(-0.000466406 -0.000375243 -21.151)
(-0.000478468 -0.000400217 -16.6358)
(0.001975 0.00114027 -423.649)
(0.000939262 0.000542283 -415.672)
(0.00101799 0.000587738 -405.581)
(0.000916065 0.00052889 -393.165)
(0.000829133 0.0004787 -378.616)
(0.000748643 0.000432229 -362.138)
(0.000674134 0.000389211 -343.939)
(0.000601857 0.000347482 -324.235)
(0.000523903 0.000302475 -303.245)
(0.000427029 0.000246545 -281.198)
(0.000294562 0.000170065 -258.333)
(0.000110337 6.37033e-05 -234.907)
(-0.000130489 -7.5338e-05 -211.2)
(-0.000408324 -0.000235746 -187.524)
(-0.000691673 -0.000399337 -164.217)
(-0.000932743 -0.000538519 -141.634)
(-0.00109415 -0.000631705 -120.12)
(-0.0011656 -0.000672961 -99.9916)
(-0.00116571 -0.000673024 -81.5152)
(-0.00112789 -0.000651188 -64.9125)
(-0.00108177 -0.000624561 -50.3751)
(-0.00103456 -0.000597306 -38.0909)
(-0.000968846 -0.000559363 -28.2684)
(-0.000823711 -0.000475569 -21.134)
(-0.000777828 -0.000449079 -16.6338)
(0.000972964 0.00056174 -425.771)
(0.000914246 0.000527839 -417.762)
(0.000880433 0.000508317 -407.644)
(0.000783652 0.00045244 -395.185)
(0.000696735 0.000402259 -380.58)
(0.000616754 0.000356082 -364.033)
(0.000542672 0.000313311 -345.755)
(0.000470005 0.000271357 -325.96)
(0.000389918 0.000225118 -304.87)
(0.000288097 0.000166332 -282.713)
(0.000146456 8.45559e-05 -259.729)
(-4.96956e-05 -2.86917e-05 -236.176)
(-0.000304384 -0.000175736 -212.335)
(-0.000598573 -0.000345585 -188.52)
(-0.000894957 -0.000516702 -165.072)
(-0.00114348 -0.000660187 -142.348)
(-0.00130677 -0.00075446 -120.699)
(-0.00137733 -0.000795198 -100.444)
(-0.00137847 -0.000795857 -81.8542)
(-0.00134804 -0.00077829 -65.1525)
(-0.00131918 -0.000761626 -50.532)
(-0.00129537 -0.000747878 -38.1817)
(-0.00124559 -0.000719141 -28.3113)
(-0.00107726 -0.000621958 -21.1476)
(-0.000910102 -0.000525446 -16.6356)
(0.000873799 0.000657648 -423.212)
(0.000504374 0.000954456 -415.234)
(0.000491027 0.000913035 -405.151)
(0.00044645 0.000802885 -392.744)
(0.000404548 0.00070607 -378.208)
(0.000366086 0.000616887 -361.745)
(0.000330069 0.000534644 -343.564)
(0.000293596 0.000455287 -323.879)
(0.00025136 0.000369911 -302.911)
(0.000195236 0.000263806 -280.888)
(0.000115831 0.000117751 -258.048)
(6.34106e-06 -8.51185e-05 -234.648)
(-0.000135808 -0.000348329 -210.969)
(-0.000289051 -0.000663678 -187.321)
(-0.000439383 -0.000985261 -164.044)
(-0.000559401 -0.00126041 -141.488)
(-0.000632338 -0.00144571 -120.002)
(-0.000657058 -0.0015297 -99.8984)
(-0.00064655 -0.00153598 -81.4445)
(-0.000619712 -0.0015052 -64.8613)
(-0.00059159 -0.00147335 -50.3401)
(-0.000566339 -0.00144362 -38.0686)
(-0.000528656 -0.00138093 -28.2554)
(-0.000466278 -0.00116125 -21.1271)
(-0.000401755 -0.000955869 -16.6315)
(-0.000993054 -0.000436589 -423.212)
(-0.00108002 4.02713e-05 -415.234)
(-0.00103599 3.05954e-05 -405.151)
(-0.00091838 1.42407e-05 -392.745)
(-0.000813686 1.77379e-06 -378.209)
(-0.000717351 -9.71682e-06 -361.745)
(-0.000628262 -1.96177e-05 -343.564)
(-0.000541536 -2.78657e-05 -323.879)
(-0.000446756 -3.39078e-05 -302.912)
(-0.000327158 -3.80926e-05 -280.888)
(-0.000161376 -4.21708e-05 -258.048)
(6.85673e-05 -4.86455e-05 -234.648)
(0.000366612 -5.67388e-05 -210.969)
(0.000715158 -8.07884e-05 -187.321)
(0.0010672 -0.000109812 -164.044)
(0.00136322 -0.000141033 -141.489)
(0.00155678 -0.000167172 -120.002)
(0.00163706 -0.000182937 -99.8984)
(0.00163018 -0.000187472 -81.4445)
(0.00158047 -0.000183714 -64.8613)
(0.00152476 -0.000175196 -50.3401)
(0.0014701 -0.000160493 -38.0686)
(0.00137825 -0.00013371 -28.2554)
(0.00114765 -6.31256e-05 -21.1271)
(0.000939569 -1.72841e-05 -16.6315)
(-0.000954796 -0.000551251 -425.771)
(-0.000916182 -0.000528957 -417.762)
(-0.00088044 -0.000508321 -407.644)
(-0.000783668 -0.00045245 -395.185)
(-0.000697107 -0.000402474 -380.58)
(-0.000617464 -0.000356492 -364.033)
(-0.000543605 -0.00031385 -345.755)
(-0.000471441 -0.000272186 -325.96)
(-0.000391817 -0.000226215 -304.87)
(-0.000290448 -0.00016769 -282.713)
(-0.000149604 -8.63736e-05 -259.729)
(4.56168e-05 2.63368e-05 -236.176)
(0.000298594 0.000172393 -212.335)
(0.000590793 0.000341094 -188.52)
(0.00088455 0.000510694 -165.072)
(0.0011294 0.000652056 -142.348)
(0.00128706 0.00074308 -120.699)
(0.00134925 0.000778988 -100.444)
(0.00133822 0.000772623 -81.8542)
(0.00129067 0.000745169 -65.1525)
(0.00123612 0.000713672 -50.532)
(0.00118209 0.00068248 -38.1817)
(0.00109676 0.000633214 -28.3113)
(0.000908903 0.000524754 -21.1477)
(0.000740529 0.000427543 -16.6356)
)
;

boundaryField
{
    outletCentralUnloaded
    {
        type            zeroGradient;
    }
    inletCentralUnloaded
    {
        type            fixedValue;
        value           uniform (0 0 -15);
    }
    outletFuelElement
    {
        type            zeroGradient;
    }
    inletFuelElement
    {
        type            fixedValue;
        value           uniform (0 0 -15);
    }
    defaultFaces
    {
        type            slip;
    }
    baffle_master
    {
        type            slip;
    }
    baffle_slave
    {
        type            slip;
    }
}


// ************************************************************************* //
