/*--------------------------------*- C++ -*----------------------------------*\
| =========                 |                                                 |
| \\      /  F ield         | OpenFOAM: The Open Source CFD Toolbox           |
|  \\    /   O peration     | Version:  2212                                  |
|   \\  /    A nd           | Website:  www.openfoam.com                      |
|    \\/     M anipulation  |                                                 |
\*---------------------------------------------------------------------------*/
FoamFile
{
    version     2.0;
    format      ascii;
    arch        "LSB;label=32;scalar=64";
    class       volScalarField;
    location    "98/fluidRegion";
    object      T.cladAvForNeutronics;
}
// * * * * * * * * * * * * * * * * * * * * * * * * * * * * * * * * * * * * * //

dimensions      [0 0 0 1 0 0 0];

internalField   nonuniform List<scalar> 
350
(
0
0
0
0
0
0
0
0
0
0
0
0
0
0
0
0
0
0
0
0
0
0
0
0
0
0
0
0
0
0
0
0
0
0
0
0
0
0
0
0
0
0
0
0
0
0
0
0
0
0
1845.9
1883.98
1909.12
1921.31
1920.68
1907.5
1882.2
1845.34
1797.64
1739.93
1673.21
1598.56
1517.21
1430.51
1339.87
1246.78
1152.61
1058.43
964.647
870.429
772.863
665.654
538.048
377.928
186.897
1874.36
1913.05
1938.57
1950.92
1950.22
1936.75
1910.94
1873.37
1824.75
1765.95
1697.97
1621.91
1539.02
1450.65
1358.26
1263.36
1167.37
1071.41
975.955
880.206
781.251
672.711
543.616
381.547
188.12
1841.28
1879.28
1904.37
1916.56
1915.96
1902.84
1877.64
1840.91
1793.37
1735.85
1669.34
1594.92
1513.83
1427.39
1337.03
1244.23
1150.34
1056.45
962.924
868.945
771.598
664.601
537.229
377.4
186.71
1867.96
1906.49
1931.91
1944.21
1943.51
1930.1
1904.39
1866.97
1818.55
1759.99
1692.29
1616.55
1534
1446.01
1354.02
1259.53
1163.96
1068.41
973.34
877.945
779.31
671.077
542.326
380.707
187.837
1867.96
1906.49
1931.91
1944.21
1943.51
1930.1
1904.39
1866.97
1818.55
1759.99
1692.29
1616.55
1534
1446.01
1354.02
1259.53
1163.96
1068.41
973.34
877.945
779.31
671.077
542.326
380.707
187.837
1841.28
1879.28
1904.37
1916.56
1915.96
1902.85
1877.64
1840.91
1793.37
1735.85
1669.34
1594.92
1513.83
1427.39
1337.04
1244.23
1150.35
1056.45
962.924
868.946
771.599
664.601
537.229
377.401
186.71
1874.36
1913.05
1938.57
1950.92
1950.22
1936.75
1910.94
1873.37
1824.75
1765.95
1697.97
1621.91
1539.02
1450.65
1358.26
1263.36
1167.37
1071.41
975.955
880.206
781.251
672.711
543.616
381.547
188.12
1845.9
1883.98
1909.12
1921.31
1920.68
1907.5
1882.2
1845.34
1797.64
1739.93
1673.21
1598.56
1517.21
1430.51
1339.87
1246.78
1152.61
1058.43
964.647
870.429
772.863
665.654
538.048
377.928
186.897
1867.96
1906.49
1931.91
1944.21
1943.51
1930.1
1904.39
1866.97
1818.55
1759.99
1692.29
1616.55
1534
1446.01
1354.02
1259.53
1163.96
1068.41
973.34
877.945
779.31
671.077
542.326
380.707
187.837
1841.28
1879.28
1904.37
1916.56
1915.96
1902.84
1877.64
1840.91
1793.37
1735.85
1669.34
1594.92
1513.83
1427.39
1337.03
1244.23
1150.34
1056.45
962.924
868.945
771.598
664.601
537.229
377.4
186.71
1841.28
1879.28
1904.37
1916.56
1915.96
1902.85
1877.64
1840.91
1793.37
1735.85
1669.34
1594.92
1513.83
1427.39
1337.03
1244.23
1150.35
1056.45
962.924
868.946
771.599
664.601
537.229
377.401
186.71
1867.96
1906.49
1931.91
1944.21
1943.51
1930.1
1904.39
1866.97
1818.55
1759.99
1692.29
1616.55
1534
1446.01
1354.02
1259.53
1163.96
1068.41
973.34
877.945
779.31
671.077
542.326
380.707
187.837
)
;

boundaryField
{
    outletCentralUnloaded
    {
        type            zeroGradient;
    }
    inletCentralUnloaded
    {
        type            zeroGradient;
    }
    outletFuelElement
    {
        type            zeroGradient;
    }
    inletFuelElement
    {
        type            zeroGradient;
    }
    defaultFaces
    {
        type            zeroGradient;
    }
    baffle_master
    {
        type            zeroGradient;
    }
    baffle_slave
    {
        type            zeroGradient;
    }
}


// ************************************************************************* //
