/*--------------------------------*- C++ -*----------------------------------*\
| =========                 |                                                 |
| \\      /  F ield         | OpenFOAM: The Open Source CFD Toolbox           |
|  \\    /   O peration     | Version:  2212                                  |
|   \\  /    A nd           | Website:  www.openfoam.com                      |
|    \\/     M anipulation  |                                                 |
\*---------------------------------------------------------------------------*/
FoamFile
{
    version     2.0;
    format      ascii;
    arch        "LSB;label=32;scalar=64";
    class       volScalarField;
    location    "50/neutroRegion";
    object      TClad;
}
// * * * * * * * * * * * * * * * * * * * * * * * * * * * * * * * * * * * * * //

dimensions      [0 0 0 1 0 0 0];

internalField   nonuniform List<scalar> 
350
(
0
0
0
0
0
0
0
0
0
0
0
0
0
0
0
0
0
0
0
0
0
0
0
0
0
0
0
0
0
0
0
0
0
0
0
0
0
0
0
0
0
0
0
0
0
0
0
0
0
0
1844.02
1882.21
1907.45
1919.75
1919.22
1906.14
1880.93
1844.16
1796.55
1738.93
1672.29
1597.72
1516.45
1429.82
1339.26
1246.23
1152.13
1058.01
964.277
870.104
772.56
665.368
537.809
377.81
186.984
1872.42
1911.23
1936.86
1949.32
1948.72
1935.35
1909.64
1872.16
1823.63
1764.92
1697.02
1621.05
1538.23
1449.94
1357.63
1262.8
1166.87
1070.98
975.576
879.873
780.941
672.418
543.372
381.424
188.206
1839.4
1877.52
1902.72
1915.01
1914.5
1901.49
1876.38
1839.74
1792.28
1734.85
1668.42
1594.09
1513.07
1426.71
1336.42
1243.69
1149.87
1056.03
962.555
868.621
771.296
664.315
536.991
377.283
186.798
1866.04
1904.68
1930.21
1942.62
1942.02
1928.7
1903.09
1865.76
1817.44
1758.97
1691.35
1615.69
1533.22
1445.31
1353.39
1258.97
1163.47
1067.98
972.963
877.614
779.002
670.786
542.082
380.586
187.923
1866.04
1904.68
1930.21
1942.62
1942.02
1928.7
1903.09
1865.76
1817.44
1758.97
1691.35
1615.69
1533.22
1445.31
1353.39
1258.97
1163.47
1067.98
972.963
877.614
779.002
670.786
542.083
380.586
187.923
1839.41
1877.52
1902.72
1915.01
1914.51
1901.49
1876.38
1839.74
1792.29
1734.86
1668.42
1594.09
1513.07
1426.71
1336.42
1243.69
1149.87
1056.03
962.556
868.622
771.297
664.316
536.992
377.284
186.798
1872.42
1911.23
1936.86
1949.32
1948.72
1935.35
1909.64
1872.16
1823.63
1764.92
1697.02
1621.05
1538.23
1449.94
1357.63
1262.8
1166.87
1070.98
975.576
879.873
780.941
672.418
543.372
381.424
188.206
1844.02
1882.21
1907.45
1919.75
1919.22
1906.14
1880.93
1844.16
1796.55
1738.93
1672.29
1597.72
1516.45
1429.82
1339.26
1246.23
1152.13
1058.01
964.277
870.103
772.56
665.368
537.809
377.81
186.984
1866.04
1904.69
1930.21
1942.62
1942.02
1928.7
1903.09
1865.76
1817.44
1758.97
1691.35
1615.69
1533.22
1445.31
1353.39
1258.97
1163.47
1067.98
972.963
877.614
779.002
670.786
542.083
380.586
187.923
1839.4
1877.52
1902.72
1915.01
1914.5
1901.49
1876.38
1839.74
1792.28
1734.85
1668.42
1594.09
1513.07
1426.71
1336.42
1243.69
1149.87
1056.03
962.555
868.621
771.296
664.316
536.991
377.283
186.798
1839.41
1877.52
1902.72
1915.01
1914.51
1901.49
1876.38
1839.74
1792.29
1734.85
1668.42
1594.09
1513.07
1426.71
1336.42
1243.69
1149.87
1056.03
962.556
868.622
771.297
664.316
536.992
377.284
186.798
1866.04
1904.68
1930.21
1942.62
1942.02
1928.7
1903.09
1865.76
1817.44
1758.97
1691.35
1615.69
1533.22
1445.31
1353.39
1258.97
1163.47
1067.98
972.963
877.614
779.002
670.786
542.082
380.585
187.923
)
;

boundaryField
{
    outletCentralUnloaded
    {
        type            zeroGradient;
    }
    inletCentralUnloaded
    {
        type            zeroGradient;
    }
    outletFuelElement
    {
        type            zeroGradient;
    }
    inletFuelElement
    {
        type            zeroGradient;
    }
    defaultFaces
    {
        type            zeroGradient;
    }
}


// ************************************************************************* //
