/*--------------------------------*- C++ -*----------------------------------*\
| =========                 |                                                 |
| \\      /  F ield         | OpenFOAM: The Open Source CFD Toolbox           |
|  \\    /   O peration     | Version:  2212                                  |
|   \\  /    A nd           | Website:  www.openfoam.com                      |
|    \\/     M anipulation  |                                                 |
\*---------------------------------------------------------------------------*/
FoamFile
{
    version     2.0;
    format      ascii;
    arch        "LSB;label=32;scalar=64";
    class       volScalarField;
    location    "50/neutroRegion";
    object      TCool;
}
// * * * * * * * * * * * * * * * * * * * * * * * * * * * * * * * * * * * * * //

dimensions      [0 0 0 1 0 0 0];

internalField   nonuniform List<scalar> 
350
(
83.2889
83.2893
83.2898
83.2903
83.2909
83.2914
83.2919
83.2923
83.2927
83.2931
83.2936
83.294
83.2945
83.295
83.2955
83.2959
83.2963
83.2968
83.2972
83.2977
83.2983
83.2988
83.2993
83.2998
83.3002
83.2889
83.2893
83.2898
83.2903
83.2909
83.2914
83.2919
83.2923
83.2927
83.2931
83.2936
83.294
83.2945
83.295
83.2955
83.2959
83.2963
83.2968
83.2972
83.2977
83.2983
83.2988
83.2993
83.2998
83.3002
1822.14
1816.05
1797.55
1766.86
1724.33
1670.45
1605.84
1531.24
1447.55
1355.76
1257.02
1152.67
1044.22
933.426
822.24
712.763
607.099
507.213
414.812
331.34
258.041
196.113
146.781
111.208
90.0905
1850.35
1844.48
1825.98
1795.07
1752.11
1697.58
1632.12
1556.49
1471.57
1378.39
1278.1
1172.03
1061.73
948.959
835.715
724.15
616.44
514.617
420.453
335.428
260.814
197.821
147.684
111.572
90.1678
1817.55
1811.45
1792.97
1762.33
1719.89
1666.13
1601.67
1527.26
1443.77
1352.21
1253.74
1149.67
1041.52
931.043
820.185
711.036
605.692
506.105
413.975
330.737
257.636
195.866
146.651
111.155
90.0782
1844.01
1838.07
1819.56
1788.68
1745.81
1691.41
1626.14
1550.73
1466.09
1373.21
1273.27
1167.59
1057.71
945.383
832.609
721.521
614.281
512.904
419.147
334.481
260.171
197.425
147.474
111.487
90.1501
1844.01
1838.07
1819.56
1788.68
1745.81
1691.41
1626.14
1550.73
1466.09
1373.21
1273.27
1167.59
1057.71
945.383
832.609
721.521
614.281
512.904
419.147
334.481
260.171
197.425
147.474
111.487
90.1501
1817.56
1811.45
1792.97
1762.34
1719.89
1666.13
1601.67
1527.26
1443.77
1352.22
1253.74
1149.67
1041.52
931.044
820.186
711.038
605.693
506.106
413.976
330.738
257.636
195.866
146.652
111.155
90.0782
1850.35
1844.48
1825.98
1795.07
1752.11
1697.58
1632.12
1556.49
1471.57
1378.39
1278.1
1172.03
1061.73
948.959
835.715
724.15
616.44
514.617
420.453
335.428
260.814
197.821
147.684
111.572
90.1678
1822.14
1816.05
1797.55
1766.86
1724.33
1670.45
1605.84
1531.24
1447.55
1355.76
1257.02
1152.67
1044.22
933.426
822.24
712.763
607.099
507.213
414.812
331.34
258.041
196.113
146.781
111.208
90.0905
1844.01
1838.07
1819.56
1788.68
1745.81
1691.41
1626.14
1550.73
1466.09
1373.21
1273.27
1167.59
1057.71
945.383
832.609
721.522
614.281
512.904
419.147
334.481
260.171
197.425
147.474
111.487
90.1501
1817.55
1811.45
1792.97
1762.33
1719.89
1666.13
1601.67
1527.26
1443.77
1352.21
1253.74
1149.67
1041.52
931.043
820.185
711.037
605.693
506.105
413.975
330.738
257.636
195.866
146.651
111.155
90.0782
1817.56
1811.45
1792.97
1762.34
1719.89
1666.13
1601.67
1527.26
1443.77
1352.22
1253.74
1149.67
1041.52
931.044
820.186
711.037
605.693
506.106
413.976
330.738
257.636
195.866
146.652
111.155
90.0782
1844.01
1838.07
1819.56
1788.68
1745.81
1691.41
1626.14
1550.73
1466.09
1373.21
1273.27
1167.59
1057.71
945.383
832.608
721.521
614.281
512.904
419.147
334.481
260.171
197.425
147.474
111.487
90.1501
)
;

boundaryField
{
    outletCentralUnloaded
    {
        type            zeroGradient;
    }
    inletCentralUnloaded
    {
        type            zeroGradient;
    }
    outletFuelElement
    {
        type            zeroGradient;
    }
    inletFuelElement
    {
        type            zeroGradient;
    }
    defaultFaces
    {
        type            zeroGradient;
    }
}


// ************************************************************************* //
