/*--------------------------------*- C++ -*----------------------------------*\
| =========                 |                                                 |
| \\      /  F ield         | OpenFOAM: The Open Source CFD Toolbox           |
|  \\    /   O peration     | Version:  2212                                  |
|   \\  /    A nd           | Website:  www.openfoam.com                      |
|    \\/     M anipulation  |                                                 |
\*---------------------------------------------------------------------------*/
FoamFile
{
    version     2.0;
    format      ascii;
    arch        "LSB;label=32;scalar=64";
    class       volTensorField;
    location    "70/fluidRegion";
    object      KdTotU;
}
// * * * * * * * * * * * * * * * * * * * * * * * * * * * * * * * * * * * * * //

dimensions      [1 -2 -2 0 0 0 0];

internalField   nonuniform List<tensor> 
17
(
(5252.12 0 0 0 5252.12 0 0 0 5252.12)
(5252.12 0 0 0 5252.12 0 0 0 5252.12)
(9260.25 0 0 0 9260.25 0 0 0 9260.25)
(13526 0 0 0 13526 0 0 0 13526)
(15888.9 0 0 0 15888.9 0 0 0 15888.9)
(18468.4 0 0 0 18468.4 0 0 0 18468.4)
(21605.2 0 0 0 21605.2 0 0 0 21605.2)
(25676 0 0 0 25676 0 0 0 25676)
(31040.6 0 0 0 31040.6 0 0 0 31040.6)
(38036.4 0 0 0 38036.4 0 0 0 38036.4)
(46855.6 0 0 0 46855.6 0 0 0 46855.6)
(57413.4 0 0 0 57413.4 0 0 0 57413.4)
(69308.9 0 0 0 69308.9 0 0 0 69308.9)
(81944.7 0 0 0 81944.7 0 0 0 81944.7)
(94740.4 0 0 0 94740.4 0 0 0 94740.4)
(107257 0 0 0 107257 0 0 0 107257)
(119487 0 0 0 119487 0 0 0 119487)
)
;

boundaryField
{
    inlet
    {
        type            zeroGradient;
    }
    outlet
    {
        type            zeroGradient;
    }
    fixedWalls
    {
        type            zeroGradient;
    }
}


// ************************************************************************* //
