/*--------------------------------*- C++ -*----------------------------------*\
| =========                 |                                                 |
| \\      /  F ield         | OpenFOAM: The Open Source CFD Toolbox           |
|  \\    /   O peration     | Version:  2212                                  |
|   \\  /    A nd           | Website:  www.openfoam.com                      |
|    \\/     M anipulation  |                                                 |
\*---------------------------------------------------------------------------*/
FoamFile
{
    version     2.0;
    format      ascii;
    arch        "LSB;label=32;scalar=64";
    class       volScalarField;
    location    "70/fluidRegion";
    object      p;
}
// * * * * * * * * * * * * * * * * * * * * * * * * * * * * * * * * * * * * * //

dimensions      [1 -1 -2 0 0 0 0];

internalField   nonuniform List<scalar> 
17
(
1.49358e+07
1.49349e+07
1.49333e+07
1.49293e+07
1.49247e+07
1.49196e+07
1.49138e+07
1.49071e+07
1.48993e+07
1.48898e+07
1.48783e+07
1.48643e+07
1.48475e+07
1.48276e+07
1.48046e+07
1.47784e+07
1.47493e+07
)
;

boundaryField
{
    inlet
    {
        type            calculated;
        value           uniform 1.49363e+07;
    }
    outlet
    {
        type            calculated;
        value           uniform 1.47336e+07;
    }
    fixedWalls
    {
        type            calculated;
        value           nonuniform List<scalar> 
68
(
1.49358e+07
1.49349e+07
1.49333e+07
1.49293e+07
1.49247e+07
1.49196e+07
1.49138e+07
1.49071e+07
1.48993e+07
1.48898e+07
1.48783e+07
1.48643e+07
1.48475e+07
1.48276e+07
1.48046e+07
1.47784e+07
1.47493e+07
1.49358e+07
1.49349e+07
1.49333e+07
1.49293e+07
1.49247e+07
1.49196e+07
1.49138e+07
1.49071e+07
1.48993e+07
1.48898e+07
1.48783e+07
1.48643e+07
1.48475e+07
1.48276e+07
1.48046e+07
1.47784e+07
1.47493e+07
1.49358e+07
1.49349e+07
1.49333e+07
1.49293e+07
1.49247e+07
1.49196e+07
1.49138e+07
1.49071e+07
1.48993e+07
1.48898e+07
1.48783e+07
1.48643e+07
1.48475e+07
1.48276e+07
1.48046e+07
1.47784e+07
1.47493e+07
1.49358e+07
1.49349e+07
1.49333e+07
1.49293e+07
1.49247e+07
1.49196e+07
1.49138e+07
1.49071e+07
1.48993e+07
1.48898e+07
1.48783e+07
1.48643e+07
1.48475e+07
1.48276e+07
1.48046e+07
1.47784e+07
1.47493e+07
)
;
    }
}


// ************************************************************************* //
