/*--------------------------------*- C++ -*----------------------------------*\
| =========                 |                                                 |
| \\      /  F ield         | OpenFOAM: The Open Source CFD Toolbox           |
|  \\    /   O peration     | Version:  2212                                  |
|   \\  /    A nd           | Website:  www.openfoam.com                      |
|    \\/     M anipulation  |                                                 |
\*---------------------------------------------------------------------------*/
FoamFile
{
    version     2.0;
    format      ascii;
    arch        "LSB;label=32;scalar=64";
    class       volScalarField;
    location    "70/fluidRegion";
    object      p_rgh;
}
// * * * * * * * * * * * * * * * * * * * * * * * * * * * * * * * * * * * * * //

dimensions      [1 -1 -2 0 0 0 0];

internalField   nonuniform List<scalar> 
17
(
1.4936e+07
1.49354e+07
1.49342e+07
1.49308e+07
1.49267e+07
1.49222e+07
1.49169e+07
1.49106e+07
1.49031e+07
1.4894e+07
1.48828e+07
1.48691e+07
1.48524e+07
1.48327e+07
1.48099e+07
1.47839e+07
1.4755e+07
)
;

boundaryField
{
    inlet
    {
        type            fixedFluxPressure;
        gradient        uniform 12087.9;
        value           uniform 1.49363e+07;
    }
    outlet
    {
        type            fixedValue;
        value           uniform 1.47394e+07;
    }
    fixedWalls
    {
        type            fixedFluxPressure;
        gradient        uniform 0;
        value           nonuniform List<scalar> 
68
(
1.4936e+07
1.49354e+07
1.49342e+07
1.49308e+07
1.49267e+07
1.49222e+07
1.49169e+07
1.49106e+07
1.49031e+07
1.4894e+07
1.48828e+07
1.48691e+07
1.48524e+07
1.48327e+07
1.48099e+07
1.47839e+07
1.4755e+07
1.4936e+07
1.49354e+07
1.49342e+07
1.49308e+07
1.49267e+07
1.49222e+07
1.49169e+07
1.49106e+07
1.49031e+07
1.4894e+07
1.48828e+07
1.48691e+07
1.48524e+07
1.48327e+07
1.48099e+07
1.47839e+07
1.4755e+07
1.4936e+07
1.49354e+07
1.49342e+07
1.49308e+07
1.49267e+07
1.49222e+07
1.49169e+07
1.49106e+07
1.49031e+07
1.4894e+07
1.48828e+07
1.48691e+07
1.48524e+07
1.48327e+07
1.48099e+07
1.47839e+07
1.4755e+07
1.4936e+07
1.49354e+07
1.49342e+07
1.49308e+07
1.49267e+07
1.49222e+07
1.49169e+07
1.49106e+07
1.49031e+07
1.4894e+07
1.48828e+07
1.48691e+07
1.48524e+07
1.48327e+07
1.48099e+07
1.47839e+07
1.4755e+07
)
;
    }
}


// ************************************************************************* //
