# Region      : all fluidRegion
# Cells       : 350
# Volume      : 2.936815e-03
# Time        	volIntegrate(powerDensity.nuclearFuelPin)
1             
2             
3             
4             
5             
6             
7             
8             
9             
10            
