/*--------------------------------*- C++ -*----------------------------------*\
| =========                 |                                                 |
| \\      /  F ield         | OpenFOAM: The Open Source CFD Toolbox           |
|  \\    /   O peration     | Version:  2212                                  |
|   \\  /    A nd           | Website:  www.openfoam.com                      |
|    \\/     M anipulation  |                                                 |
\*---------------------------------------------------------------------------*/
FoamFile
{
    version     2.0;
    format      ascii;
    arch        "LSB;label=32;scalar=64";
    class       volTensorField;
    location    "180/fluidRegion";
    object      KdTotU;
}
// * * * * * * * * * * * * * * * * * * * * * * * * * * * * * * * * * * * * * //

dimensions      [1 -2 -2 0 0 0 0];

internalField   nonuniform List<tensor> 
17
(
(5252.12 0 0 0 5252.12 0 0 0 5252.12)
(5252.12 0 0 0 5252.12 0 0 0 5252.12)
(5252.06 0 0 0 5252.06 0 0 0 5252.06)
(5252.25 0 0 0 5252.25 0 0 0 5252.25)
(5252.44 0 0 0 5252.44 0 0 0 5252.44)
(5252.62 0 0 0 5252.62 0 0 0 5252.62)
(5252.81 0 0 0 5252.81 0 0 0 5252.81)
(5253 0 0 0 5253 0 0 0 5253)
(5253.19 0 0 0 5253.19 0 0 0 5253.19)
(5253.37 0 0 0 5253.37 0 0 0 5253.37)
(5253.56 0 0 0 5253.56 0 0 0 5253.56)
(5253.75 0 0 0 5253.75 0 0 0 5253.75)
(5253.94 0 0 0 5253.94 0 0 0 5253.94)
(5254.12 0 0 0 5254.12 0 0 0 5254.12)
(5254.31 0 0 0 5254.31 0 0 0 5254.31)
(5254.5 0 0 0 5254.5 0 0 0 5254.5)
(5254.68 0 0 0 5254.68 0 0 0 5254.68)
)
;

boundaryField
{
    inlet
    {
        type            zeroGradient;
    }
    outlet
    {
        type            zeroGradient;
    }
    fixedWalls
    {
        type            zeroGradient;
    }
}


// ************************************************************************* //
