/*--------------------------------*- C++ -*----------------------------------*\
| =========                 |                                                 |
| \\      /  F ield         | OpenFOAM: The Open Source CFD Toolbox           |
|  \\    /   O peration     | Version:  2212                                  |
|   \\  /    A nd           | Website:  www.openfoam.com                      |
|    \\/     M anipulation  |                                                 |
\*---------------------------------------------------------------------------*/
FoamFile
{
    version     2.0;
    format      ascii;
    arch        "LSB;label=32;scalar=64";
    class       volVectorField;
    location    "200/thermoMechanicalRegion";
    object      meshDisp;
}
// * * * * * * * * * * * * * * * * * * * * * * * * * * * * * * * * * * * * * //

dimensions      [0 1 0 0 0 0 0];

internalField   nonuniform List<vector> 
23340
(
(1.701494e-05 9.929998e-06 -1.218715e-07)
(-2.756703e-05 -1.580483e-05 -1.218715e-07)
(-1.452112e-05 -8.268192e-06 -1.218715e-07)
(-3.297225e-07 1.994494e-05 -1.218715e-07)
(-3.405186e-07 -3.152305e-05 -1.218715e-07)
(-3.512794e-07 -1.644811e-05 -1.218715e-07)
(1.701428e-05 -1.009879e-05 -1.218715e-07)
(-2.756769e-05 1.563273e-05 -1.218715e-07)
(-1.452176e-05 8.092744e-06 -1.218715e-07)
(-3.310568e-07 -2.011249e-05 -1.218715e-07)
(-3.418497e-07 3.135219e-05 -1.218715e-07)
(-3.525997e-07 1.627392e-05 -1.218715e-07)
(-1.767572e-05 -1.009756e-05 -1.218715e-07)
(2.688466e-05 1.563395e-05 -1.218715e-07)
(1.381722e-05 8.093974e-06 -1.218715e-07)
(-1.767504e-05 9.931202e-06 -1.218715e-07)
(2.688534e-05 -1.580362e-05 -1.218715e-07)
(1.38179e-05 -8.26697e-06 -1.218715e-07)
(-3.317288e-07 0.0002007242 0.01131053)
(-3.425214e-07 0.0002815531 0.01131053)
(-3.532682e-07 0.0002702059 0.01131053)
(-0.0001580822 0.0004297298 0.01155304)
(-0.000186571 0.0005090757 0.01155304)
(-0.0001875005 0.0005257445 0.01155304)
(-0.0001742604 0.0007261992 0.01162384)
(-0.0001988323 0.0008253287 0.01162384)
(-0.0002146206 0.000897943 0.01162384)
(0.0001735949 0.0007262004 0.01162384)
(0.0001981452 0.0008253299 0.01162384)
(0.000213912 0.0008979442 0.01162384)
(-3.33071e-07 0.0008651383 0.01159775)
(-3.438609e-07 0.0009755306 0.01159775)
(-3.545988e-07 0.001083097 0.01159775)
(0.0001574181 0.000429731 0.01155304)
(0.0001858852 0.0005090769 0.01155304)
(0.0001867933 0.0005257458 0.01155304)
(-0.0001742366 0.000100319 0.01131053)
(-0.0002442488 0.0001407326 0.01131053)
(-0.0002344341 0.0001350581 0.01131053)
(-0.0004514369 7.820615e-05 0.01155304)
(-0.0005344037 9.321567e-05 0.01155304)
(-0.0005493111 0.0001007535 0.01155304)
(-0.0002936877 0.0003514375 0.01155304)
(-0.0003481765 0.0004157722 0.01155304)
(-0.0003621651 0.0004249015 0.01155304)
(-0.0007162764 0.0002124302 0.01162385)
(-0.0008144179 0.0002407235 0.01162385)
(-0.000885205 0.0002633661 0.01162385)
(-0.0007496376 0.0004325249 0.01159776)
(-0.0008452525 0.0004877202 0.01159776)
(-0.0009384197 0.0005415023 0.01159776)
(-0.0005423496 0.0005136816 0.01162384)
(-0.00061593 0.0005845161 0.01162384)
(-0.0006709395 0.0006344862 0.01162384)
(-0.000716275 -0.0002126027 0.01162384)
(-0.0008144166 -0.0002408994 0.01162384)
(-0.0008852036 -0.0002635454 0.01162384)
(-0.0004514362 -7.837746e-05 0.01155304)
(-0.000534403 -9.339029e-05 0.01155304)
(-0.0005493105 -0.0001009316 0.01155304)
(-0.0001742353 -0.000100489 0.01131053)
(-0.0002442475 -0.0001409059 0.01131053)
(-0.0002344329 -0.0001352349 0.01131053)
(-0.000749635 -0.0004326974 0.01159775)
(-0.0008452498 -0.000487896 0.01159775)
(-0.000938417 -0.0005416815 0.01159775)
(-0.0002936851 -0.0003516075 0.01155304)
(-0.0003481739 -0.0004159455 0.01155304)
(-0.0003621625 -0.0004250782 0.01155304)
(-0.0005423464 -0.0005138529 0.01162384)
(-0.0006159267 -0.0005846907 0.01162384)
(-0.0006709363 -0.0006346641 0.01162384)
(-0.000158079 -0.0004298986 0.01155304)
(-0.0001865677 -0.0005092478 0.01155304)
(-0.0001874973 -0.0005259199 0.01155304)
(0.0001574215 -0.0004298974 0.01155304)
(0.0001858886 -0.0005092465 0.01155304)
(0.0001867967 -0.0005259187 0.01155304)
(-0.0001742558 -0.0007263679 0.01162384)
(-0.0001988277 -0.0008255007 0.01162384)
(-0.0002146161 -0.0008981184 0.01162384)
(-3.290601e-07 -0.0002008917 0.01131053)
(-3.398589e-07 -0.0002817239 0.01131053)
(-3.506299e-07 -0.0002703801 0.01131053)
(-3.277263e-07 -0.0008653058 0.01159776)
(-3.385325e-07 -0.0009757014 0.01159776)
(-3.493266e-07 -0.001083271 0.01159776)
(0.0001735997 -0.0007263667 0.01162384)
(0.00019815 -0.0008254994 0.01162384)
(0.0002139168 -0.0008981171 0.01162384)
(0.0005416889 -0.0005138492 0.01162384)
(0.0006152476 -0.000584687 0.01162384)
(0.0006702356 -0.0006346603 0.01162384)
(0.0007489768 -0.0004326925 0.01159775)
(0.00084457 -0.0004878911 0.01159775)
(0.0009377156 -0.0005416765 0.01159775)
(0.0004507761 -7.837381e-05 0.01155303)
(0.0005337213 -9.338663e-05 0.01155303)
(0.0005486071 -0.0001009279 0.01155303)
(0.0002930269 -0.000351605 0.01155304)
(0.0003474942 -0.000415943 0.01155304)
(0.0003614612 -0.0004250756 0.01155304)
(0.0007156155 -0.0002125978 0.01162384)
(0.0008137354 -0.0002408945 0.01162384)
(0.0008845009 -0.0002635404 0.01162384)
(0.0001735759 -0.0001004866 0.01131052)
(0.0002435664 -0.0001409035 0.01131052)
(0.0002337302 -0.0001352324 0.01131052)
(0.000715614 0.0002124349 0.01162384)
(0.000813734 0.0002407283 0.01162384)
(0.0008844994 0.0002633708 0.01162384)
(0.0001735745 0.0001003214 0.01131053)
(0.000243565 0.000140735 0.01131053)
(0.0002337288 0.0001350606 0.01131053)
(0.0004507754 7.820978e-05 0.01155303)
(0.0005337206 9.321931e-05 0.01155303)
(0.0005486064 0.0001007572 0.01155303)
(0.0007489737 0.0004325295 0.01159775)
(0.000844567 0.0004877249 0.01159775)
(0.0009377125 0.000541507 0.01159775)
(0.0002930241 0.0003514399 0.01155303)
(0.0003474914 0.0004157746 0.01155303)
(0.0003614584 0.0004249039 0.01155303)
(0.0005416853 0.0005136852 0.01162384)
(0.0006152441 0.0005845197 0.01162384)
(0.0006702319 0.0006344898 0.01162384)
(0.0001560533 0.00154444 0.01067373)
(0.0001831952 0.001713095 0.01067373)
(0.0001868922 0.001971945 0.01067373)
(-0.0001567229 0.001544438 0.01067373)
(-0.0001838863 0.001713094 0.01067373)
(-0.0001876048 0.001971944 0.01067373)
(-3.351194e-07 0.001748014 0.01020423)
(-3.459003e-07 0.001917274 0.01020423)
(-3.566303e-07 0.002202465 0.01020423)
(-0.0001734549 0.001270533 0.01118165)
(-0.0001975858 0.001418733 0.01118165)
(-0.0002144003 0.001624314 0.01118165)
(0.0001727867 0.001270534 0.01118164)
(0.0001968961 0.001418735 0.01118164)
(0.0002136891 0.001624315 0.01118164)
(-3.337457e-07 0.001138094 0.01137536)
(-3.445331e-07 0.001274859 0.01137536)
(-3.552647e-07 0.001446491 0.01137536)
(-0.001014161 0.0007851487 0.01118165)
(-0.001130459 0.0008801368 0.01118165)
(-0.001300107 0.0009974785 0.01118165)
(-0.001514233 0.0008739616 0.01020424)
(-0.001660828 0.0009585904 0.01020424)
(-0.001907823 0.001101185 0.01020424)
(-0.001187281 0.0004852948 0.01118165)
(-0.001327699 0.0005385055 0.01118165)
(-0.001514151 0.0006267423 0.01118165)
(-0.001259738 0.0009076101 0.01067373)
(-0.001392234 0.001015452 0.01067373)
(-0.001614563 0.001148087 0.01067373)
(-0.0009860249 0.0005690022 0.01137536)
(-0.001104479 0.000637384 0.01137536)
(-0.001253129 0.0007231989 0.01137536)
(-0.001416125 0.000636738 0.01067373)
(-0.001575773 0.0006975499 0.01067373)
(-0.00180181 0.0008237629 0.01067373)
(-0.0009860215 -0.0005691758 0.01137536)
(-0.001104476 -0.0006375609 0.01137536)
(-0.001253126 -0.0007233793 0.01137536)
(-0.001014157 -0.0007853223 0.01118164)
(-0.001130454 -0.0008803137 0.01118164)
(-0.001300103 -0.0009976587 0.01118164)
(-0.001187278 -0.0004854697 0.01118164)
(-0.001327696 -0.0005386837 0.01118164)
(-0.001514148 -0.0006269239 0.01118164)
(-0.001514228 -0.0008741375 0.01020423)
(-0.001660823 -0.0009587696 0.01020423)
(-0.001907818 -0.001101368 0.01020423)
(-0.001259732 -0.0009077848 0.01067372)
(-0.001392228 -0.00101563 0.01067372)
(-0.001614557 -0.001148268 0.01067372)
(-0.001416121 -0.000636914 0.01067372)
(-0.00157577 -0.0006977293 0.01067372)
(-0.001801806 -0.0008239456 0.01067372)
(-0.0001567142 -0.001544607 0.01067373)
(-0.0001838777 -0.001713266 0.01067373)
(-0.0001875963 -0.001972119 0.01067373)
(0.000156062 -0.001544606 0.01067373)
(0.0001832039 -0.001713264 0.01067373)
(0.0001869009 -0.001972117 0.01067373)
(-0.0001734476 -0.001270702 0.01118165)
(-0.0001975786 -0.001418905 0.01118165)
(-0.0002143931 -0.001624489 0.01118165)
(0.0001727941 -0.0012707 0.01118165)
(0.0001969035 -0.001418904 0.01118165)
(0.0002136964 -0.001624488 0.01118165)
(-3.270626e-07 -0.001138261 0.01137536)
(-3.378728e-07 -0.00127503 0.01137536)
(-3.486781e-07 -0.001446665 0.01137536)
(-3.257262e-07 -0.001748182 0.01020423)
(-3.365436e-07 -0.001917444 0.01020423)
(-3.473627e-07 -0.002202638 0.01020423)
(0.00118662 -0.0004854623 0.01118164)
(0.001327016 -0.0005386764 0.01118164)
(0.001513447 -0.0006269165 0.01118164)
(0.0009853639 -0.0005691697 0.01137536)
(0.001103797 -0.0006375548 0.01137536)
(0.001252425 -0.0007233731 0.01137536)
(0.0010135 -0.0007853162 0.01118164)
(0.001129777 -0.0008803075 0.01118164)
(0.001299403 -0.0009976525 0.01118164)
(0.001259077 -0.0009077775 0.01067372)
(0.001391551 -0.001015623 0.01067372)
(0.001613858 -0.001148261 0.01067372)
(0.001415464 -0.0006369054 0.01067372)
(0.001575091 -0.0006977207 0.01067372)
(0.001801106 -0.000823937 0.01067372)
(0.001513572 -0.000874129 0.01020423)
(0.001660146 -0.000958761 0.01020423)
(0.001907119 -0.001101359 0.01020423)
(0.0009853602 0.000569008 0.01137536)
(0.001103793 0.0006373898 0.01137536)
(0.001252421 0.0007232048 0.01137536)
(0.001013495 0.0007851549 0.01118164)
(0.001129771 0.0008801429 0.01118164)
(0.001299398 0.0009974847 0.01118164)
(0.001513567 0.0008739701 0.01020423)
(0.001660141 0.0009585989 0.01020423)
(0.001907114 0.001101193 0.01020423)
(0.001186618 0.0004853016 0.01118164)
(0.001327014 0.0005385124 0.01118164)
(0.001513444 0.0006267492 0.01118164)
(0.001259071 0.0009076176 0.01067373)
(0.001391545 0.001015459 0.01067373)
(0.001613853 0.001148094 0.01067373)
(0.00141546 0.0006367461 0.01067373)
(0.001575087 0.0006975582 0.01067373)
(0.001801103 0.0008237711 0.01067373)
(0.0007921233 0.0008827111 0.01134668)
(0.00088693 0.0009921085 0.01134668)
(0.001009759 0.001114958 0.01134668)
(0.0007867103 0.001104984 0.01112823)
(0.000881124 0.001241008 0.01112823)
(0.001004069 0.00139978 0.01112823)
(0.0003697398 0.0008716478 0.0115681)
(0.0004173705 0.0009815945 0.0115681)
(0.0004617554 0.001094024 0.0115681)
(0.0003679597 0.0011276 0.01134668)
(0.0004152827 0.001264412 0.01134668)
(0.0004602443 0.001432219 0.01134668)
(0.0005631601 0.00123405 0.01112823)
(0.0006337383 0.001383835 0.01112823)
(0.0007097522 0.001569702 0.01112823)
(0.0005695727 0.0007562752 0.0115681)
(0.0006409593 0.0008525063 0.0115681)
(0.0007161186 0.0009471679 0.0115681)
(-0.0007927899 0.0008827061 0.01134669)
(-0.0008876182 0.0009921036 0.01134669)
(-0.001010469 0.001114953 0.01134669)
(-0.0005702384 0.0007562716 0.01156811)
(-0.0006416466 0.0008525027 0.01156811)
(-0.0007168275 0.0009471642 0.01156811)
(-0.0007873781 0.001104979 0.01112823)
(-0.0008818134 0.001241003 0.01112823)
(-0.00100478 0.001399775 0.01112823)
(-0.0003704061 0.0008716454 0.01156811)
(-0.0004180583 0.0009815921 0.01156811)
(-0.0004624648 0.001094021 0.01156811)
(-0.0003686273 0.001127598 0.01134669)
(-0.0004159719 0.00126441 0.01134669)
(-0.0004609549 0.001432216 0.01134669)
(-0.0005638285 0.001234046 0.01112823)
(-0.0006344282 0.001383831 0.01112823)
(-0.0007104637 0.001569699 0.01112823)
(-0.0009403095 0.0001152863 0.0115681)
(-0.001059359 0.0001290002 0.0115681)
(-0.001178936 0.0001467661 0.0115681)
(-0.0009403088 -0.0001154601 0.0115681)
(-0.001059358 -0.0001291773 0.0115681)
(-0.001178935 -0.0001469466 0.0115681)
(-0.001161081 0.0002448029 0.01134669)
(-0.001303243 0.000272216 0.01134669)
(-0.001471067 0.0003171712 0.01134669)
(-0.00116108 -0.0002449779 0.01134668)
(-0.001303242 -0.0002723943 0.01134668)
(-0.001471065 -0.000317353 0.01134668)
(-0.001350869 0.0001289784 0.01112823)
(-0.001515894 0.0001427382 0.01112823)
(-0.001714885 0.0001698319 0.01112823)
(-0.001350869 -0.0001291545 0.01112823)
(-0.001515893 -0.0001429177 0.01112823)
(-0.001714884 -0.0001700148 0.01112823)
(-0.0007927845 -0.0008828785 0.01134668)
(-0.0008876128 -0.0009922792 0.01134668)
(-0.001010464 -0.001115132 0.01134668)
(-0.0007873713 -0.001105151 0.01112823)
(-0.0008818067 -0.001241178 0.01112823)
(-0.001004773 -0.001399954 0.01112823)
(-0.0003704009 -0.0008718153 0.0115681)
(-0.0004180531 -0.0009817653 0.0115681)
(-0.0004624596 -0.001094198 0.0115681)
(-0.0005638211 -0.001234217 0.01112823)
(-0.0006344209 -0.001384005 0.01112823)
(-0.0007104564 -0.001569876 0.01112823)
(-0.0005702338 -0.0007564428 0.0115681)
(-0.000641642 -0.0008526772 0.0115681)
(-0.000716823 -0.000947342 0.0115681)
(-0.0003686207 -0.001127767 0.01134668)
(-0.0004159653 -0.001264583 0.01134668)
(-0.0004609485 -0.001432393 0.01134668)
(0.0005631676 -0.001234213 0.01112823)
(0.0006337458 -0.001384002 0.01112823)
(0.0007097597 -0.001569872 0.01112823)
(0.0007867171 -0.001105147 0.01112823)
(0.0008811309 -0.001241173 0.01112823)
(0.001004075 -0.001399949 0.01112823)
(0.0003679666 -0.001127765 0.01134668)
(0.0004152895 -0.00126458 0.01134668)
(0.0004602511 -0.00143239 0.01134668)
(0.000792129 -0.0008828736 0.01134668)
(0.0008869356 -0.0009922742 0.01134668)
(0.001009765 -0.001115127 0.01134668)
(0.0003697454 -0.0008718129 0.0115681)
(0.000417376 -0.0009817628 0.0115681)
(0.000461761 -0.001094195 0.0115681)
(0.0005695776 -0.0007564391 0.0115681)
(0.0006409642 -0.0008526735 0.0115681)
(0.0007161236 -0.0009473383 0.0115681)
(0.0009396485 -0.0001154541 0.0115681)
(0.001058677 -0.0001291713 0.0115681)
(0.001178232 -0.0001469406 0.0115681)
(0.0009396478 0.0001152923 0.0115681)
(0.001058676 0.0001290062 0.0115681)
(0.001178231 0.000146772 0.0115681)
(0.00116042 -0.0002449706 0.01134668)
(0.001302561 -0.000272387 0.01134668)
(0.001470363 -0.0003173456 0.01134668)
(0.001350208 -0.0001291461 0.01112823)
(0.001515211 -0.0001429092 0.01112823)
(0.00171418 -0.0001700064 0.01112823)
(0.001160419 0.0002448098 0.01134668)
(0.001302559 0.000272223 0.01134668)
(0.001470361 0.0003171781 0.01134668)
(0.001350208 0.0001289867 0.01112822)
(0.00151521 0.0001427466 0.01112822)
(0.00171418 0.0001698402 0.01112822)
(-1.870261e-06 0.001923735 2.735584e-07)
(-4.138987e-05 0.002143823 1.864982e-07)
(-3.181716e-05 0.002431967 9.531188e-08)
(1.19792e-06 0.001923736 2.735584e-07)
(4.069597e-05 0.002143824 1.864982e-07)
(3.110178e-05 0.002431968 9.531188e-08)
(-3.358226e-07 0.001937046 2.735584e-07)
(-3.466e-07 0.002134412 1.864982e-07)
(-3.573342e-07 0.002426884 9.531188e-08)
(2.540868e-06 0.001902841 2.735584e-07)
(4.074887e-05 0.002166999 1.864982e-07)
(2.957332e-05 0.002447339 9.531188e-08)
(-3.214586e-06 0.00190284 2.735584e-07)
(-4.144414e-05 0.002166998 1.864982e-07)
(-3.029008e-05 0.002447337 9.531188e-08)
(-3.372078e-07 0.001895497 2.735584e-07)
(-3.47986e-07 0.002180615 1.864982e-07)
(-3.587302e-07 0.002458426 9.531188e-08)
(-0.00164688 0.0009538656 2.735584e-07)
(-0.001856551 0.001119042 1.864982e-07)
(-0.002104927 0.001249542 9.531188e-08)
(-0.001665647 0.0009631502 2.735584e-07)
(-0.001836506 0.001107409 1.864982e-07)
(-0.00209085 0.00124318 9.531188e-08)
(-0.00167794 0.0009684772 2.735584e-07)
(-0.001848877 0.001067159 1.864982e-07)
(-0.002102177 0.001213394 9.531188e-08)
(-0.001641959 0.0009477015 2.735584e-07)
(-0.001888891 0.00109026 1.864982e-07)
(-0.002129495 0.001229165 9.531188e-08)
(-0.001649756 0.0009488812 2.735584e-07)
(-0.001897646 0.001047861 1.864982e-07)
(-0.002134857 0.001197699 9.531188e-08)
(-0.00166718 0.0009604931 2.735584e-07)
(-0.001877548 0.00103632 1.864982e-07)
(-0.002122309 0.001188691 9.531188e-08)
(-0.001646872 -0.0009540439 2.735584e-07)
(-0.001856543 -0.001119224 1.864982e-07)
(-0.002104919 -0.001249727 9.531188e-08)
(-0.00166564 -0.0009633273 2.735584e-07)
(-0.001836499 -0.001107589 1.864982e-07)
(-0.002090843 -0.001243364 9.531188e-08)
(-0.001641952 -0.000947881 2.735584e-07)
(-0.001888884 -0.001090443 1.864982e-07)
(-0.002129488 -0.001229351 9.531188e-08)
(-0.001649751 -0.0009490607 2.735584e-07)
(-0.00189764 -0.001048044 1.864982e-07)
(-0.002134851 -0.001197885 9.531188e-08)
(-0.001677935 -0.0009686543 2.735584e-07)
(-0.001848871 -0.00106734 1.864982e-07)
(-0.002102171 -0.001213578 9.531188e-08)
(-0.001667175 -0.0009606714 2.735584e-07)
(-0.001877543 -0.001036502 1.864982e-07)
(-0.002122304 -0.001188876 9.531188e-08)
(-1.858808e-06 -0.001923904 2.735584e-07)
(-4.137847e-05 -0.002143995 1.864982e-07)
(-3.180585e-05 -0.002432141 9.531188e-08)
(-3.250505e-07 -0.001937214 2.735584e-07)
(-3.358709e-07 -0.002134583 1.864982e-07)
(-3.466949e-07 -0.002427057 9.531188e-08)
(-3.236919e-07 -0.001895664 2.735584e-07)
(-3.34519e-07 -0.002180786 1.864982e-07)
(-3.453468e-07 -0.0024586 9.531188e-08)
(1.209382e-06 -0.001923903 2.735584e-07)
(4.07074e-05 -0.002143993 1.864982e-07)
(3.111313e-05 -0.00243214 9.531188e-08)
(-3.201756e-06 -0.001903008 2.735584e-07)
(-4.143136e-05 -0.00216717 1.864982e-07)
(-3.02774e-05 -0.002447512 9.531188e-08)
(2.553701e-06 -0.001903007 2.735584e-07)
(4.076166e-05 -0.002167169 1.864982e-07)
(2.958603e-05 -0.002447511 9.531188e-08)
(0.001646218 -0.000954033 2.735584e-07)
(0.001855868 -0.001119213 1.864982e-07)
(0.002104222 -0.001249716 9.531188e-08)
(0.001664986 -0.0009633176 2.735584e-07)
(0.001835824 -0.001107579 1.864982e-07)
(0.002090146 -0.001243354 9.531188e-08)
(0.001649095 -0.0009490486 2.735584e-07)
(0.001896963 -0.001048032 1.864982e-07)
(0.002134153 -0.001197873 9.531188e-08)
(0.001641298 -0.0009478689 2.735584e-07)
(0.001888208 -0.00109043 1.864982e-07)
(0.00212879 -0.001229338 9.531188e-08)
(0.001677279 -0.0009686445 2.735584e-07)
(0.001848194 -0.00106733 1.864982e-07)
(0.002101472 -0.001213568 9.531188e-08)
(0.001666519 -0.0009606604 2.735584e-07)
(0.001876865 -0.001036491 1.864982e-07)
(0.002121604 -0.001188865 9.531188e-08)
(0.00164909 0.0009488931 2.735584e-07)
(0.001896958 0.001047873 1.864982e-07)
(0.002134147 0.001197711 9.531188e-08)
(0.001646211 0.0009538764 2.735584e-07)
(0.00185586 0.001119053 1.864982e-07)
(0.002104215 0.001249553 9.531188e-08)
(0.001677274 0.0009684869 2.735584e-07)
(0.001848189 0.001067169 1.864982e-07)
(0.002101467 0.001213404 9.531188e-08)
(0.001641291 0.0009477135 2.735584e-07)
(0.001888201 0.001090272 1.864982e-07)
(0.002128784 0.001229177 9.531188e-08)
(0.001664979 0.0009631599 2.735584e-07)
(0.001835817 0.001107419 1.864982e-07)
(0.002090139 0.00124319 9.531188e-08)
(0.001666514 0.0009605038 2.735584e-07)
(0.001876861 0.001036331 1.864982e-07)
(0.0021216 0.001188702 9.531188e-08)
(0.0002917224 0.00161166 0.01047826)
(0.0003433388 0.001794153 0.01047826)
(0.0003609928 0.0020608 0.01047826)
(0.0001834289 0.001829225 0.009857622)
(0.0002469722 0.002034544 0.009857622)
(0.0002426017 0.00231734 0.009857622)
(0.000530264 0.001460033 0.01075033)
(0.0006016712 0.00163451 0.01075033)
(0.0006588102 0.001862793 0.01075033)
(0.0007242045 0.001524479 0.01050153)
(0.0008167369 0.00171211 0.01050153)
(0.0009096595 0.001935996 0.01050153)
(0.0004326715 0.001840369 0.009843354)
(0.0005086011 0.00206649 0.009843354)
(0.0005255493 0.002337064 0.009843354)
(0.0006813306 0.001715055 0.01009964)
(0.0007740796 0.001927293 0.01009964)
(0.0008431934 0.002179353 0.01009964)
(-0.001492682 0.001073711 0.009857627)
(-0.001638729 0.001231409 0.009857627)
(-0.001885829 0.00136903 0.009857627)
(-0.001377711 0.001295133 0.009843359)
(-0.00153558 0.001473959 0.009843359)
(-0.001761437 0.001623932 0.009843359)
(-0.0009583751 0.001389662 0.01050153)
(-0.001074609 0.001563622 0.01050153)
(-0.001222046 0.001756046 0.01050153)
(-0.001144856 0.00144782 0.01009964)
(-0.001282292 0.001634271 0.01009964)
(-0.001466033 0.001820164 0.01009964)
(-0.001250117 0.001058713 0.01047826)
(-0.00138236 0.001194669 0.01047826)
(-0.001604463 0.00134329 0.01047826)
(-0.0009995338 0.001189482 0.01075033)
(-0.001114938 0.001338569 0.01075033)
(-0.001284075 0.001502203 0.01075033)
(-0.001676441 -0.0007555993 0.009857621)
(-0.001886042 -0.0008032216 0.009857621)
(-0.002128783 -0.0009483978 0.009857621)
(-0.00154217 -0.0005530315 0.01047826)
(-0.00172604 -0.0005995702 0.01047826)
(-0.001965807 -0.000717598 0.01047826)
(-0.001530128 -0.0002706352 0.01075033)
(-0.001716951 -0.0002960263 0.01075033)
(-0.001943237 -0.0003606772 0.01075033)
(-0.001810713 -0.0005453209 0.009843354)
(-0.002044522 -0.0005926176 0.009843354)
(-0.002287338 -0.0007132206 0.009843354)
(-0.001826517 -0.0002673188 0.01009964)
(-0.002056713 -0.0002931081 0.01009964)
(-0.002309578 -0.0003592771 0.01009964)
(-0.00168291 -0.0001349007 0.01050153)
(-0.001891687 -0.0001485742 0.01050153)
(-0.002132057 -0.000180037 0.01050153)
(-0.0002923833 -0.001611827 0.01047826)
(-0.0003440213 -0.001794323 0.01047826)
(-0.0003616969 -0.002060973 0.01047826)
(-0.0001840898 -0.001829393 0.009857623)
(-0.0002476548 -0.002034714 0.009857623)
(-0.0002433058 -0.002317513 0.009857623)
(-0.0005309249 -0.0014602 0.01075033)
(-0.0006023537 -0.00163468 0.01075033)
(-0.0006595144 -0.001862966 0.01075033)
(-0.0007248655 -0.001524646 0.01050153)
(-0.0008174196 -0.001712281 0.01050153)
(-0.0009103638 -0.00193617 0.01050153)
(-0.0006819916 -0.001715222 0.01009964)
(-0.0007747622 -0.001927463 0.01009964)
(-0.0008438976 -0.002179526 0.01009964)
(-0.0004333325 -0.001840536 0.009843355)
(-0.0005092837 -0.00206666 0.009843355)
(-0.0005262535 -0.002337238 0.009843355)
(0.001144195 -0.001447988 0.01009964)
(0.00128161 -0.001634441 0.01009964)
(0.001465328 -0.001820337 0.01009964)
(0.0009988727 -0.001189649 0.01075033)
(0.001114256 -0.00133874 0.01075033)
(0.00128337 -0.001502377 0.01075033)
(0.000957714 -0.001389829 0.01050153)
(0.001073927 -0.001563792 0.01050153)
(0.001221342 -0.00175622 0.01050153)
(0.00137705 -0.0012953 0.009843355)
(0.001534897 -0.001474129 0.009843355)
(0.001760733 -0.001624105 0.009843355)
(0.001249456 -0.00105888 0.01047826)
(0.001381677 -0.00119484 0.01047826)
(0.001603759 -0.001343463 0.01047826)
(0.001492021 -0.001073878 0.009857622)
(0.001638046 -0.001231579 0.009857622)
(0.001885125 -0.001369204 0.009857622)
(0.001825856 0.0002671512 0.01009963)
(0.00205603 0.0002929372 0.01009963)
(0.002308873 0.0003591027 0.01009963)
(0.001529467 0.0002704674 0.01075032)
(0.001716268 0.0002958552 0.01075032)
(0.001942533 0.0003605027 0.01075032)
(0.001541509 0.0005528636 0.01047826)
(0.001725357 0.000599399 0.01047826)
(0.001965104 0.0007174234 0.01047826)
(0.001682249 0.0001347329 0.01050153)
(0.001891005 0.0001484032 0.01050153)
(0.002131353 0.0001798626 0.01050153)
(0.001810052 0.0005451532 0.009843352)
(0.002043839 0.0005924466 0.009843352)
(0.002286634 0.0007130462 0.009843352)
(0.00167578 0.0007554316 0.009857619)
(0.001885359 0.0008030506 0.009857619)
(0.002128078 0.0009482234 0.009857619)
(0.001144186 0.001447828 0.01009964)
(0.0012816 0.001634278 0.01009964)
(0.001465319 0.001820171 0.01009964)
(0.0009988653 0.001189488 0.01075033)
(0.001114248 0.001338575 0.01075033)
(0.001283363 0.001502209 0.01075033)
(0.00124945 0.00105872 0.01047826)
(0.001381671 0.001194676 0.01047826)
(0.001603752 0.001343297 0.01047826)
(0.0009577052 0.001389668 0.01050153)
(0.001073918 0.001563628 0.01050153)
(0.001221333 0.001756052 0.01050153)
(0.001492013 0.001073719 0.009857622)
(0.001638038 0.001231417 0.009857622)
(0.001885117 0.001369039 0.009857622)
(0.001377041 0.001295141 0.009843354)
(0.001534889 0.001473967 0.009843354)
(0.001760724 0.00162394 0.009843354)
(-0.0001841006 0.001829223 0.009857623)
(-0.0002476655 0.002034542 0.009857623)
(-0.0002433164 0.002317337 0.009857623)
(-0.000433344 0.001840365 0.009843357)
(-0.0005092951 0.002066486 0.009843357)
(-0.0005262648 0.002337061 0.009843357)
(-0.0002923927 0.001611657 0.01047826)
(-0.0003440307 0.001794151 0.01047826)
(-0.0003617061 0.002060797 0.01047826)
(-0.0005309337 0.001460029 0.01075033)
(-0.0006023624 0.001634506 0.01075033)
(-0.000659523 0.001862789 0.01075033)
(-0.0006820024 0.00171505 0.01009964)
(-0.000774773 0.001927288 0.01009964)
(-0.0008439083 0.002179348 0.01009964)
(-0.000724875 0.001524474 0.01050153)
(-0.000817429 0.001712105 0.01050153)
(-0.0009103731 0.001935991 0.01050153)
(-0.001826518 0.0002671392 0.01009964)
(-0.002056714 0.0002929252 0.01009964)
(-0.002309579 0.0003590907 0.01009964)
(-0.001682911 0.0001347222 0.01050153)
(-0.001891688 0.0001483924 0.01050153)
(-0.002132058 0.0001798518 0.01050153)
(-0.001530129 0.0002704579 0.01075033)
(-0.001716952 0.0002958457 0.01075033)
(-0.001943238 0.0003604932 0.01075033)
(-0.001810716 0.0005451413 0.009843357)
(-0.002044525 0.0005924347 0.009843357)
(-0.002287341 0.0007130343 0.009843357)
(-0.001676445 0.0007554209 0.009857625)
(-0.001886045 0.0008030399 0.009857625)
(-0.002128786 0.0009482127 0.009857625)
(-0.001542173 0.0005528542 0.01047826)
(-0.001726043 0.0005993896 0.01047826)
(-0.00196581 0.000717414 0.01047826)
(-0.001492674 -0.001073887 0.009857622)
(-0.001638721 -0.001231588 0.009857622)
(-0.001885822 -0.001369212 0.009857622)
(-0.001377702 -0.001295309 0.009843354)
(-0.001535571 -0.001474138 0.009843354)
(-0.001761429 -0.001624114 0.009843354)
(-0.001144847 -0.001447995 0.01009964)
(-0.001282283 -0.001634449 0.01009964)
(-0.001466023 -0.001820344 0.01009964)
(-0.001250111 -0.001058887 0.01047826)
(-0.001382353 -0.001194847 0.01047826)
(-0.001604456 -0.001343471 0.01047826)
(-0.0009995263 -0.001189655 0.01075033)
(-0.001114931 -0.001338746 0.01075033)
(-0.001284067 -0.001502383 0.01075033)
(-0.0009583662 -0.001389835 0.01050153)
(-0.001074601 -0.001563798 0.01050153)
(-0.001222037 -0.001756226 0.01050153)
(0.0006813414 -0.001715217 0.01009964)
(0.0007740904 -0.001927459 0.01009964)
(0.0008432041 -0.002179522 0.01009964)
(0.0005302728 -0.001460197 0.01075033)
(0.0006016799 -0.001634676 0.01075033)
(0.0006588189 -0.001862963 0.01075033)
(0.0002917319 -0.001611825 0.01047826)
(0.0003433482 -0.001794321 0.01047826)
(0.0003610022 -0.002060971 0.01047826)
(0.0001834397 -0.00182939 0.009857623)
(0.000246983 -0.002034712 0.009857623)
(0.0002426124 -0.002317511 0.009857623)
(0.000724214 -0.001524641 0.01050153)
(0.0008167464 -0.001712276 0.01050153)
(0.000909669 -0.001936165 0.01050153)
(0.000432683 -0.001840533 0.009843356)
(0.0005086126 -0.002066657 0.009843356)
(0.0005255607 -0.002337234 0.009843356)
(0.001529468 -0.0002706255 0.01075033)
(0.001716269 -0.0002960166 0.01075033)
(0.001942534 -0.0003606674 0.01075033)
(0.001541512 -0.0005530217 0.01047826)
(0.00172536 -0.0005995604 0.01047826)
(0.001965106 -0.0007175881 0.01047826)
(0.001810055 -0.0005453088 0.009843352)
(0.002043842 -0.0005926054 0.009843352)
(0.002286637 -0.0007132083 0.009843352)
(0.001825857 -0.0002673068 0.01009963)
(0.002056031 -0.000293096 0.01009963)
(0.002308875 -0.0003592649 0.01009963)
(0.001675783 -0.0007555883 0.009857619)
(0.001885362 -0.0008032106 0.009857619)
(0.002128082 -0.0009483867 0.009857619)
(0.001682249 -0.0001348898 0.01050153)
(0.001891005 -0.0001485633 0.01050153)
(0.002131354 -0.0001800261 0.01050153)
(-3.392862e-07 0.002514706 0.007202962)
(-3.500718e-07 0.002835727 0.007202962)
(-3.608393e-07 0.003221519 0.007202962)
(-0.0001415492 0.00243696 0.007619861)
(-0.0001631659 0.002752951 0.007619861)
(-0.0001748373 0.003113056 0.007619861)
(-3.378994e-07 0.002066965 0.008653646)
(-3.486795e-07 0.002374364 0.008653646)
(-3.594306e-07 0.002660069 0.008653646)
(-0.0001382081 0.00223861 0.008345643)
(-0.0001625133 0.002543259 0.008345643)
(-0.0001606776 0.002853997 0.008345643)
(0.0001375316 0.002238611 0.008345642)
(0.0001618152 0.00254326 0.008345642)
(0.000159958 0.002853998 0.008345642)
(0.0001408713 0.002436961 0.007619861)
(0.0001624664 0.002752952 0.007619861)
(0.0001741163 0.003113057 0.007619861)
(-0.002040277 0.001340724 0.007619862)
(-0.002303143 0.00151743 0.007619862)
(-0.002609185 0.00170758 0.007619862)
(-0.001870171 0.001238657 0.008345644)
(-0.002121869 0.00141202 0.008345644)
(-0.002391913 0.001565789 0.008345644)
(-0.002178211 0.001257304 0.007202963)
(-0.002456237 0.001417814 0.007202963)
(-0.002790355 0.00161071 0.007202963)
(-0.001790455 0.001033435 0.008653648)
(-0.002056683 0.001187134 0.008653648)
(-0.002304123 0.001329985 0.008653648)
(-0.002181486 0.00109614 0.007619862)
(-0.002465958 0.001235424 0.007619862)
(-0.002783661 0.001405377 0.007619862)
(-0.002008039 0.0009998588 0.008345644)
(-0.002284033 0.001131143 0.008345644)
(-0.002552229 0.00128811 0.008345644)
(-0.002181479 -0.001096323 0.007619859)
(-0.00246595 -0.00123561 0.007619859)
(-0.002783653 -0.001405567 0.007619859)
(-0.001790447 -0.001033616 0.008653644)
(-0.002056675 -0.001187318 0.008653644)
(-0.002304115 -0.001330172 0.008653644)
(-0.002008032 -0.001000041 0.00834564)
(-0.002284025 -0.001131328 0.00834564)
(-0.002552222 -0.001288299 0.00834564)
(-0.002178202 -0.001257487 0.00720296)
(-0.002456228 -0.001418001 0.00720296)
(-0.002790345 -0.001610899 0.00720296)
(-0.002040267 -0.001340906 0.007619859)
(-0.002303133 -0.001517615 0.007619859)
(-0.002609175 -0.001707768 0.007619859)
(-0.001870162 -0.001238837 0.00834564)
(-0.00212186 -0.001412203 0.00834564)
(-0.002391904 -0.001565976 0.00834564)
(-3.230186e-07 -0.002067132 0.008653646)
(-3.338471e-07 -0.002374535 0.008653646)
(-3.446769e-07 -0.002660242 0.008653646)
(-0.0001381926 -0.002238779 0.008345642)
(-0.0001624978 -0.00254343 0.008345642)
(-0.0001606622 -0.002854172 0.008345642)
(0.0001375472 -0.002238777 0.008345642)
(0.0001618308 -0.002543429 0.008345642)
(0.0001599735 -0.002854171 0.008345642)
(-0.0001415322 -0.002437128 0.007619861)
(-0.000163149 -0.002753122 0.007619861)
(-0.0001748205 -0.003113231 0.007619861)
(-3.216757e-07 -0.002514873 0.007202963)
(-3.325026e-07 -0.002835898 0.007202963)
(-3.433379e-07 -0.003221692 0.007202963)
(0.0001408882 -0.002437127 0.007619861)
(0.0001624833 -0.002753121 0.007619861)
(0.0001741332 -0.003113229 0.007619861)
(0.001789794 -0.001033602 0.008653643)