/*--------------------------------*- C++ -*----------------------------------*\
| =========                 |                                                 |
| \\      /  F ield         | OpenFOAM: The Open Source CFD Toolbox           |
|  \\    /   O peration     | Version:  2212                                  |
|   \\  /    A nd           | Website:  www.openfoam.com                      |
|    \\/     M anipulation  |                                                 |
\*---------------------------------------------------------------------------*/
FoamFile
{
    version     2.0;
    format      ascii;
    arch        "LSB;label=32;scalar=64";
    class       surfaceScalarField;
    location    "69/fluidRegion";
    object      alphaPhi;
}
// * * * * * * * * * * * * * * * * * * * * * * * * * * * * * * * * * * * * * //

dimensions      [0 3 -1 0 0 0 0];

oriented        oriented;

internalField   nonuniform List<scalar> 
661
(
-0.000539036
-9.50984e-13
-0.00053898
-1.04187e-12
-0.000538921
-6.77631e-13
-0.000538861
-2.58678e-13
-0.000538802
9.56419e-14
-0.000538744
3.82393e-13
-0.000538688
6.2552e-13
-0.000538634
8.35866e-13
-0.000538584
9.76804e-13
-0.000538537
9.97107e-13
-0.000538494
8.31688e-13
-0.000538455
4.72738e-13
-0.000538417
-3.50745e-14
-0.000538379
-5.90808e-13
-0.000538338
-1.05035e-12
-0.000538293
-1.28656e-12
-0.000538243
-1.19262e-12
-0.000538188
-7.48226e-13
-0.00053813
-4.14352e-15
-0.000538074
8.93415e-13
-0.000538023
1.71287e-12
-0.000537981
2.2196e-12
-0.000537948
2.07518e-12
-0.000537924
4.74849e-13
-2.13412e-12
-0.000539036
-0.00053898
-0.000538921
-0.000538861
-0.000538802
-0.000538744
-0.000538688
-0.000538634
-0.000538584
-0.000538537
-0.000538494
-0.000538455
-0.000538417
-0.000538379
-0.000538338
-0.000538293
-0.000538243
-0.000538188
-0.00053813
-0.000538074
-0.000538023
-0.000537981
-0.000537948
-0.000537924
-0.0202307
1.41379e-06
-0.0198025
6.711e-07
-0.0192579
7.27129e-07
-0.0186059
6.5429e-07
-0.0178561
5.92251e-07
-0.0170184
5.34795e-07
-0.016103
4.81602e-07
-0.0151205
4.30061e-07
-0.0140814
3.7443e-07
-0.0129971
3.05278e-07
-0.0118794
2.10743e-07
-0.010741
7.9194e-08
-0.00959637
-9.28355e-08
-0.00846105
-2.91408e-07
-0.00735198
-4.93978e-07
-0.00628632
-6.66362e-07
-0.00528028
-7.81856e-07
-0.00434801
-8.33374e-07
-0.0035011
-8.34863e-07
-0.00274927
-8.10835e-07
-0.00210123
-7.8371e-07
-0.00156636
-7.5864e-07
-0.00115537
-7.24556e-07
-0.000879351
-6.30198e-07
-6.00736e-07
-0.0203607
-4.42644e-08
-3.36719e-08
-0.0199315
-1.80391e-07
-1.73137e-07
-0.0193848
-1.71842e-07
-1.63626e-07
-0.0187298
-1.49765e-07
-1.4103e-07
-0.0179761
-1.30778e-07
-1.21413e-07
-0.0171339
-1.13287e-07
-1.03291e-07
-0.0162133
-9.72937e-08
-8.66497e-08
-0.0152248
-8.21622e-08
-7.07338e-08
-0.0141793
-6.63771e-08
-5.40513e-08
-0.0130879
-4.72737e-08
-3.39231e-08
-0.0119625
-2.11155e-08
-6.60588e-09
-0.010816
1.55853e-08
3.12142e-08
-0.00966285
6.30313e-08
8.04802e-08
-0.00851875
1.22704e-07
1.41892e-07
-0.00740083
1.84369e-07
2.0554e-07
-0.00632652
2.382e-07
2.61621e-07
-0.00531228
2.75177e-07
3.01125e-07
-0.0043725
2.92341e-07
3.21006e-07
-0.00351892
2.93557e-07
3.2497e-07
-0.00276139
2.86521e-07
3.20033e-07
-0.00210867
2.7785e-07
3.12095e-07
-0.00157022
2.68119e-07
3.00707e-07
-0.00115682
2.50105e-07
2.78801e-07
-0.000879546
1.97936e-07
2.1948e-07
1.51697e-07
1.63682e-07
-0.0202094
6.88694e-07
-0.0197815
6.48805e-07
-0.0192374
6.24206e-07
-0.0185859
5.55016e-07
-0.0178368
4.93131e-07
-0.0169999
4.36247e-07
-0.0160854
3.83582e-07
-0.0151038
3.32149e-07
-0.0140659
2.75496e-07
-0.0129828
2.034e-07
-0.0118662
1.03113e-07
-0.0107292
-3.61608e-08
-0.00958591
-2.16749e-07
-0.00845198
-4.25451e-07
-0.0073443
-6.35407e-07
-0.00627999
-8.10601e-07
-0.00527521
-9.23818e-07
-0.0043441
-9.69252e-07
-0.0034982
-9.62929e-07
-0.00274723
-9.30855e-07
-0.0020999
-8.94487e-07
-0.00156555
-8.57645e-07
-0.00115493
-7.97435e-07
-0.000879133
-6.6068e-07
-5.38282e-07
-0.0203317
7.84378e-10
-0.0199027
-3.00534e-09
-0.0193564
-2.79197e-09
-0.018702
-2.77253e-09
-0.0179492
-2.579e-09
-0.0171079
-2.35349e-09
-0.0161884
-2.1373e-09
-0.0152012
-1.7768e-09
-0.0141571
-1.34716e-09
-0.0130673
-8.42039e-10
-0.0119436
-1.60128e-10
-0.010799
6.99327e-10
-0.00964772
1.66547e-09
-0.0085056
2.7365e-09
-0.00738969
3.86367e-09
-0.00631734
5.00965e-09
-0.00530497
6.1753e-09
-0.0043669
7.30455e-09
-0.00351485
8.16267e-09
-0.00275862
8.65672e-09
-0.00210698
8.65422e-09
-0.00156936
7.93584e-09
-0.00115651
6.58412e-09
-0.000879528
4.75176e-09
2.54813e-09
-0.0203318
-6.87338e-07
-0.0199027
-6.55542e-07
-0.0193564
-6.30317e-07
-0.018702
-5.6116e-07
-0.0179492
-4.9903e-07
-0.0171079
-4.41877e-07
-0.0161884
-3.88923e-07
-0.0152013
-3.36991e-07
-0.0141571
-2.79737e-07
-0.0130673
-2.06912e-07
-0.0119436
-1.05594e-07
-0.010799
3.47798e-08
-0.00964773
2.1681e-07
-0.00850561
4.27049e-07
-0.0073897
6.38634e-07
-0.00631735
8.15536e-07
-0.00530497
9.30615e-07
-0.00436691
9.78021e-07
-0.00351486
9.73564e-07
-0.00275863
9.4315e-07
-0.00210699
9.08119e-07
-0.00156936
8.71758e-07
-0.00115651
8.111e-07
-0.000879529
6.72058e-07
5.46111e-07
-0.0202094
3.81233e-08
-0.0197815
1.78276e-07
-0.0192374
1.68968e-07
-0.0185859
1.46547e-07
-0.0178368
1.27213e-07
-0.0169999
1.09295e-07
-0.0160854
9.27908e-08
-0.0151039
7.70918e-08
-0.0140659
6.05894e-08
-0.0129828
4.06272e-08
-0.0118663
1.35651e-08
-0.0107292
-2.40519e-08
-0.00958592
-7.27774e-08
-0.00845199
-1.3372e-07
-0.0073443
-1.96737e-07
-0.00627999
-2.519e-07
-0.00527522
-2.90056e-07
-0.0043441
-3.0804e-07
-0.0034982
-3.09663e-07
-0.00274723
-3.0229e-07
-0.0020999
-2.92529e-07
-0.00156555
-2.80636e-07
-0.00115493
-2.5981e-07
-0.000879131
-2.03994e-07
-1.52588e-07
-0.0203607
-1.41439e-06
-3.71298e-08
-0.0199315
-6.72004e-07
-1.7183e-07
-0.0193848
-7.28161e-07
-1.62777e-07
-0.0187298
-6.55383e-07
-1.40309e-07
-0.0179761
-5.93318e-07
-1.21003e-07
-0.0171339
-5.35866e-07
-1.03234e-07
-0.0162133
-4.82694e-07
-8.69817e-08
-0.0152248
-4.31127e-07
-7.1621e-08
-0.0141793
-3.75501e-07
-5.55963e-08
-0.0130879
-3.06332e-07
-3.62577e-08
-0.0119625
-2.11679e-07
-1.00032e-08
-0.010816
-7.99059e-08
2.68149e-08
-0.00966285
9.25191e-08
7.43427e-08
-0.00851875
2.91561e-07
1.33848e-07
-0.00740083
4.94895e-07
1.95164e-07
-0.00632652
6.68491e-07
2.48325e-07
-0.00531228
7.85913e-07
2.84036e-07
-0.0043725
8.40398e-07
2.9902e-07
-0.00351892
8.46201e-07
2.96827e-07
-0.00276139
8.2818e-07
2.8468e-07
-0.00210867
8.09172e-07
2.68429e-07
-0.00157022
7.92748e-07
2.50344e-07
-0.00115682
7.66687e-07
2.24991e-07
-0.000879546
6.73583e-07
1.70516e-07
6.39223e-07
1.29025e-07
-0.0202307
-0.0198025
-0.0192579
-0.0186059
-0.0178561
-0.0170184
-0.016103
-0.0151205
-0.0140814
-0.0129971
-0.0118794
-0.010741
-0.00959637
-0.00846105
-0.00735198
-0.00628632
-0.00528028
-0.00434801
-0.0035011
-0.00274927
-0.00210123
-0.00156636
-0.00115537
-0.000879351
-0.0203317
-6.97877e-07
6.56978e-09
-0.0199027
-6.59418e-07
3.76022e-09
-0.0193564
-6.35391e-07
4.38504e-09
-0.018702
-5.66646e-07
4.7397e-09
-0.0179492
-5.05061e-07
5.06478e-09
-0.0171079
-4.48482e-07
5.45854e-09
-0.0161884
-3.96142e-07
5.9565e-09
-0.0152012
-3.44946e-07
6.49999e-09
-0.0141571
-2.88556e-07
7.17571e-09
-0.0130673
-2.16736e-07
7.99642e-09
-0.0119436
-1.16539e-07
8.95989e-09
-0.010799
2.25109e-08
9.62237e-09
-0.00964772
2.02798e-07
1.11759e-08
-0.0085056
4.11179e-07
1.27703e-08
-0.00738969
6.20505e-07
1.47918e-08
-0.00631734
7.94609e-07
1.73701e-08
-0.00530497
9.06008e-07
2.06591e-08
-0.0043669
9.48552e-07
2.48501e-08
-0.00351485
9.37511e-07
3.03689e-08
-0.00275862
8.98903e-07
3.70459e-08
-0.00210698
8.53271e-07
4.47993e-08
-0.00156936
8.06825e-07
5.1059e-08
-0.00115651
7.3885e-07
5.45127e-08
-0.000879528
6.0251e-07
4.91262e-08
4.93567e-07
3.45845e-08
-0.0202094
-0.0197815
-0.0192374
-0.0185859
-0.0178368
-0.0169999
-0.0160854
-0.0151038
-0.0140659
-0.0129828
-0.0118662
-0.0107292
-0.00958591
-0.00845198
-0.0073443
-0.00627999
-0.00527521
-0.0043441
-0.0034982
-0.00274723
-0.0020999
-0.00156556
-0.00115493
-0.000879133
-0.0202094
6.84159e-07
-0.0197815
6.52153e-07
-0.0192374
6.26702e-07
-0.0185859
5.57374e-07
-0.0178368
4.95225e-07
-0.0169999
4.37986e-07
-0.0160854
3.84878e-07
-0.0151039
3.3288e-07
-0.0140659
2.75484e-07
-0.0129828
2.02476e-07
-0.0118663
1.01114e-07
-0.0107292
-3.89757e-08
-0.00958592
-2.21268e-07
-0.00845199
-4.31642e-07
-0.0073443
-6.43352e-07
-0.00627999
-8.20278e-07
-0.00527522
-9.35045e-07
-0.0043441
-9.8143e-07
-0.0034982
-9.75009e-07
-0.00274723
-9.41048e-07
-0.0020999
-9.01084e-07
-0.00156555
-8.57977e-07
-0.00115493
-7.89883e-07
-0.000879132
-6.46129e-07
-5.1744e-07
-0.0203318
-0.0199027
-0.0193564
-0.018702
-0.0179492
-0.0171079
-0.0161884
-0.0152013
-0.0141571
-0.0130673
-0.0119436
-0.010799
-0.00964773
-0.00850561
-0.00738969
-0.00631735
-0.00530497
-0.00436691
-0.00351486
-0.00275862
-0.00210698
-0.00156936
-0.00115651
-0.00087953
)
;

boundaryField
{
    outletCentralUnloaded
    {
        type            calculated;
        value           nonuniform List<scalar> 2(0.000539086 0.000539086);
    }
    inletCentralUnloaded
    {
        type            calculated;
        value           uniform -0.000540134;
    }
    outletFuelElement
    {
        type            calculated;
        value           nonuniform List<scalar> 
12
(
0.0205716
0.0207047
0.0205507
0.020675
0.020675
0.0205508
0.0207047
0.0205716
0.020675
0.0205507
0.0205508
0.020675
)
;
    }
    inletFuelElement
    {
        type            calculated;
        value           nonuniform List<scalar> 
12
(
-0.000722059
-0.00072206
-0.000722059
-0.000722059
-0.00072206
-0.000722059
-0.00072206
-0.000722059
-0.000722059
-0.000722059
-0.000722059
-0.00072206
)
;
    }
    defaultFaces
    {
        type            calculated;
        value           nonuniform List<scalar> 
450
(
5.98233e-23
-3.29278e-23
0
1.999e-23
-2.99175e-24
0
4.13482e-23
1.57093e-23
0
-3.73402e-23
-3.59145e-23
0
-8.54258e-24
-3.47939e-23
0
-3.27191e-23
-2.12444e-23
0
-2.80909e-23
-8.14612e-24
0
-3.23728e-23
-2.16043e-23
0
-1.85217e-23
-1.26701e-23
0
-2.16788e-23
-1.68681e-23
0
-1.66788e-23
-7.71351e-24
0
-5.23451e-24
-1.82718e-24
0
7.3072e-24
8.63375e-25
0
2.20377e-23
3.58454e-24
0
2.96791e-23
1.57007e-23
0
3.97382e-23
1.02e-23
0
4.67059e-23
-7.40498e-24
0
6.33989e-23
2.04998e-23
0
3.80297e-23
-3.35718e-23
0
-1.53769e-23
-7.82537e-24
0
-2.64648e-23
3.53541e-24
0
2.42677e-23
-1.53553e-23
0
-1.85035e-23
2.65606e-23
0
-2.21304e-23
-1.11419e-23
0
-1.29196e-23
-1.95582e-23
0
1.40397e-23
0
2.40681e-23
0
-8.0227e-24
0
1.60454e-23
0
-1.2034e-23
0
1.2034e-23
0
8.0227e-24
0
1.2034e-23
0
-4.01135e-24
0
4.01135e-24
0
4.01135e-24
0
-5.01419e-25
0
-8.0227e-24
0
-8.0227e-24
0
-2.40681e-23
0
-4.01135e-23
0
4.81362e-23
0
-3.20908e-23
0
1.60454e-23
0
-2.40681e-23
0
-2.40681e-23
0
4.01135e-23
0
0
0
-1.60454e-23
0
-1.60454e-23
0
0
-1.60454e-23
0
0
8.0227e-24
-1.60454e-23
-1.60454e-23
-8.0227e-24
4.01135e-24
0
-2.00567e-24
0
0
0
1.60454e-23
-1.60454e-23
-4.81362e-23
1.60454e-23
-1.60454e-23
1.60454e-23
1.60454e-23
-3.20908e-23
0
0
-8.0227e-24
0
0
0
0
0
0
0
0
0
0
0
0
0
0
0
0
0
0
0
0
0
0
0
0
0
-1.80511e-23
8.0227e-24
0
2.40681e-23
2.40681e-23
4.01135e-23
-1.60454e-23
-1.2034e-23
1.2034e-23
-4.01135e-24
-1.2034e-23
-8.0227e-24
-4.01135e-24
-8.0227e-24
-1.2034e-23
-8.0227e-24
1.80511e-23
-8.0227e-24
-6.01702e-24
-6.01702e-24
-3.00851e-24
-2.00567e-24
0
2.00567e-24
4.01135e-24
6.01702e-24
1.60454e-23
1.2034e-23
1.60454e-23
2.40681e-23
1.60454e-23
2.40681e-23
-1.60454e-23
5.61589e-23
3.20908e-23
2.40681e-23
-4.81362e-23
4.81362e-23
-4.81362e-23
-1.60454e-23
1.60454e-23
-3.20908e-23
-4.01135e-23
4.81362e-23
-1.60454e-23
-3.20908e-23
-8.0227e-24
-2.40681e-23
-3.20908e-23
-2.00567e-23
4.37601e-23
0
0
1.10916e-23
0
8.0227e-24
1.44403e-23
0
-4.81362e-23
-5.94298e-23
0
1.60454e-23
1.69345e-23
0
0
-4.32137e-23
0
1.60454e-23
-3.75938e-23
0
1.60454e-23
-3.31009e-23
0
8.0227e-24
-1.6328e-23
0
-1.60454e-23
-2.59743e-23
0
8.0227e-24
-2.04089e-23
0
4.01135e-24
-6.2025e-24
0
1.00284e-24
1.04307e-23
-0
0
2.7387e-23
-0
-4.01135e-24
4.14538e-23
-0
-8.0227e-24
6.17438e-23
-0
-1.60454e-23
3.8278e-23
-0
-1.60454e-23
8.05491e-23
-0
-1.60454e-23
3.9285e-23
-0
-1.60454e-23
-1.20667e-23
-0
3.20908e-23
-1.12136e-23
-0
1.60454e-23
3.69296e-23
-0
1.60454e-23
-2.56703e-23
-0
0
-1.08433e-23
-0
8.0227e-24
-1.35689e-23
-0
1.60454e-23
0
-8.0227e-24
1.60454e-23
-8.0227e-24
8.0227e-24
0
0
-8.0227e-24
0
-8.0227e-24
-2.00567e-24
2.50709e-25
8.0227e-24
8.0227e-24
-8.0227e-24
1.60454e-23
-4.81362e-23
3.20908e-23
-3.20908e-23
0
1.60454e-23
-1.60454e-23
-1.60454e-23
8.0227e-24
-8.0227e-24
1.40397e-23
0
1.60454e-23
0
0
0
2.00567e-23
0
-1.60454e-23
0
1.60454e-23
0
8.0227e-24
0
8.0227e-24
0
-4.01135e-24
0
8.0227e-24
0
3.00851e-24
0
-1.00284e-24
0
0
-0
-8.0227e-24
-0
-8.0227e-24
-0
-2.40681e-23
-0
4.01135e-23
-0
-4.81362e-23
-0
6.41816e-23
-0
-5.61589e-23
-0
-2.40681e-23
-0
3.20908e-23
-0
8.0227e-24
-0
-1.60454e-23
-0
-2.00567e-23
-0
-1.80511e-23
8.0227e-24
-1.60454e-23
1.60454e-23
-8.0227e-24
1.60454e-23
-1.2034e-23
-4.01135e-23
0
1.2034e-23
-8.0227e-24
-2.80794e-23
-1.60454e-23
-2.40681e-23
-8.0227e-24
-2.00567e-23
2.00567e-24
-8.0227e-24
-5.01419e-24
-1.2034e-23
-3.50993e-24
-4.01135e-24
0
6.76915e-24
4.01135e-24
2.40681e-23
8.0227e-24
4.01135e-23
1.60454e-23
5.61589e-23
2.40681e-23
8.0227e-23
-1.60454e-23
4.81362e-23
3.20908e-23
8.0227e-23
0
4.81362e-23
0
-2.40681e-23
0
-3.20908e-23
0
4.81362e-23
2.40681e-23
-2.80794e-23
8.0227e-24
-2.00567e-23
0
-1.2034e-23
-0
-0
-0
-0
-0
-0
-0
-0
-0
-0
-0
0
0
0
0
0
0
0
0
0
0
0
0
0
0
)
;
    }
    baffle_master
    {
        type            calculated;
        value           nonuniform List<scalar> 
150
(
-4.94479e-30
0
0
2.06475e-29
0
0
7.73013e-30
0
1.14467e-29
3.91679e-30
0
0
5.20053e-30
0
4.29251e-30
2.91892e-30
0
0
-8.25303e-30
0
-1.14467e-29
-5.06142e-30
0
0
-1.12625e-29
0
0
-1.25132e-29
0
-2.28934e-29
-1.0209e-29
0
0
1.61192e-31
0
0
2.97772e-32
0
-7.15418e-31
-2.01338e-30
0
0
-1.80169e-29
0
-2.28934e-29
8.86561e-30
0
2.28934e-29
1.03045e-28
0
4.57867e-29
-6.89079e-30
0
-2.28934e-29
2.31093e-31
0
1.78854e-31
-1.49773e-31
0
-1.14467e-29
9.51501e-30
0
-2.28934e-29
1.4757e-28
0
9.15735e-29
1.29635e-29
0
0
-4.63801e-30
0
-5.72334e-30
1.99797e-29
0
4.57867e-29
0
-3.6134e-29
0
0
-3.45957e-29
0
1.14467e-29
-2.18994e-29
0
0
-8.69078e-30
0
0
-1.93233e-30
-0
-5.72334e-30
1.28987e-29
-0
-1.14467e-29
2.79239e-29
-0
0
3.49984e-29
-0
4.57867e-29
4.79686e-29
-0
0
3.58256e-29
-0
-1.14467e-29
3.84556e-29
-0
0
1.46841e-29
-0
7.15418e-31
-1.08421e-30
0
2.28934e-29
-2.59092e-29
0
0
-3.09173e-29
0
4.57867e-29
-6.35342e-29
0
-6.86801e-29
-3.83927e-29
0
0
-3.18496e-29
0
-8.94272e-32
-1.28479e-32
0
1.14467e-29
-3.11821e-29
-0
0
-4.67318e-29
-0
4.57867e-29
-1.57159e-28
-0
9.15735e-29
8.1566e-29
-0
0
-8.45925e-30
-0
0
3.86402e-29
0
)
;
    }
    baffle_slave
    {
        type            calculated;
        value           nonuniform List<scalar> 
150
(
-1.45411e-23
-0
1.60454e-23
6.51844e-24
-0
-8.0227e-24
4.01135e-24
-0
0
0
-0
8.0227e-24
-3.61021e-23
-0
-1.60454e-23
3.50993e-24
-0
0
7.01986e-24
-0
8.0227e-24
0
-0
4.01135e-24
1.00284e-24
-0
0
2.50709e-24
-0
-4.01135e-24
-1.50426e-24
-0
0
5.01419e-25
0
0
-5.01419e-25
0
4.01135e-24
3.00851e-24
0
-8.0227e-24
-3.00851e-24
0
-8.0227e-24
-3.00851e-24
0
1.60454e-23
-5.21475e-23
0
-6.41816e-23
0
0
0
-3.50993e-23
0
-3.20908e-23
3.00851e-24
0
-3.20908e-23
-4.01135e-24
0
-1.60454e-23
2.60738e-23
0
3.20908e-23
1.00284e-24
0
-1.60454e-23
-4.01135e-24
0
-1.60454e-23
5.51561e-24
0
0
-1.30315e-24
5.51561e-23
0
-4.37224e-24
2.00567e-23
0
-1.55531e-23
2.05582e-23
0
-9.29057e-25
2.00567e-23
0
3.4912e-24
-3.08372e-23
0
5.93778e-24
2.05582e-23
0
-6.01195e-24
1.22848e-23
0
-9.89859e-24
1.70482e-23
0
7.50285e-24
1.02791e-23
0
-5.05877e-24
1.09059e-23
0
-7.55234e-25
8.90018e-24
0
6.22782e-25
3.38458e-24
0
6.21987e-24
-8.77483e-25
0
5.63873e-24
-5.38633e-24
0
1.31652e-23
-9.52696e-24
0
1.57169e-23
-1.45411e-23
0
-4.7255e-23
-2.1561e-23
0
1.22491e-23
-1.60454e-23
0
-1.99027e-23
-2.00567e-24
0
3.52227e-23
1.30369e-23
0
3.91087e-24
1.2034e-23
0
-3.28629e-23
3.61021e-23
0
-1.55507e-23
-1.30369e-23
0
-4.1087e-24
8.0227e-24
0
-2.5673e-24
1.40397e-23
0
)
;
    }
}


// ************************************************************************* //
