/*--------------------------------*- C++ -*----------------------------------*\
| =========                 |                                                 |
| \\      /  F ield         | OpenFOAM: The Open Source CFD Toolbox           |
|  \\    /   O peration     | Version:  2212                                  |
|   \\  /    A nd           | Website:  www.openfoam.com                      |
|    \\/     M anipulation  |                                                 |
\*---------------------------------------------------------------------------*/
FoamFile
{
    version     2.0;
    format      ascii;
    arch        "LSB;label=32;scalar=64";
    class       volScalarField;
    location    "69/fluidRegion";
    object      heatFlux.structure;
}
// * * * * * * * * * * * * * * * * * * * * * * * * * * * * * * * * * * * * * //

dimensions      [1 0 -3 0 0 0 0];

internalField   nonuniform List<scalar> 
350
(
-258337
-258337
-258335
-258332
-258329
-258327
-258325
-258324
-258324
-258325
-258328
-258332
-258337
-258342
-258347
-258350
-258352
-258352
-258350
-258348
-258347
-258349
-258354
-258363
-258802
-258337
-258337
-258335
-258332
-258329
-258327
-258325
-258324
-258324
-258325
-258328
-258332
-258337
-258342
-258347
-258350
-258352
-258352
-258350
-258348
-258347
-258349
-258354
-258363
-258802
450101
1.34389e+06
2.21649e+06
3.05412e+06
3.84358e+06
4.57242e+06
5.22915e+06
5.8034e+06
6.28613e+06
6.66971e+06
6.94811e+06
7.11693e+06
7.17352e+06
7.11696e+06
6.94817e+06
6.6698e+06
6.28624e+06
5.80354e+06
5.22929e+06
4.57261e+06
3.8438e+06
3.05439e+06
2.21675e+06
1.34416e+06
450459
455252
1.35928e+06
2.24187e+06
3.0891e+06
3.88761e+06
4.6248e+06
5.28904e+06
5.86987e+06
6.35813e+06
6.74611e+06
7.0277e+06
7.19846e+06
7.25569e+06
7.19849e+06
7.02776e+06
6.7462e+06
6.35825e+06
5.87002e+06
5.28919e+06
4.62499e+06
3.88783e+06
3.08937e+06
2.24214e+06
1.35956e+06
455619
449281
1.34144e+06
2.21244e+06
3.04855e+06
3.83657e+06
4.56408e+06
5.21961e+06
5.79281e+06
6.27466e+06
6.65755e+06
6.93544e+06
7.10395e+06
7.16043e+06
7.10398e+06
6.9355e+06
6.65763e+06
6.27478e+06
5.79296e+06
5.21975e+06
4.56427e+06
3.83678e+06
3.04881e+06
2.2127e+06
1.34171e+06
449638
454066
1.35574e+06
2.23603e+06
3.08105e+06
3.87747e+06
4.61274e+06
5.27526e+06
5.85457e+06
6.34156e+06
6.72853e+06
7.00938e+06
7.17969e+06
7.23677e+06
7.17972e+06
7.00944e+06
6.72861e+06
6.34167e+06
5.85472e+06
5.2754e+06
4.61294e+06
3.87769e+06
3.08132e+06
2.23629e+06
1.35601e+06
454431
454066
1.35574e+06
2.23603e+06
3.08105e+06
3.87747e+06
4.61274e+06
5.27526e+06
5.85457e+06
6.34156e+06
6.72853e+06
7.00938e+06
7.17969e+06
7.23677e+06
7.17972e+06
7.00944e+06
6.72861e+06
6.34167e+06
5.85472e+06
5.2754e+06
4.61293e+06
3.87769e+06
3.08132e+06
2.2363e+06
1.35601e+06
454431
449281
1.34144e+06
2.21245e+06
3.04855e+06
3.83657e+06
4.56408e+06
5.21961e+06
5.79281e+06
6.27466e+06
6.65755e+06
6.93544e+06
7.10395e+06
7.16043e+06
7.10398e+06
6.9355e+06
6.65763e+06
6.27478e+06
5.79296e+06
5.21975e+06
4.56427e+06
3.83678e+06
3.04882e+06
2.2127e+06
1.34171e+06
449638
455252
1.35928e+06
2.24187e+06
3.0891e+06
3.8876e+06
4.6248e+06
5.28904e+06
5.86987e+06
6.35813e+06
6.74611e+06
7.0277e+06
7.19846e+06
7.25569e+06
7.19849e+06
7.02776e+06
6.7462e+06
6.35825e+06
5.87002e+06
5.28919e+06
4.62499e+06
3.88783e+06
3.08937e+06
2.24214e+06
1.35956e+06
455619
450101
1.34389e+06
2.21649e+06
3.05412e+06
3.84358e+06
4.57242e+06
5.22915e+06
5.8034e+06
6.28613e+06
6.66971e+06
6.94811e+06
7.11693e+06
7.17351e+06
7.11696e+06
6.94817e+06
6.6698e+06
6.28624e+06
5.80354e+06
5.22929e+06
4.57261e+06
3.8438e+06
3.05439e+06
2.21675e+06
1.34416e+06
450459
454066
1.35574e+06
2.23603e+06
3.08105e+06
3.87747e+06
4.61274e+06
5.27526e+06
5.85457e+06
6.34156e+06
6.72853e+06
7.00938e+06
7.17969e+06
7.23677e+06
7.17972e+06
7.00944e+06
6.72861e+06
6.34167e+06
5.85472e+06
5.2754e+06
4.61294e+06
3.87769e+06
3.08132e+06
2.2363e+06
1.35601e+06
454431
449281
1.34144e+06
2.21245e+06
3.04855e+06
3.83657e+06
4.56408e+06
5.21961e+06
5.79281e+06
6.27466e+06
6.65755e+06
6.93544e+06
7.10395e+06
7.16043e+06
7.10398e+06
6.9355e+06
6.65763e+06
6.27478e+06
5.79296e+06
5.21975e+06
4.56427e+06
3.83679e+06
3.04882e+06
2.21271e+06
1.34171e+06
449638
449281
1.34144e+06
2.21245e+06
3.04855e+06
3.83657e+06
4.56408e+06
5.21961e+06
5.79281e+06
6.27466e+06
6.65755e+06
6.93544e+06
7.10395e+06
7.16043e+06
7.10398e+06
6.9355e+06
6.65763e+06
6.27477e+06
5.79296e+06
5.21975e+06
4.56427e+06
3.83678e+06
3.04881e+06
2.2127e+06
1.34171e+06
449638
454066
1.35574e+06
2.23603e+06
3.08105e+06
3.87747e+06
4.61274e+06
5.27525e+06
5.85457e+06
6.34156e+06
6.72853e+06
7.00938e+06
7.17969e+06
7.23677e+06
7.17972e+06
7.00944e+06
6.72861e+06
6.34167e+06
5.85472e+06
5.2754e+06
4.61293e+06
3.87769e+06
3.08132e+06
2.23629e+06
1.35601e+06
454431
)
;

boundaryField
{
    outletCentralUnloaded
    {
        type            zeroGradient;
    }
    inletCentralUnloaded
    {
        type            zeroGradient;
    }
    outletFuelElement
    {
        type            zeroGradient;
    }
    inletFuelElement
    {
        type            zeroGradient;
    }
    defaultFaces
    {
        type            zeroGradient;
    }
    baffle_master
    {
        type            zeroGradient;
    }
    baffle_slave
    {
        type            zeroGradient;
    }
}


// ************************************************************************* //
