/*--------------------------------*- C++ -*----------------------------------*\
| =========                 |                                                 |
| \\      /  F ield         | OpenFOAM: The Open Source CFD Toolbox           |
|  \\    /   O peration     | Version:  2212                                  |
|   \\  /    A nd           | Website:  www.openfoam.com                      |
|    \\/     M anipulation  |                                                 |
\*---------------------------------------------------------------------------*/
FoamFile
{
    version     2.0;
    format      ascii;
    arch        "LSB;label=32;scalar=64";
    class       volScalarField;
    location    "69/fluidRegion";
    object      T.cladAvForNeutronics;
}
// * * * * * * * * * * * * * * * * * * * * * * * * * * * * * * * * * * * * * //

dimensions      [0 0 0 1 0 0 0];

internalField   nonuniform List<scalar> 
350
(
0
0
0
0
0
0
0
0
0
0
0
0
0
0
0
0
0
0
0
0
0
0
0
0
0
0
0
0
0
0
0
0
0
0
0
0
0
0
0
0
0
0
0
0
0
0
0
0
0
0
1845.81
1883.9
1909.04
1921.24
1920.61
1907.44
1882.14
1845.29
1797.59
1739.89
1673.17
1598.53
1517.18
1430.48
1339.85
1246.76
1152.59
1058.42
964.634
870.418
772.853
665.644
538.039
377.923
186.901
1874.27
1912.97
1938.49
1950.85
1950.16
1936.69
1910.89
1873.32
1824.7
1765.91
1697.93
1621.87
1538.99
1450.62
1358.24
1263.34
1167.35
1071.4
975.942
880.195
781.241
672.701
543.607
381.541
188.124
1841.19
1879.2
1904.3
1916.49
1915.89
1902.78
1877.59
1840.86
1793.32
1735.81
1669.3
1594.89
1513.8
1427.36
1337.01
1244.21
1150.33
1056.43
962.911
868.934
771.588
664.591
537.22
377.395
186.714
1867.87
1906.41
1931.84
1944.14
1943.45
1930.04
1904.33
1866.92
1818.5
1759.95
1692.25
1616.51
1533.97
1445.98
1354
1259.51
1163.94
1068.4
973.328
877.934
779.3
671.067
542.316
380.702
187.841
1867.87
1906.41
1931.84
1944.14
1943.45
1930.04
1904.33
1866.92
1818.5
1759.95
1692.25
1616.51
1533.97
1445.98
1354
1259.51
1163.94
1068.4
973.328
877.934
779.3
671.067
542.316
380.701
187.841
1841.19
1879.2
1904.3
1916.49
1915.89
1902.79
1877.59
1840.86
1793.32
1735.81
1669.3
1594.89
1513.8
1427.36
1337.01
1244.21
1150.33
1056.43
962.912
868.935
771.589
664.592
537.221
377.396
186.714
1874.27
1912.97
1938.49
1950.85
1950.16
1936.69
1910.89
1873.32
1824.7
1765.91
1697.93
1621.87
1538.99
1450.62
1358.24
1263.34
1167.35
1071.4
975.942
880.195
781.241
672.701
543.607
381.541
188.124
1845.81
1883.9
1909.04
1921.24
1920.61
1907.44
1882.14
1845.29
1797.59
1739.89
1673.17
1598.53
1517.18
1430.48
1339.85
1246.76
1152.59
1058.42
964.634
870.418
772.853
665.644
538.039
377.923
186.901
1867.87
1906.41
1931.84
1944.14
1943.45
1930.04
1904.33
1866.92
1818.5
1759.95
1692.25
1616.51
1533.97
1445.98
1354
1259.51
1163.94
1068.4
973.328
877.934
779.3
671.067
542.316
380.702
187.841
1841.19
1879.2
1904.3
1916.49
1915.89
1902.78
1877.59
1840.86
1793.32
1735.81
1669.3
1594.89
1513.8
1427.36
1337.01
1244.21
1150.33
1056.43
962.911
868.934
771.588
664.591
537.22
377.395
186.714
1841.19
1879.2
1904.3
1916.49
1915.89
1902.79
1877.59
1840.86
1793.32
1735.81
1669.3
1594.89
1513.8
1427.36
1337.01
1244.21
1150.33
1056.43
962.912
868.935
771.589
664.592
537.22
377.396
186.714
1867.87
1906.41
1931.84
1944.14
1943.45
1930.04
1904.33
1866.92
1818.5
1759.95
1692.25
1616.51
1533.97
1445.98
1354
1259.51
1163.94
1068.4
973.328
877.934
779.3
671.067
542.316
380.701
187.841
)
;

boundaryField
{
    outletCentralUnloaded
    {
        type            zeroGradient;
    }
    inletCentralUnloaded
    {
        type            zeroGradient;
    }
    outletFuelElement
    {
        type            zeroGradient;
    }
    inletFuelElement
    {
        type            zeroGradient;
    }
    defaultFaces
    {
        type            zeroGradient;
    }
    baffle_master
    {
        type            zeroGradient;
    }
    baffle_slave
    {
        type            zeroGradient;
    }
}


// ************************************************************************* //
