/*--------------------------------*- C++ -*----------------------------------*\
| =========                 |                                                 |
| \\      /  F ield         | OpenFOAM: The Open Source CFD Toolbox           |
|  \\    /   O peration     | Version:  2212                                  |
|   \\  /    A nd           | Website:  www.openfoam.com                      |
|    \\/     M anipulation  |                                                 |
\*---------------------------------------------------------------------------*/
FoamFile
{
    version     2.0;
    format      ascii;
    arch        "LSB;label=32;scalar=64";
    class       volScalarField;
    location    "69/fluidRegion";
    object      T.fuelAvForNeutronics;
}
// * * * * * * * * * * * * * * * * * * * * * * * * * * * * * * * * * * * * * //

dimensions      [0 0 0 1 0 0 0];

internalField   nonuniform List<scalar> 
350
(
0
0
0
0
0
0
0
0
0
0
0
0
0
0
0
0
0
0
0
0
0
0
0
0
0
0
0
0
0
0
0
0
0
0
0
0
0
0
0
0
0
0
0
0
0
0
0
0
0
0
2222.95
3009.99
3766.33
4480.42
5141.33
5738.9
6263.9
6708.25
7065.05
7328.79
7495.35
7562.17
7528.24
7394.15
7162.08
6835.73
6420.16
5921.51
5346.53
4702.05
3993.77
3225.07
2395.57
1504.27
564.365
2255.72
3051.96
3817.06
4539.35
5207.77
5812.04
6342.84
6791.98
7152.5
7418.82
7586.8
7653.83
7618.9
7482.61
7247.16
6916.33
6495.26
5990.2
5408.03
4755.72
4039.05
3261.45
2422.41
1520.79
569.912
2217.64
3003.24
3758.2
4471.01
5130.74
5727.25
6251.35
6694.95
7051.18
7314.51
7480.86
7547.66
7513.89
7380.16
7148.62
6822.99
6408.29
5910.65
5336.81
4693.58
3986.63
3219.35
2391.36
1501.69
563.491
2248.33
3042.43
3805.5
4525.89
5192.57
5795.28
6324.73
6772.76
7132.41
7398.13
7565.77
7632.74
7598.03
7462.24
7227.57
6897.77
6477.96
5974.37
5393.86
4743.35
4028.62
3253.07
2416.22
1516.98
568.634
2248.33
3042.43
3805.5
4525.89
5192.57
5795.28
6324.73
6772.75
7132.41
7398.13
7565.77
7632.74
7598.03
7462.24
7227.57
6897.77
6477.96
5974.37
5393.86
4743.35
4028.62
3253.07
2416.22
1516.98
568.634
2217.64
3003.24
3758.2
4471.01
5130.74
5727.25
6251.36
6694.95
7051.18
7314.51
7480.86
7547.66
7513.89
7380.16
7148.63
6822.99
6408.29
5910.65
5336.81
4693.58
3986.63
3219.35
2391.36
1501.69
563.491
2255.72
3051.96
3817.06
4539.35
5207.77
5812.04
6342.84
6791.98
7152.5
7418.82
7586.8
7653.83
7618.9
7482.61
7247.16
6916.33
6495.26
5990.19
5408.03
4755.72
4039.05
3261.45
2422.41
1520.79
569.912
2222.95
3009.99
3766.33
4480.42
5141.33
5738.9
6263.9
6708.25
7065.05
7328.79
7495.35
7562.17
7528.24
7394.15
7162.08
6835.73
6420.16
5921.51
5346.53
4702.05
3993.77
3225.07
2395.57
1504.27
564.365
2248.33
3042.43
3805.5
4525.89
5192.57
5795.28
6324.73
6772.75
7132.41
7398.13
7565.77
7632.74
7598.03
7462.24
7227.57
6897.77
6477.96
5974.37
5393.86
4743.35
4028.62
3253.07
2416.22
1516.98
568.634
2217.64
3003.24
3758.2
4471.01
5130.74
5727.25
6251.35
6694.95
7051.18
7314.51
7480.86
7547.66
7513.89
7380.16
7148.62
6822.99
6408.29
5910.65
5336.81
4693.58
3986.63
3219.35
2391.36
1501.69
563.491
2217.64
3003.24
3758.2
4471.01
5130.74
5727.25
6251.36
6694.95
7051.18
7314.51
7480.86
7547.66
7513.89
7380.16
7148.62
6822.99
6408.29
5910.65
5336.81
4693.58
3986.63
3219.35
2391.36
1501.69
563.491
2248.33
3042.43
3805.5
4525.89
5192.57
5795.28
6324.73
6772.75
7132.41
7398.13
7565.77
7632.74
7598.03
7462.24
7227.57
6897.77
6477.96
5974.37
5393.86
4743.35
4028.62
3253.07
2416.22
1516.98
568.634
)
;

boundaryField
{
    outletCentralUnloaded
    {
        type            zeroGradient;
    }
    inletCentralUnloaded
    {
        type            zeroGradient;
    }
    outletFuelElement
    {
        type            zeroGradient;
    }
    inletFuelElement
    {
        type            zeroGradient;
    }
    defaultFaces
    {
        type            zeroGradient;
    }
    baffle_master
    {
        type            zeroGradient;
    }
    baffle_slave
    {
        type            zeroGradient;
    }
}


// ************************************************************************* //
