/*--------------------------------*- C++ -*----------------------------------*\
| =========                 |                                                 |
| \\      /  F ield         | OpenFOAM: The Open Source CFD Toolbox           |
|  \\    /   O peration     | Version:  2212                                  |
|   \\  /    A nd           | Website:  www.openfoam.com                      |
|    \\/     M anipulation  |                                                 |
\*---------------------------------------------------------------------------*/
FoamFile
{
    version     2.0;
    format      ascii;
    arch        "LSB;label=32;scalar=64";
    class       volScalarField;
    location    "69/fluidRegion";
    object      Tci.nuclearFuelPin;
}
// * * * * * * * * * * * * * * * * * * * * * * * * * * * * * * * * * * * * * //

dimensions      [0 0 0 1 0 0 0];

internalField   nonuniform List<scalar> 
350
(
0
0
0
0
0
0
0
0
0
0
0
0
0
0
0
0
0
0
0
0
0
0
0
0
0
0
0
0
0
0
0
0
0
0
0
0
0
0
0
0
0
0
0
0
0
0
0
0
0
0
1851.92
1902.13
1939.12
1962.69
1972.77
1969.49
1953.11
1924.05
1882.9
1830.41
1767.47
1695.12
1614.54
1527.07
1434.15
1337.28
1237.9
1137.18
1035.6
932.475
825.019
707.097
568.123
396.165
193.014
1880.44
1931.41
1968.92
1992.77
2002.92
1999.46
1982.67
1952.98
1910.99
1857.47
1793.31
1719.57
1637.46
1548.32
1453.62
1354.89
1253.64
1151.06
1047.72
942.963
834.004
714.628
574.036
399.993
194.307
1847.29
1897.4
1934.32
1957.86
1967.96
1964.73
1948.42
1919.48
1878.48
1826.16
1763.43
1691.3
1610.98
1523.78
1431.14
1334.56
1235.49
1135.05
1033.75
930.878
823.659
705.968
567.249
395.604
192.817
1874.03
1924.81
1962.18
1985.95
1996.07
1992.64
1975.93
1946.37
1904.57
1851.27
1787.38
1713.95
1632.19
1543.42
1449.13
1350.83
1250.01
1147.86
1044.92
940.538
831.926
712.885
572.666
399.105
194.008
1874.03
1924.81
1962.18
1985.95
1996.07
1992.64
1975.93
1946.37
1904.57
1851.27
1787.38
1713.95
1632.19
1543.42
1449.13
1350.83
1250.01
1147.86
1044.92
940.538
831.926
712.885
572.666
399.105
194.008
1847.29
1897.4
1934.32
1957.86
1967.96
1964.73
1948.42
1919.48
1878.48
1826.17
1763.43
1691.3
1610.98
1523.78
1431.14
1334.56
1235.49
1135.05
1033.75
930.879
823.66
705.969
567.25
395.605
192.817
1880.44
1931.41
1968.92
1992.77
2002.92
1999.46
1982.67
1952.98
1910.99
1857.47
1793.31
1719.57
1637.46
1548.32
1453.62
1354.89
1253.64
1151.06
1047.72
942.963
834.004
714.628
574.036
399.993
194.307
1851.92
1902.13
1939.12
1962.69
1972.77
1969.49
1953.11
1924.05
1882.9
1830.41
1767.47
1695.12
1614.54
1527.07
1434.15
1337.28
1237.9
1137.18
1035.6
932.475
825.019
707.097
568.124
396.165
193.014
1874.03
1924.81
1962.18
1985.95
1996.07
1992.64
1975.93
1946.37
1904.57
1851.27
1787.38
1713.95
1632.19
1543.42
1449.13
1350.83
1250.01
1147.86
1044.92
940.538
831.926
712.885
572.666
399.105
194.008
1847.29
1897.4
1934.32
1957.86
1967.96
1964.73
1948.42
1919.48
1878.48
1826.16
1763.43
1691.3
1610.98
1523.78
1431.14
1334.56
1235.49
1135.05
1033.75
930.879
823.659
705.968
567.25
395.604
192.817
1847.29
1897.4
1934.32
1957.86
1967.96
1964.73
1948.42
1919.48
1878.48
1826.17
1763.43
1691.3
1610.98
1523.78
1431.14
1334.56
1235.49
1135.05
1033.75
930.879
823.66
705.969
567.25
395.605
192.817
1874.03
1924.81
1962.18
1985.95
1996.07
1992.64
1975.93
1946.37
1904.57
1851.27
1787.38
1713.95
1632.19
1543.42
1449.13
1350.83
1250.01
1147.86
1044.92
940.538
831.926
712.885
572.666
399.105
194.008
)
;

boundaryField
{
    outletCentralUnloaded
    {
        type            zeroGradient;
    }
    inletCentralUnloaded
    {
        type            zeroGradient;
    }
    outletFuelElement
    {
        type            zeroGradient;
    }
    inletFuelElement
    {
        type            zeroGradient;
    }
    defaultFaces
    {
        type            zeroGradient;
    }
    baffle_master
    {
        type            zeroGradient;
    }
    baffle_slave
    {
        type            zeroGradient;
    }
}


// ************************************************************************* //
