/*--------------------------------*- C++ -*----------------------------------*\
| =========                 |                                                 |
| \\      /  F ield         | OpenFOAM: The Open Source CFD Toolbox           |
|  \\    /   O peration     | Version:  2212                                  |
|   \\  /    A nd           | Website:  www.openfoam.com                      |
|    \\/     M anipulation  |                                                 |
\*---------------------------------------------------------------------------*/
FoamFile
{
    version     2.0;
    format      ascii;
    arch        "LSB;label=32;scalar=64";
    class       volScalarField;
    location    "69/fluidRegion";
    object      Tco.nuclearFuelPin;
}
// * * * * * * * * * * * * * * * * * * * * * * * * * * * * * * * * * * * * * //

dimensions      [0 0 0 1 0 0 0];

internalField   nonuniform List<scalar> 
350
(
0
0
0
0
0
0
0
0
0
0
0
0
0
0
0
0
0
0
0
0
0
0
0
0
0
0
0
0
0
0
0
0
0
0
0
0
0
0
0
0
0
0
0
0
0
0
0
0
0
0
1840.11
1866.87
1880.96
1882.54
1871.92
1849.51
1815.89
1771.77
1717.95
1655.4
1585.15
1508.36
1426.3
1340.32
1251.82
1162.26
1072.95
984.892
898.385
812.488
724.156
626.948
509.955
360.894
181.194
1868.5
1895.74
1910.09
1911.72
1900.91
1878.1
1843.88
1798.95
1744.15
1680.45
1608.9
1530.68
1447.06
1359.43
1269.2
1177.87
1086.8
997.032
908.934
821.601
731.986
633.562
515.201
364.317
182.351
1835.5
1862.2
1876.27
1877.87
1867.29
1844.96
1811.46
1767.47
1713.83
1651.47
1581.44
1504.89
1423.08
1337.36
1249.15
1159.86
1070.83
983.042
896.783
811.11
722.98
625.966
509.187
360.397
181.018
1862.11
1889.23
1903.51
1905.11
1894.32
1871.6
1837.5
1792.74
1738.16
1674.71
1603.45
1525.55
1442.29
1355.02
1265.2
1174.27
1083.6
994.225
906.494
819.493
730.174
632.03
513.985
363.522
182.084
1862.11
1889.23
1903.51
1905.11
1894.32
1871.6
1837.5
1792.74
1738.16
1674.71
1603.45
1525.55
1442.29
1355.02
1265.2
1174.27
1083.6
994.225
906.494
819.493
730.174
632.03
513.985
363.522
182.084
1835.5
1862.2
1876.27
1877.87
1867.29
1844.96
1811.46
1767.47
1713.83
1651.47
1581.44
1504.89
1423.09
1337.36
1249.15
1159.86
1070.83
983.043
896.783
811.11
722.981
625.967
509.188
360.398
181.018
1868.5
1895.74
1910.09
1911.72
1900.91
1878.1
1843.88
1798.95
1744.15
1680.45
1608.9
1530.68
1447.06
1359.43
1269.2
1177.87
1086.8
997.032
908.934
821.601
731.986
633.562
515.201
364.317
182.351
1840.11
1866.87
1880.96
1882.54
1871.92
1849.51
1815.89
1771.77
1717.95
1655.4
1585.15
1508.36
1426.3
1340.32
1251.82
1162.26
1072.95
984.892
898.385
812.488
724.156
626.948
509.955
360.894
181.194
1862.11
1889.23
1903.51
1905.11
1894.32
1871.6
1837.5
1792.74
1738.16
1674.71
1603.45
1525.55
1442.29
1355.02
1265.2
1174.27
1083.6
994.225
906.494
819.493
730.174
632.03
513.985
363.522
182.084
1835.5
1862.2
1876.27
1877.87
1867.29
1844.96
1811.46
1767.47
1713.83
1651.47
1581.44
1504.89
1423.08
1337.36
1249.15
1159.86
1070.83
983.042
896.783
811.11
722.98
625.966
509.187
360.397
181.018
1835.5
1862.2
1876.27
1877.87
1867.29
1844.96
1811.46
1767.47
1713.83
1651.47
1581.44
1504.89
1423.09
1337.36
1249.15
1159.86
1070.83
983.043
896.783
811.11
722.981
625.967
509.188
360.398
181.018
1862.11
1889.23
1903.51
1905.11
1894.32
1871.6
1837.5
1792.74
1738.16
1674.71
1603.45
1525.55
1442.29
1355.02
1265.2
1174.27
1083.6
994.225
906.494
819.493
730.174
632.03
513.985
363.522
182.084
)
;

boundaryField
{
    outletCentralUnloaded
    {
        type            zeroGradient;
    }
    inletCentralUnloaded
    {
        type            zeroGradient;
    }
    outletFuelElement
    {
        type            zeroGradient;
    }
    inletFuelElement
    {
        type            zeroGradient;
    }
    defaultFaces
    {
        type            zeroGradient;
    }
    baffle_master
    {
        type            zeroGradient;
    }
    baffle_slave
    {
        type            zeroGradient;
    }
}


// ************************************************************************* //
