/*--------------------------------*- C++ -*----------------------------------*\
| =========                 |                                                 |
| \\      /  F ield         | OpenFOAM: The Open Source CFD Toolbox           |
|  \\    /   O peration     | Version:  2212                                  |
|   \\  /    A nd           | Website:  www.openfoam.com                      |
|    \\/     M anipulation  |                                                 |
\*---------------------------------------------------------------------------*/
FoamFile
{
    version     2.0;
    format      ascii;
    arch        "LSB;label=32;scalar=64";
    class       volScalarField;
    location    "69/fluidRegion";
    object      Tfi.nuclearFuelPin;
}
// * * * * * * * * * * * * * * * * * * * * * * * * * * * * * * * * * * * * * //

dimensions      [0 0 0 1 0 0 0];

internalField   nonuniform List<scalar> 
350
(
0
0
0
0
0
0
0
0
0
0
0
0
0
0
0
0
0
0
0
0
0
0
0
0
0
0
0
0
0
0
0
0
0
0
0
0
0
0
0
0
0
0
0
0
0
0
0
0
0
0
2425.02
3613.44
4761.64
5851.89
6867.32
7792.19
8612.11
9314.34
9887.92
10323.9
10615.5
10758.1
10749.6
10590.1
10282.3
9830.91
9243.1
8527.68
7694.83
6755.46
5719.89
4596.7
3391.03
2107.89
766.655
2460.11
3662.32
4823.76
5926.52
6953.53
7888.84
8717.94
9427.92
10007.7
10448.3
10742.7
10886.4
10877.2
10715.2
10403.1
9945.82
9350.53
8626.22
7783.23
6832.65
5784.95
4648.78
3429.28
2131.32
774.519
2419.35
3605.59
4751.69
5839.97
6853.58
7776.8
8595.28
9296.29
9868.9
10304.2
10595.3
10737.8
10729.4
10570.3
10263.1
9812.7
9226.08
8512.08
7680.83
6743.24
5709.6
4588.47
3385.01
2104.2
765.412
2452.18
3651.2
4809.58
5909.45
6933.77
7866.67
8693.64
9401.82
9980.17
10419.7
10713.4
10856.9
10847.8
10686.4
10375.3
9919.36
9325.79
8603.53
7762.87
6814.87
5769.96
4636.78
3420.47
2125.92
772.707
2452.18
3651.2
4809.58
5909.45
6933.77
7866.67
8693.64
9401.82
9980.17
10419.7
10713.4
10856.9
10847.8
10686.4
10375.3
9919.36
9325.79
8603.53
7762.87
6814.87
5769.96
4636.78
3420.47
2125.92
772.707
2419.35
3605.59
4751.69
5839.97
6853.58
7776.8
8595.28
9296.29
9868.9
10304.2
10595.3
10737.8
10729.4
10570.3
10263.1
9812.71
9226.08
8512.08
7680.83
6743.24
5709.6
4588.47
3385.01
2104.2
765.412
2460.11
3662.32
4823.76
5926.52
6953.52
7888.84
8717.94
9427.92
10007.7
10448.3
10742.7
10886.4
10877.2
10715.2
10403.1
9945.82
9350.53
8626.22
7783.23
6832.65
5784.95
4648.78
3429.28
2131.32
774.519
2425.02
3613.44
4761.64
5851.89
6867.32
7792.19
8612.11
9314.34
9887.92
10323.9
10615.5
10758.1
10749.6
10590.1
10282.3
9830.91
9243.1
8527.68
7694.83
6755.46
5719.89
4596.7
3391.04
2107.89
766.655
2452.18
3651.2
4809.58
5909.45
6933.77
7866.67
8693.64
9401.82
9980.17
10419.7
10713.4
10856.9
10847.8
10686.4
10375.3
9919.36
9325.79
8603.53
7762.87
6814.87
5769.96
4636.78
3420.47
2125.92
772.707
2419.35
3605.59
4751.69
5839.97
6853.58
7776.8
8595.28
9296.29
9868.9
10304.2
10595.3
10737.8
10729.4
10570.3
10263.1
9812.7
9226.08
8512.08
7680.83
6743.24
5709.6
4588.47
3385.01
2104.2
765.412
2419.35
3605.59
4751.69
5839.97
6853.58
7776.8
8595.28
9296.29
9868.9
10304.2
10595.3
10737.8
10729.4
10570.3
10263.1
9812.71
9226.08
8512.08
7680.83
6743.24
5709.6
4588.47
3385.01
2104.2
765.412
2452.18
3651.2
4809.58
5909.45
6933.77
7866.67
8693.64
9401.82
9980.17
10419.7
10713.4
10856.9
10847.8
10686.4
10375.3
9919.36
9325.79
8603.53
7762.87
6814.87
5769.96
4636.78
3420.47
2125.92
772.707
)
;

boundaryField
{
    outletCentralUnloaded
    {
        type            zeroGradient;
    }
    inletCentralUnloaded
    {
        type            zeroGradient;
    }
    outletFuelElement
    {
        type            zeroGradient;
    }
    inletFuelElement
    {
        type            zeroGradient;
    }
    defaultFaces
    {
        type            zeroGradient;
    }
    baffle_master
    {
        type            zeroGradient;
    }
    baffle_slave
    {
        type            zeroGradient;
    }
}


// ************************************************************************* //
