/*--------------------------------*- C++ -*----------------------------------*\
| =========                 |                                                 |
| \\      /  F ield         | OpenFOAM: The Open Source CFD Toolbox           |
|  \\    /   O peration     | Version:  2212                                  |
|   \\  /    A nd           | Website:  www.openfoam.com                      |
|    \\/     M anipulation  |                                                 |
\*---------------------------------------------------------------------------*/
FoamFile
{
    version     2.0;
    format      ascii;
    arch        "LSB;label=32;scalar=64";
    class       volVectorField;
    location    "69/fluidRegion";
    object      U;
}
// * * * * * * * * * * * * * * * * * * * * * * * * * * * * * * * * * * * * * //

dimensions      [0 1 -1 0 0 0 0];

internalField   nonuniform List<vector> 
350
(
(1.95504e-10 1.12874e-10 -14.9701)
(2.03023e-10 1.17215e-10 -14.9687)
(1.25836e-10 7.26514e-11 -14.9671)
(4.05476e-11 2.34101e-11 -14.9655)
(-2.47568e-11 -1.42933e-11 -14.9639)
(-7.15769e-11 -4.13248e-11 -14.9623)
(-1.06401e-10 -6.14307e-11 -14.9607)
(-1.32877e-10 -7.67165e-11 -14.9592)
(-1.49505e-10 -8.63165e-11 -14.9577)
(-1.4938e-10 -8.62442e-11 -14.9564)
(-1.2693e-10 -7.32826e-11 -14.9551)
(-7.90319e-11 -4.56289e-11 -14.9539)
(-1.04988e-11 -6.06148e-12 -14.9528)
(6.65584e-11 3.84274e-11 -14.9516)
(1.31527e-10 7.59372e-11 -14.9505)
(1.65652e-10 9.5639e-11 -14.9493)
(1.52788e-10 8.82117e-11 -14.9479)
(8.82568e-11 5.09549e-11 -14.9465)
(-1.90314e-11 -1.09878e-11 -14.945)
(-1.44831e-10 -8.36177e-11 -14.9436)
(-2.55782e-10 -1.47675e-10 -14.9422)
(-3.18497e-10 -1.83884e-10 -14.9409)
(-3.02611e-10 -1.74712e-10 -14.9399)
(-8.33649e-11 -4.81306e-11 -14.9391)
(3.73726e-10 2.1577e-10 -14.9693)
(1.95504e-10 1.12874e-10 -14.9701)
(2.03023e-10 1.17215e-10 -14.9687)
(1.25836e-10 7.26514e-11 -14.9671)
(4.05476e-11 2.34101e-11 -14.9655)
(-2.47568e-11 -1.42933e-11 -14.9639)
(-7.15769e-11 -4.13248e-11 -14.9623)
(-1.06401e-10 -6.14307e-11 -14.9607)
(-1.32877e-10 -7.67165e-11 -14.9592)
(-1.49505e-10 -8.63165e-11 -14.9577)
(-1.4938e-10 -8.62442e-11 -14.9564)
(-1.2693e-10 -7.32826e-11 -14.9551)
(-7.90319e-11 -4.56289e-11 -14.9539)
(-1.04988e-11 -6.06149e-12 -14.9528)
(6.65584e-11 3.84274e-11 -14.9516)
(1.31527e-10 7.59372e-11 -14.9505)
(1.65652e-10 9.56389e-11 -14.9493)
(1.52788e-10 8.82117e-11 -14.9479)
(8.82568e-11 5.09549e-11 -14.9465)
(-1.90314e-11 -1.09878e-11 -14.945)
(-1.44831e-10 -8.36177e-11 -14.9436)
(-2.55782e-10 -1.47675e-10 -14.9422)
(-3.18497e-10 -1.83884e-10 -14.9409)
(-3.02611e-10 -1.74712e-10 -14.9399)
(-8.33649e-11 -4.81306e-11 -14.9391)
(3.73726e-10 2.1577e-10 -14.9693)
(-0.00197617 -0.00114094 -423.811)
(-0.00093863 -0.000541918 -415.822)
(-0.00101699 -0.000587158 -405.718)
(-0.000915202 -0.000528391 -393.289)
(-0.000828494 -0.000478331 -378.729)
(-0.000748176 -0.000431959 -362.24)
(-0.000673796 -0.000389016 -344.031)
(-0.000601695 -0.000347389 -324.317)
(-0.000523846 -0.000302442 -303.319)
(-0.000427052 -0.000246559 -281.264)
(-0.000294739 -0.000170167 -258.391)
(-0.000110593 -6.38506e-05 -234.957)
(0.000130229 7.51879e-05 -211.244)
(0.000408277 0.000235719 -187.562)
(0.000692062 0.000399562 -164.249)
(0.000933822 0.000539142 -141.66)
(0.00109618 0.000632882 -120.142)
(0.00116918 0.000675027 -100.009)
(0.00117205 0.000676684 -81.5284)
(0.00113901 0.000657608 -64.9223)
(0.00110085 0.000635577 -50.3819)
(0.00106493 0.000614837 -38.0951)
(0.00101578 0.000586459 -28.2705)
(0.000882282 0.000509385 -21.1345)
(0.000840694 0.000485374 -16.6338)
(-0.00191801 -0.00111851 -426.544)
(-0.000696871 -0.000393735 -418.513)
(-0.000787586 -0.000446918 -408.376)
(-0.000717162 -0.000405992 -395.894)
(-0.000657406 -0.000371588 -381.263)
(-0.000602034 -0.00033948 -364.686)
(-0.000550584 -0.000309437 -346.375)
(-0.000500201 -0.00028018 -326.546)
(-0.000444999 -0.000248198 -305.418)
(-0.00037551 -0.000208 -283.222)
(-0.000280321 -0.000153174 -260.197)
(-0.000148392 -7.60436e-05 -236.599)
(2.56783e-05 2.34612e-05 -212.713)
(0.000219692 0.000135409 -188.851)
(0.000416679 0.000249062 -165.356)
(0.000582708 0.000344687 -142.585)
(0.000692986 0.000408062 -120.892)
(0.000741876 0.000435669 -100.595)
(0.000743116 0.000435639 -81.9678)
(0.000720566 0.000421241 -65.2332)
(0.000695014 0.000406318 -50.585)
(0.000673933 0.000393916 -38.2124)
(0.000651244 0.000381302 -28.3256)
(0.00059351 0.000347141 -21.1516)
(0.000620913 0.000360564 -16.6358)
(-0.000877234 -0.000655729 -423.374)
(-0.000508703 -0.000950805 -415.384)
(-0.00049551 -0.000909356 -405.288)
(-0.000451023 -0.000799351 -392.869)
(-0.000409442 -0.000702666 -378.321)
(-0.000371309 -0.000613528 -361.847)
(-0.000335506 -0.000531302 -343.656)
(-0.000299321 -0.000452009 -323.962)
(-0.000257248 -0.000366774 -302.985)
(-0.000201173 -0.000260886 -280.953)
(-0.000122024 -0.000115075 -258.106)
(-1.28557e-05 8.79992e-05 -234.698)
(0.000129276 0.000350572 -211.013)
(0.000282463 0.000665471 -187.359)
(0.000432941 0.000986262 -164.075)
(0.000553305 0.00125995 -141.515)
(0.000626453 0.00144271 -120.023)
(0.000651259 0.0015224 -99.9154)
(0.000640953 0.00152133 -81.4577)
(0.000614519 0.00147873 -64.8711)
(0.000585941 0.00142838 -50.347)
(0.000560175 0.00137367 -38.0729)
(0.000520992 0.00127942 -28.2575)
(0.000454961 0.00103772 -21.1277)
(0.000395861 0.000819319 -16.6315)
(-0.000975068 -0.000562954 -425.935)
(-0.000916219 -0.000528978 -417.913)
(-0.000882437 -0.000509474 -407.782)
(-0.000785692 -0.000453618 -395.311)
(-0.000699198 -0.000403681 -380.694)
(-0.000619523 -0.000357681 -364.137)
(-0.000545479 -0.000314932 -345.848)
(-0.000473052 -0.000273116 -326.043)
(-0.000393089 -0.000226949 -304.944)
(-0.000291266 -0.000168162 -282.779)
(-0.000149975 -8.65876e-05 -259.788)
(4.60155e-05 2.6567e-05 -236.227)
(0.000300045 0.000173231 -212.379)
(0.000593581 0.000342703 -188.558)
(0.000889068 0.000513302 -165.104)
(0.00113607 0.00065591 -142.374)
(0.00129638 0.000748461 -120.72)
(0.00136166 0.000786153 -100.461)
(0.00135438 0.000781948 -81.8675)
(0.0013109 0.000756848 -65.1624)
(0.00126116 0.000728128 -50.5389)
(0.00121066 0.000698974 -38.186)
(0.00112721 0.000650792 -28.3135)
(0.000935058 0.000539855 -21.1482)
(0.00076203 0.000439957 -16.6356)
(0.000952797 0.000550096 -425.935)
(0.00091268 0.000526935 -417.913)
(0.000877139 0.000506415 -407.782)
(0.000780693 0.000450732 -395.311)
(0.000693971 0.000400663 -380.694)
(0.000614328 0.000354681 -364.137)
(0.000540765 0.00031221 -345.848)
(0.00046866 0.000270581 -326.043)
(0.000389287 0.000224754 -304.944)
(0.000288331 0.000166468 -282.779)
(0.000147604 8.52189e-05 -259.788)
(-4.765e-05 -2.75107e-05 -236.227)
(-0.000300984 -0.000173773 -212.379)
(-0.000593604 -0.000342717 -188.558)
(-0.00088796 -0.000512662 -165.104)
(-0.00113374 -0.000654562 -142.374)
(-0.00129314 -0.000746591 -120.72)
(-0.00135809 -0.000784091 -100.461)
(-0.00135058 -0.000779755 -81.8675)
(-0.0013073 -0.000754767 -65.1624)
(-0.0012581 -0.000726361 -50.5389)
(-0.00120773 -0.000697281 -38.186)
(-0.00112392 -0.000648895 -28.3135)
(-0.000932386 -0.000538312 -21.1482)
(-0.000758941 -0.000438174 -16.6356)
(0.000991625 0.000437833 -423.374)
(0.00107722 -3.88549e-05 -415.384)
(0.0010333 -2.89742e-05 -405.288)
(0.000915905 -1.2489e-05 -392.869)
(0.000811304 -4.44855e-07 -378.321)
(0.000715087 1.09036e-05 -361.847)
(0.00062618 2.09221e-05 -343.656)
(0.000539595 2.89913e-05 -323.962)
(0.000444982 3.51828e-05 -302.985)
(0.000325553 3.97907e-05 -280.954)
(0.000159864 4.4145e-05 -258.106)
(-7.00373e-05 5.06698e-05 -234.698)
(-0.000368334 5.92159e-05 -211.013)
(-0.000717268 8.428e-05 -187.359)
(-0.00106989 0.000114904 -164.075)
(-0.00136665 0.000148278 -141.515)
(-0.00156117 0.000177024 -120.023)
(-0.00164248 0.000195998 -99.9155)
(-0.00163636 0.000205166 -81.4577)
(-0.0015864 0.000207521 -64.8711)
(-0.00152874 0.000207531 -50.3469)
(-0.00146861 0.000203145 -38.0729)
(-0.00136725 0.000190573 -28.2575)
(-0.00112497 0.000126177 -21.1277)
(-0.000905042 6.50038e-05 -16.6315)
(0.00191386 0.00112509 -426.544)
(0.000690068 0.000403536 -418.513)
(0.000780285 0.000457644 -408.376)
(0.000709833 0.000416919 -395.894)
(0.000650041 0.000382217 -381.263)
(0.000594591 0.000350094 -364.686)
(0.00054308 0.000320207 -346.375)
(0.000492691 0.000290799 -326.546)
(0.000437634 0.000258716 -305.418)
(0.000368406 0.000218418 -283.222)
(0.000273187 0.000163434 -260.197)
(0.000141514 8.61693e-05 -236.599)
(-3.20143e-05 -1.449e-05 -212.713)
(-0.000225586 -0.000126734 -188.851)
(-0.000421987 -0.000240633 -165.356)
(-0.000587221 -0.000336612 -142.585)
(-0.000696689 -0.000400418 -120.892)
(-0.000744679 -0.00042878 -100.595)
(-0.000744626 -0.000429623 -81.9678)
(-0.000720187 -0.000416898 -65.2333)
(-0.000693513 -0.000402061 -50.585)
(-0.000671699 -0.000389356 -38.2124)
(-0.000648412 -0.000375682 -28.3256)
(-0.000591335 -0.00034248 -21.1516)
(-0.000614808 -0.00036426 -16.6358)
(0.0019763 0.00114101 -423.811)
(0.000938491 0.000541838 -415.822)
(0.00101688 0.000587096 -405.718)
(0.000915124 0.000528347 -393.289)
(0.000828335 0.000478239 -378.729)
(0.000747988 0.000431851 -362.24)
(0.000673616 0.000388912 -344.031)
(0.000601482 0.000347265 -324.317)
(0.00052367 0.000302341 -303.319)
(0.000426936 0.000246492 -281.264)
(0.000294591 0.000170082 -258.391)
(0.000110462 6.37754e-05 -234.957)
(-0.000130451 -7.53157e-05 -211.244)
(-0.000408397 -0.000235788 -187.562)
(-0.000692039 -0.000399549 -164.249)
(-0.000933611 -0.00053902 -141.66)
(-0.00109581 -0.000632664 -120.142)
(-0.00116867 -0.000674729 -100.009)
(-0.00117125 -0.000676219 -81.5284)
(-0.00113783 -0.000656927 -64.9223)
(-0.00109915 -0.000634596 -50.3819)
(-0.00106276 -0.000613583 -38.0951)
(-0.00101294 -0.000584822 -28.2705)
(-0.000879896 -0.000508008 -21.1346)
(-0.000838625 -0.00048418 -16.6338)
(0.000970111 0.000560092 -425.935)
(0.000909255 0.000524957 -417.913)
(0.000875231 0.000505313 -407.782)
(0.000778528 0.000449482 -395.311)
(0.000691714 0.00039936 -380.694)
(0.000611847 0.000353249 -364.137)
(0.000537885 0.000310547 -345.848)
(0.000465385 0.00026869 -326.043)
(0.00038561 0.000222632 -304.944)
(0.000284209 0.000164087 -282.779)
(0.00014321 8.26818e-05 -259.788)
(-5.33576e-05 -3.0806e-05 -236.227)
(-0.000306781 -0.00017712 -212.379)
(-0.000600091 -0.000346461 -188.558)
(-0.000895226 -0.000516857 -165.104)
(-0.00114182 -0.00065923 -142.374)
(-0.0013021 -0.000751764 -120.72)
(-0.00136776 -0.000789676 -100.461)
(-0.00136095 -0.000785744 -81.8675)
(-0.00131794 -0.000760911 -65.1624)
(-0.00126907 -0.000732696 -50.5389)
(-0.00121804 -0.000703235 -38.186)
(-0.00113345 -0.000654397 -28.3135)
(-0.00093984 -0.000542616 -21.1482)
(-0.000767211 -0.000442948 -16.6356)
(0.000871126 0.000657745 -423.374)
(0.00049944 0.000954263 -415.384)
(0.000485701 0.000913114 -405.288)
(0.00044121 0.000803116 -392.869)
(0.000399469 0.0007064 -378.321)
(0.000361197 0.000617296 -361.847)
(0.000325378 0.000535119 -343.656)
(0.00028915 0.000455828 -323.962)
(0.000247277 0.000370541 -302.985)
(0.000191652 0.000264536 -280.953)
(0.000112424 0.00011877 -258.106)
(3.61251e-06 -8.45535e-05 -234.698)
(-0.000137805 -0.000347441 -211.013)
(-0.000290465 -0.000662585 -187.359)
(-0.000440199 -0.000983751 -164.075)
(-0.00055962 -0.00125799 -141.515)
(-0.000631981 -0.00144143 -120.023)
(-0.000656134 -0.00152194 -99.9155)
(-0.000644994 -0.00152202 -81.4577)
(-0.000617453 -0.00148101 -64.8711)
(-0.000588674 -0.00143168 -50.347)
(-0.000562431 -0.00137731 -38.0729)
(-0.000522711 -0.00128306 -28.2575)
(-0.000456643 -0.0010404 -21.1277)
(-0.000395096 -0.000824939 -16.6315)
(-0.000993395 -0.000435423 -423.374)
(-0.00107956 4.24235e-05 -415.384)
(-0.00103569 3.3115e-05 -405.288)
(-0.000918287 1.68406e-05 -392.869)
(-0.000813768 4.41105e-06 -378.321)
(-0.000717599 -7.04781e-06 -361.847)
(-0.000628687 -1.69313e-05 -343.656)
(-0.000542131 -2.51919e-05 -323.962)
(-0.000447438 -3.13536e-05 -302.985)
(-0.000327861 -3.57514e-05 -280.954)
(-0.000161973 -4.0221e-05 -258.106)
(6.73505e-05 -4.69065e-05 -234.698)
(0.00036604 -5.59663e-05 -211.013)
(0.000715079 -8.09707e-05 -187.359)
(0.00106783 -0.000111302 -164.075)
(0.00136478 -0.000144284 -141.515)
(0.00155942 -0.000172728 -120.023)
(0.00164083 -0.000191718 -99.9155)
(0.00163489 -0.000200774 -81.4577)
(0.00158517 -0.000203519 -64.8711)
(0.00152806 -0.000202806 -50.3469)
(0.0014688 -0.000197416 -38.0729)
(0.00136835 -0.000183303 -28.2575)
(0.00112644 -0.000120225 -21.1277)
(0.000906005 -6.5607e-05 -16.6315)
(-0.000955995 -0.000551943 -425.935)
(-0.000916955 -0.000529403 -417.913)
(-0.000881387 -0.000508868 -407.782)
(-0.000784844 -0.000453129 -395.311)
(-0.000698484 -0.000403269 -380.694)
(-0.000619033 -0.000357398 -364.137)
(-0.00054537 -0.000314869 -345.848)
(-0.000473385 -0.000273308 -326.043)
(-0.000393843 -0.000227385 -304.944)
(-0.000292505 -0.000168878 -282.779)
(-0.000151319 -8.73638e-05 -259.788)
(4.27467e-05 2.46797e-05 -236.227)
(0.000296632 0.00017126 -212.379)
(0.000589396 0.000340287 -188.558)
(0.00088404 0.000510399 -165.104)
(0.00113022 0.00065253 -142.374)
(0.00128974 0.000744629 -120.72)
(0.00135448 0.000782007 -100.461)
(0.00134685 0.000777603 -81.8675)
(0.00130349 0.00075257 -65.1623)
(0.00125457 0.000724327 -50.5389)
(0.00120564 0.000696076 -38.186)
(0.00112378 0.000648813 -28.3135)
(0.000933069 0.000538706 -21.1483)
(0.000757421 0.000437296 -16.6356)
)
;

boundaryField
{
    outletCentralUnloaded
    {
        type            zeroGradient;
    }
    inletCentralUnloaded
    {
        type            fixedValue;
        value           uniform (0 0 -15);
    }
    outletFuelElement
    {
        type            zeroGradient;
    }
    inletFuelElement
    {
        type            fixedValue;
        value           uniform (0 0 -15);
    }
    defaultFaces
    {
        type            slip;
    }
    baffle_master
    {
        type            slip;
    }
    baffle_slave
    {
        type            slip;
    }
}


// ************************************************************************* //
