/*--------------------------------*- C++ -*----------------------------------*\
| =========                 |                                                 |
| \\      /  F ield         | OpenFOAM: The Open Source CFD Toolbox           |
|  \\    /   O peration     | Version:  2212                                  |
|   \\  /    A nd           | Website:  www.openfoam.com                      |
|    \\/     M anipulation  |                                                 |
\*---------------------------------------------------------------------------*/
FoamFile
{
    version     2.0;
    format      ascii;
    arch        "LSB;label=32;scalar=64";
    class       volScalarField;
    location    "33/fluidRegion";
    object      epsilon;
}
// * * * * * * * * * * * * * * * * * * * * * * * * * * * * * * * * * * * * * //

dimensions      [0 2 -3 0 0 0 0];

internalField   nonuniform List<scalar> 
350
(
66.9715
66.9549
66.9383
66.9219
66.9054
66.889
66.8727
66.8564
66.8402
66.8241
66.8084
66.7931
66.7785
66.765
66.7531
66.7437
66.7381
66.7382
66.747
66.7692
66.8119
66.886
67.0079
67.2029
67.5096
66.9715
66.9549
66.9383
66.9219
66.9054
66.8891
66.8727
66.8564
66.8402
66.8241
66.8084
66.7931
66.7785
66.765
66.7531
66.7437
66.7381
66.7382
66.747
66.7692
66.8119
66.886
67.0079
67.2029
67.5096
7.28754e+06
6.72042e+06
6.0883e+06
5.4103e+06
4.71339e+06
4.0225e+06
3.35937e+06
2.74185e+06
2.18341e+06
1.69304e+06
1.27529e+06
930627
655885
444923
289419
179791
106169
59282.6
31120.9
15282.7
7022.56
3076.12
1376.27
735.071
548.095
7.4439e+06
6.86605e+06
6.22186e+06
5.53032e+06
4.81905e+06
4.11356e+06
3.43611e+06
2.80498e+06
2.23401e+06
1.73245e+06
1.30502e+06
952260
671003
455018
295822
183626
108322
60404.3
31656.8
15513
7109.24
3103.61
1383.26
736.483
548.514
7.26193e+06
6.69651e+06
6.06648e+06
5.39076e+06
4.69625e+06
4.00778e+06
3.34702e+06
2.73172e+06
2.17533e+06
1.68676e+06
1.27057e+06
927204
653499
443333
288412
179188
105830
59104.9
31035.1
15245
7007.77
3070.98
1374.67
734.588
547.922
7.40927e+06
6.83374e+06
6.19214e+06
5.50355e+06
4.79543e+06
4.09316e+06
3.41888e+06
2.79077e+06
2.2226e+06
1.72354e+06
1.29829e+06
947351
667565
452718
294361
182750
107829
60147.7
31534.2
15460.3
7089.48
3097.39
1381.71
736.192
548.435
7.40927e+06
6.83374e+06
6.19215e+06
5.50355e+06
4.79543e+06
4.09316e+06
3.41888e+06
2.79077e+06
2.2226e+06
1.72354e+06
1.29829e+06
947351
667566
452718
294362
182750
107829
60147.7
31534.2
15460.3
7089.49
3097.39
1381.71
736.192
548.435
7.26195e+06
6.69652e+06
6.06649e+06
5.39077e+06
4.69626e+06
4.00779e+06
3.34702e+06
2.73173e+06
2.17533e+06
1.68677e+06
1.27057e+06
927206
653500
443334
288412
179188
105830
59105
31035.2
15245
7007.79
3070.99
1374.67
734.588
547.923
7.4439e+06
6.86605e+06
6.22186e+06
5.53032e+06
4.81905e+06
4.11356e+06
3.43611e+06
2.80498e+06
2.23401e+06
1.73245e+06
1.30502e+06
952260
671003
455018
295822
183626
108322
60404.3
31656.8
15513
7109.24
3103.61
1383.26
736.483
548.513
7.28754e+06
6.72042e+06
6.0883e+06
5.4103e+06
4.71339e+06
4.0225e+06
3.35937e+06
2.74185e+06
2.18341e+06
1.69304e+06
1.27529e+06
930627
655885
444923
289419
179791
106169
59282.7
31121
15282.7
7022.58
3076.14
1376.28
735.078
548.101
7.40927e+06
6.83374e+06
6.19214e+06
5.50355e+06
4.79543e+06
4.09316e+06
3.41888e+06
2.79077e+06
2.2226e+06
1.72354e+06
1.29829e+06
947351
667565
452718
294361
182750
107829
60147.7
31534.2
15460.3
7089.49
3097.39
1381.71
736.194
548.437
7.26193e+06
6.69651e+06
6.06648e+06
5.39076e+06
4.69626e+06
4.00778e+06
3.34702e+06
2.73172e+06
2.17533e+06
1.68676e+06
1.27057e+06
927204
653499
443333
288412
179188
105830
59104.8
31035
15245
7007.72
3070.95
1374.65
734.574
547.911
7.26195e+06
6.69652e+06
6.06649e+06
5.39077e+06
4.69626e+06
4.00779e+06
3.34702e+06
2.73173e+06
2.17533e+06
1.68677e+06
1.27058e+06
927206
653500
443334
288413
179188
105830
59105.1
31035.2
15245.1
7007.79
3070.99
1374.67
734.587
547.92
7.40927e+06
6.83374e+06
6.19214e+06
5.50355e+06
4.79543e+06
4.09316e+06
3.41888e+06
2.79077e+06
2.2226e+06
1.72354e+06
1.29829e+06
947351
667566
452718
294362
182750
107829
60147.8
31534.2
15460.4
7089.52
3097.41
1381.73
736.203
548.444
)
;

boundaryField
{
    outletCentralUnloaded
    {
        type            zeroGradient;
    }
    inletCentralUnloaded
    {
        type            zeroGradient;
    }
    outletFuelElement
    {
        type            zeroGradient;
    }
    inletFuelElement
    {
        type            zeroGradient;
    }
    defaultFaces
    {
        type            zeroGradient;
    }
    baffle_master
    {
        type            zeroGradient;
    }
    baffle_slave
    {
        type            zeroGradient;
    }
}


// ************************************************************************* //
