/*--------------------------------*- C++ -*----------------------------------*\
| =========                 |                                                 |
| \\      /  F ield         | OpenFOAM: The Open Source CFD Toolbox           |
|  \\    /   O peration     | Version:  2212                                  |
|   \\  /    A nd           | Website:  www.openfoam.com                      |
|    \\/     M anipulation  |                                                 |
\*---------------------------------------------------------------------------*/
FoamFile
{
    version     2.0;
    format      ascii;
    arch        "LSB;label=32;scalar=64";
    class       volScalarField;
    location    "33/fluidRegion";
    object      nut;
}
// * * * * * * * * * * * * * * * * * * * * * * * * * * * * * * * * * * * * * //

dimensions      [0 2 -1 0 0 0 0];

internalField   nonuniform List<scalar> 
350
(
0.00053759
0.000537544
0.000537495
0.000537446
0.000537396
0.000537346
0.000537297
0.000537249
0.000537202
0.000537158
0.000537116
0.000537078
0.000537042
0.00053701
0.000536983
0.000536962
0.00053695
0.000536951
0.000536974
0.000537029
0.000537134
0.000537318
0.000537622
0.000538111
0.000539514
0.00053759
0.000537544
0.000537495
0.000537446
0.000537396
0.000537346
0.000537297
0.000537249
0.000537202
0.000537158
0.000537116
0.000537078
0.000537042
0.00053701
0.000536983
0.000536962
0.00053695
0.000536951
0.000536974
0.000537029
0.000537134
0.000537318
0.000537622
0.000538111
0.000539514
0.0102413
0.010033
0.00977368
0.00945808
0.00909116
0.00867806
0.00822411
0.0077348
0.00721578
0.00667293
0.0061124
0.00554081
0.00496531
0.00439362
0.00383401
0.00329488
0.00278433
0.00230966
0.00187707
0.00149175
0.00115832
0.000881227
0.000664682
0.000511168
0.000416408
0.0103069
0.0100976
0.0098374
0.00952044
0.00915173
0.00873645
0.00827996
0.00778776
0.00726553
0.00671917
0.00615487
0.00557926
0.00499954
0.0044235
0.00385949
0.00331604
0.00280137
0.00232288
0.00188688
0.00149861
0.00116273
0.000883732
0.000665844
0.000511542
0.000416474
0.0102307
0.0100224
0.00976326
0.00944792
0.00908132
0.00866861
0.0082151
0.00772629
0.00720781
0.00666554
0.00610564
0.0055347
0.00495988
0.00438889
0.00382998
0.00329153
0.00278162
0.00230755
0.00187548
0.00149061
0.00115755
0.000880746
0.000664405
0.000511022
0.00041636
0.0102924
0.0100833
0.00982326
0.00950657
0.00913823
0.0087234
0.00826745
0.00777588
0.00725435
0.00670875
0.00614529
0.00557057
0.00499178
0.00441672
0.0038537
0.00331122
0.00279749
0.00231987
0.00188464
0.00149705
0.00116173
0.000883168
0.000665589
0.000511467
0.000416465
0.0102924
0.0100833
0.00982326
0.00950657
0.00913823
0.00872341
0.00826745
0.00777588
0.00725435
0.00670875
0.00614529
0.00557057
0.00499178
0.00441672
0.0038537
0.00331122
0.00279749
0.00231987
0.00188464
0.00149705
0.00116173
0.000883168
0.000665589
0.000511467
0.000416465
0.0102307
0.0100224
0.00976326
0.00944792
0.00908132
0.00866861
0.00821511
0.00772629
0.00720781
0.00666554
0.00610564
0.00553471
0.00495988
0.0043889
0.00382998
0.00329153
0.00278162
0.00230755
0.00187548
0.00149061
0.00115755
0.000880745
0.000664404
0.000511021
0.00041636
0.0103069
0.0100976
0.0098374
0.00952044
0.00915173
0.00873645
0.00827996
0.00778776
0.00726553
0.00671917
0.00615487
0.00557926
0.00499954
0.0044235
0.00385949
0.00331604
0.00280137
0.00232288
0.00188688
0.00149861
0.00116273
0.000883732
0.000665844
0.000511541
0.000416474
0.0102413
0.010033
0.00977368
0.00945808
0.00909116
0.00867806
0.00822411
0.0077348
0.00721579
0.00667293
0.0061124
0.00554081
0.00496531
0.00439362
0.00383401
0.00329488
0.00278433
0.00230966
0.00187707
0.00149175
0.00115832
0.000881228
0.000664683
0.000511169
0.000416409
0.0102924
0.0100833
0.00982326
0.00950657
0.00913823
0.00872341
0.00826745
0.00777588
0.00725435
0.00670875
0.00614529
0.00557057
0.00499178
0.00441672
0.0038537
0.00331122
0.00279749
0.00231987
0.00188464
0.00149705
0.00116173
0.000883168
0.000665589
0.000511467
0.000416465
0.0102307
0.0100224
0.00976326
0.00944792
0.00908132
0.00866861
0.0082151
0.00772629
0.00720781
0.00666554
0.00610564
0.0055347
0.00495988
0.00438889
0.00382998
0.00329153
0.00278162
0.00230755
0.00187548
0.00149061
0.00115755
0.000880745
0.000664404
0.000511021
0.000416359
0.0102307
0.0100224
0.00976326
0.00944792
0.00908132
0.00866861
0.00821511
0.00772629
0.00720781
0.00666554
0.00610564
0.00553471
0.00495988
0.0043889
0.00382998
0.00329153
0.00278162
0.00230755
0.00187548
0.00149061
0.00115755
0.000880745
0.000664404
0.000511021
0.000416359
0.0102924
0.0100833
0.00982326
0.00950657
0.00913823
0.00872341
0.00826745
0.00777588
0.00725435
0.00670875
0.00614529
0.00557057
0.00499178
0.00441672
0.0038537
0.00331122
0.00279749
0.00231987
0.00188464
0.00149705
0.00116173
0.000883168
0.000665589
0.000511468
0.000416466
)
;

boundaryField
{
    outletCentralUnloaded
    {
        type            zeroGradient;
    }
    inletCentralUnloaded
    {
        type            zeroGradient;
    }
    outletFuelElement
    {
        type            zeroGradient;
    }
    inletFuelElement
    {
        type            zeroGradient;
    }
    defaultFaces
    {
        type            zeroGradient;
    }
    baffle_master
    {
        type            calculated;
        value           nonuniform List<scalar> 
150
(
0.00053759
0.00053759
0.00053759
0.000537544
0.000537544
0.000537544
0.000537495
0.000537495
0.000537495
0.000537446
0.000537446
0.000537446
0.000537396
0.000537396
0.000537396
0.000537346
0.000537346
0.000537346
0.000537297
0.000537297
0.000537297
0.000537249
0.000537249
0.000537249
0.000537202
0.000537202
0.000537202
0.000537158
0.000537158
0.000537158
0.000537116
0.000537116
0.000537116
0.000537078
0.000537078
0.000537078
0.000537042
0.000537042
0.000537042
0.00053701
0.00053701
0.00053701
0.000536983
0.000536983
0.000536983
0.000536962
0.000536962
0.000536962
0.00053695
0.00053695
0.00053695
0.000536951
0.000536951
0.000536951
0.000536974
0.000536974
0.000536974
0.000537029
0.000537029
0.000537029
0.000537134
0.000537134
0.000537134
0.000537318
0.000537318
0.000537318
0.000537622
0.000537622
0.000537622
0.000538111
0.000538111
0.000538111
0.000539514
0.000539514
0.000539514
0.00053759
0.00053759
0.00053759
0.000537544
0.000537544
0.000537544
0.000537495
0.000537495
0.000537495
0.000537446
0.000537446
0.000537446
0.000537396
0.000537396
0.000537396
0.000537346
0.000537346
0.000537346
0.000537297
0.000537297
0.000537297
0.000537249
0.000537249
0.000537249
0.000537202
0.000537202
0.000537202
0.000537158
0.000537158
0.000537158
0.000537116
0.000537116
0.000537116
0.000537078
0.000537078
0.000537078
0.000537042
0.000537042
0.000537042
0.00053701
0.00053701
0.00053701
0.000536983
0.000536983
0.000536983
0.000536962
0.000536962
0.000536962
0.00053695
0.00053695
0.00053695
0.000536951
0.000536951
0.000536951
0.000536974
0.000536974
0.000536974
0.000537029
0.000537029
0.000537029
0.000537134
0.000537134
0.000537134
0.000537318
0.000537318
0.000537318
0.000537622
0.000537622
0.000537622
0.000538111
0.000538111
0.000538111
0.000539514
0.000539514
0.000539514
)
;
    }
    baffle_slave
    {
        type            calculated;
        value           nonuniform List<scalar> 
150
(
0.0103069
0.0102924
0.0102924
0.0100976
0.0100833
0.0100833
0.0098374
0.00982326
0.00982326
0.00952044
0.00950657
0.00950657
0.00915173
0.00913823
0.00913823
0.00873645
0.0087234
0.00872341
0.00827996
0.00826745
0.00826745
0.00778776
0.00777588
0.00777588
0.00726553
0.00725435
0.00725435
0.00671917
0.00670875
0.00670875
0.00615487
0.00614529
0.00614529
0.00557926
0.00557057
0.00557057
0.00499954
0.00499178
0.00499178
0.0044235
0.00441672
0.00441672
0.00385949
0.0038537
0.0038537
0.00331604
0.00331122
0.00331122
0.00280137
0.00279749
0.00279749
0.00232288
0.00231987
0.00231987
0.00188688
0.00188464
0.00188464
0.00149861
0.00149705
0.00149705
0.00116273
0.00116173
0.00116173
0.000883732
0.000883168
0.000883168
0.000665844
0.000665589
0.000665589
0.000511542
0.000511467
0.000511468
0.000416474
0.000416465
0.000416466
0.0102924
0.0103069
0.0102924
0.0100833
0.0100976
0.0100833
0.00982326
0.0098374
0.00982326
0.00950657
0.00952044
0.00950657
0.00913823
0.00915173
0.00913823
0.00872341
0.00873645
0.00872341
0.00826745
0.00827996
0.00826745
0.00777588
0.00778776
0.00777588
0.00725435
0.00726553
0.00725435
0.00670875
0.00671917
0.00670875
0.00614529
0.00615487
0.00614529
0.00557057
0.00557926
0.00557057
0.00499178
0.00499954
0.00499178
0.00441672
0.0044235
0.00441672
0.0038537
0.00385949
0.0038537
0.00331122
0.00331604
0.00331122
0.00279749
0.00280137
0.00279749
0.00231987
0.00232288
0.00231987
0.00188464
0.00188688
0.00188464
0.00149705
0.00149861
0.00149705
0.00116173
0.00116273
0.00116173
0.000883168
0.000883732
0.000883168
0.000665589
0.000665844
0.000665589
0.000511467
0.000511541
0.000511467
0.000416465
0.000416474
0.000416465
)
;
    }
}


// ************************************************************************* //
