/*--------------------------------*- C++ -*----------------------------------*\
| =========                 |                                                 |
| \\      /  F ield         | OpenFOAM: The Open Source CFD Toolbox           |
|  \\    /   O peration     | Version:  2212                                  |
|   \\  /    A nd           | Website:  www.openfoam.com                      |
|    \\/     M anipulation  |                                                 |
\*---------------------------------------------------------------------------*/
FoamFile
{
    version     2.0;
    format      ascii;
    arch        "LSB;label=32;scalar=64";
    class       volScalarField;
    location    "33/fluidRegion";
    object      p_rgh;
}
// * * * * * * * * * * * * * * * * * * * * * * * * * * * * * * * * * * * * * //

dimensions      [1 -1 -2 0 0 0 0];

internalField   nonuniform List<scalar> 
350
(
3.44743e+06
3.44772e+06
3.44802e+06
3.44832e+06
3.44861e+06
3.44891e+06
3.4492e+06
3.4495e+06
3.44979e+06
3.45009e+06
3.45038e+06
3.45068e+06
3.45097e+06
3.45127e+06
3.45156e+06
3.45186e+06
3.45215e+06
3.45245e+06
3.45275e+06
3.45304e+06
3.45334e+06
3.45363e+06
3.45393e+06
3.45422e+06
3.45451e+06
3.44743e+06
3.44772e+06
3.44802e+06
3.44832e+06
3.44861e+06
3.44891e+06
3.4492e+06
3.4495e+06
3.44979e+06
3.45009e+06
3.45038e+06
3.45068e+06
3.45097e+06
3.45127e+06
3.45156e+06
3.45186e+06
3.45215e+06
3.45245e+06
3.45275e+06
3.45304e+06
3.45334e+06
3.45363e+06
3.45393e+06
3.45422e+06
3.45451e+06
3.47327e+06
3.52402e+06
3.57422e+06
3.62356e+06
3.67175e+06
3.71849e+06
3.76352e+06
3.80661e+06
3.84755e+06
3.88614e+06
3.92223e+06
3.95567e+06
3.98636e+06
4.01421e+06
4.03918e+06
4.06126e+06
4.08049e+06
4.09697e+06
4.11084e+06
4.12225e+06
4.13141e+06
4.13853e+06
4.14386e+06
4.14769e+06
4.15036e+06
3.47327e+06
3.52402e+06
3.57422e+06
3.62356e+06
3.67175e+06
3.71849e+06
3.76352e+06
3.80661e+06
3.84755e+06
3.88614e+06
3.92223e+06
3.95567e+06
3.98636e+06
4.01421e+06
4.03918e+06
4.06126e+06
4.08049e+06
4.09697e+06
4.11084e+06
4.12225e+06
4.13141e+06
4.13853e+06
4.14386e+06
4.14769e+06
4.15036e+06
3.47327e+06
3.52402e+06
3.57422e+06
3.62356e+06
3.67175e+06
3.71849e+06
3.76352e+06
3.80661e+06
3.84755e+06
3.88614e+06
3.92223e+06
3.95567e+06
3.98636e+06
4.01421e+06
4.03918e+06
4.06126e+06
4.08049e+06
4.09697e+06
4.11084e+06
4.12225e+06
4.13141e+06
4.13853e+06
4.14386e+06
4.14769e+06
4.15036e+06
3.47327e+06
3.52402e+06
3.57422e+06
3.62356e+06
3.67175e+06
3.71849e+06
3.76352e+06
3.80661e+06
3.84755e+06
3.88614e+06
3.92223e+06
3.95567e+06
3.98636e+06
4.01421e+06
4.03918e+06
4.06126e+06
4.08049e+06
4.09697e+06
4.11084e+06
4.12225e+06
4.13141e+06
4.13853e+06
4.14386e+06
4.14769e+06
4.15036e+06
3.47327e+06
3.52402e+06
3.57422e+06
3.62356e+06
3.67175e+06
3.71849e+06
3.76352e+06
3.80661e+06
3.84755e+06
3.88614e+06
3.92223e+06
3.95567e+06
3.98636e+06
4.01421e+06
4.03918e+06
4.06126e+06
4.08049e+06
4.09697e+06
4.11084e+06
4.12225e+06
4.13141e+06
4.13853e+06
4.14386e+06
4.14769e+06
4.15036e+06
3.47327e+06
3.52402e+06
3.57422e+06
3.62356e+06
3.67175e+06
3.71849e+06
3.76352e+06
3.80661e+06
3.84755e+06
3.88614e+06
3.92223e+06
3.95567e+06
3.98636e+06
4.01421e+06
4.03918e+06
4.06126e+06
4.08049e+06
4.09697e+06
4.11084e+06
4.12225e+06
4.13141e+06
4.13853e+06
4.14386e+06
4.14769e+06
4.15036e+06
3.47327e+06
3.52402e+06
3.57422e+06
3.62356e+06
3.67175e+06
3.71849e+06
3.76352e+06
3.80661e+06
3.84755e+06
3.88614e+06
3.92223e+06
3.95567e+06
3.98636e+06
4.01421e+06
4.03918e+06
4.06126e+06
4.08049e+06
4.09697e+06
4.11084e+06
4.12225e+06
4.13141e+06
4.13853e+06
4.14386e+06
4.14769e+06
4.15036e+06
3.47327e+06
3.52402e+06
3.57422e+06
3.62356e+06
3.67175e+06
3.71849e+06
3.76352e+06
3.80661e+06
3.84755e+06
3.88614e+06
3.92223e+06
3.95567e+06
3.98636e+06
4.01421e+06
4.03918e+06
4.06126e+06
4.08049e+06
4.09697e+06
4.11084e+06
4.12225e+06
4.13141e+06
4.13853e+06
4.14386e+06
4.14769e+06
4.15036e+06
3.47327e+06
3.52402e+06
3.57422e+06
3.62356e+06
3.67175e+06
3.71849e+06
3.76352e+06
3.80661e+06
3.84755e+06
3.88614e+06
3.92223e+06
3.95567e+06
3.98636e+06
4.01421e+06
4.03918e+06
4.06126e+06
4.08049e+06
4.09697e+06
4.11084e+06
4.12225e+06
4.13141e+06
4.13853e+06
4.14386e+06
4.14769e+06
4.15036e+06
3.47327e+06
3.52402e+06
3.57422e+06
3.62356e+06
3.67175e+06
3.71849e+06
3.76352e+06
3.80661e+06
3.84755e+06
3.88614e+06
3.92223e+06
3.95567e+06
3.98636e+06
4.01421e+06
4.03918e+06
4.06126e+06
4.08049e+06
4.09697e+06
4.11084e+06
4.12225e+06
4.13141e+06
4.13853e+06
4.14386e+06
4.14769e+06
4.15036e+06
3.47327e+06
3.52402e+06
3.57422e+06
3.62356e+06
3.67175e+06
3.71849e+06
3.76352e+06
3.80661e+06
3.84755e+06
3.88614e+06
3.92223e+06
3.95567e+06
3.98636e+06
4.01421e+06
4.03918e+06
4.06126e+06
4.08049e+06
4.09697e+06
4.11084e+06
4.12225e+06
4.13141e+06
4.13853e+06
4.14386e+06
4.14769e+06
4.15036e+06
3.47327e+06
3.52402e+06
3.57422e+06
3.62356e+06
3.67175e+06
3.71849e+06
3.76352e+06
3.80661e+06
3.84755e+06
3.88614e+06
3.92223e+06
3.95567e+06
3.98636e+06
4.01421e+06
4.03918e+06
4.06126e+06
4.08049e+06
4.09697e+06
4.11084e+06
4.12225e+06
4.13141e+06
4.13853e+06
4.14386e+06
4.14769e+06
4.15036e+06
)
;

boundaryField
{
    outletCentralUnloaded
    {
        type            fixedValue;
        value           uniform 3.44728e+06;
    }
    inletCentralUnloaded
    {
        type            zeroGradient;
    }
    outletFuelElement
    {
        type            fixedValue;
        value           uniform 3.44728e+06;
    }
    inletFuelElement
    {
        type            zeroGradient;
    }
    defaultFaces
    {
        type            zeroGradient;
    }
    baffle_master
    {
        type            zeroGradient;
    }
    baffle_slave
    {
        type            zeroGradient;
    }
}


// ************************************************************************* //
