/*--------------------------------*- C++ -*----------------------------------*\
| =========                 |                                                 |
| \\      /  F ield         | OpenFOAM: The Open Source CFD Toolbox           |
|  \\    /   O peration     | Version:  2212                                  |
|   \\  /    A nd           | Website:  www.openfoam.com                      |
|    \\/     M anipulation  |                                                 |
\*---------------------------------------------------------------------------*/
FoamFile
{
    version     2.0;
    format      ascii;
    arch        "LSB;label=32;scalar=64";
    class       volScalarField;
    location    "33/fluidRegion";
    object      Re;
}
// * * * * * * * * * * * * * * * * * * * * * * * * * * * * * * * * * * * * * //

dimensions      [0 0 0 0 0 0 0];

internalField   nonuniform List<scalar> 
350
(
174031
174030
174028
174025
174021
174017
174014
174011
174009
174008
174008
174010
174012
174014
174018
174021
174024
174026
174028
174028
174028
174027
174025
174023
174388
174031
174030
174028
174025
174021
174017
174014
174011
174009
174008
174008
174010
174012
174014
174018
174021
174024
174026
174028
174028
174028
174027
174025
174023
174388
55256.2
55197.9
55199.4
55199.8
55198.9
55196.7
55192.9
55187.5
55180.1
55170.7
55159
55145
55128.8
55110.3
55089.3
55064.7
55034.8
54997.7
54952.9
54906.6
54878.3
54927.3
55193.6
55922.6
56374.6
54771.4
54705.5
54702.6
54698.7
54693.8
54687.9
54680.7
54672.1
54661.8
54649.6
54635.8
54620.6
54604.9
54589.4
54575.1
54561.7
54548.1
54532.7
54514.9
54501.3
54513.2
54612.8
54946.3
55764.5
56323.1
55337.4
55278.7
55280.6
55281.4
55280.8
55278.8
55275.2
55269.8
55262.5
55253
55241.2
55226.8
55209.9
55190.3
55167.6
55140.4
55107
55065.5
55015.4
54962.7
54926.6
54965.8
55219.9
55934.5
56376.4
54879.8
54816
54814.3
54811.6
54807.9
54803
54796.8
54789.1
54779.6
54768.3
54755.1
54740.4
54724.7
54708.8
54693.1
54677.4
54660.2
54640
54616.2
54595.3
54598.2
54686.4
55004.7
55802.6
56335.9
54879.8
54816
54814.3
54811.6
54807.9
54803
54796.8
54789.1
54779.6
54768.3
54755.1
54740.4
54724.7
54708.8
54693.1
54677.4
54660.2
54640
54616.2
54595.3
54598.2
54686.4
55004.7
55802.6
56335.9
55337.4
55278.7
55280.6
55281.3
55280.7
55278.7
55275.2
55269.8
55262.5
55253
55241.1
55226.8
55209.9
55190.3
55167.5
55140.3
55106.9
55065.5
55015.3
54962.6
54926.5
54965.7
55219.7
55934.4
56376.3
54771.4
54705.5
54702.6
54698.7
54693.8
54687.9
54680.7
54672.1
54661.8
54649.6
54635.8
54620.6
54604.9
54589.4
54575.1
54561.7
54548.1
54532.7
54514.9
54501.3
54513.2
54612.8
54946.3
55764.5
56323.1
55256.2
55197.9
55199.4
55199.8
55198.9
55196.7
55193
55187.5
55180.1
55170.7
55159
55145
55128.8
55110.3
55089.3
55064.7
55034.8
54997.7
54952.9
54906.6
54878.3
54927.2
55193.6
55922.7
56374.6
54879.8
54816
54814.3
54811.6
54807.9
54803
54796.8
54789.1
54779.6
54768.3
54755.1
54740.4
54724.7
54708.8
54693.1
54677.4
54660.2
54640
54616.2
54595.3
54598.2
54686.4
55004.7
55802.6
56335.9
55337.4
55278.7
55280.6
55281.4
55280.8
55278.8
55275.2
55269.8
55262.5
55253
55241.2
55226.8
55209.9
55190.4
55167.6
55140.4
55107
55065.5
55015.4
54962.7
54926.6
54965.8
55219.9
55934.5
56376.4
55337.4
55278.7
55280.6
55281.3
55280.7
55278.7
55275.2
55269.8
55262.5
55253
55241.1
55226.8
55209.9
55190.3
55167.5
55140.3
55106.9
55065.5
55015.3
54962.6
54926.5
54965.7
55219.8
55934.4
56376.3
54879.8
54816
54814.3
54811.6
54807.9
54803
54796.8
54789.1
54779.6
54768.3
54755.1
54740.4
54724.7
54708.8
54693.1
54677.4
54660.2
54640
54616.2
54595.3
54598.2
54686.4
55004.7
55802.7
56335.9
)
;

boundaryField
{
    outletCentralUnloaded
    {
        type            zeroGradient;
    }
    inletCentralUnloaded
    {
        type            zeroGradient;
    }
    outletFuelElement
    {
        type            zeroGradient;
    }
    inletFuelElement
    {
        type            zeroGradient;
    }
    defaultFaces
    {
        type            zeroGradient;
    }
    baffle_master
    {
        type            zeroGradient;
    }
    baffle_slave
    {
        type            zeroGradient;
    }
}


// ************************************************************************* //
