/*--------------------------------*- C++ -*----------------------------------*\
| =========                 |                                                 |
| \\      /  F ield         | OpenFOAM: The Open Source CFD Toolbox           |
|  \\    /   O peration     | Version:  2212                                  |
|   \\  /    A nd           | Website:  www.openfoam.com                      |
|    \\/     M anipulation  |                                                 |
\*---------------------------------------------------------------------------*/
FoamFile
{
    version     2.0;
    format      ascii;
    arch        "LSB;label=32;scalar=64";
    class       volScalarField;
    location    "33/fluidRegion";
    object      T.fuelAvForNeutronics;
}
// * * * * * * * * * * * * * * * * * * * * * * * * * * * * * * * * * * * * * //

dimensions      [0 0 0 1 0 0 0];

internalField   nonuniform List<scalar> 
350
(
0
0
0
0
0
0
0
0
0
0
0
0
0
0
0
0
0
0
0
0
0
0
0
0
0
0
0
0
0
0
0
0
0
0
0
0
0
0
0
0
0
0
0
0
0
0
0
0
0
0
2115.7
2896.31
3646.81
4355.79
5012.43
5606.65
6129.33
6572.43
6929.13
7193.92
7362.74
7432.99
7403.66
7275.28
7049.98
6731.34
6324.3
5834.81
5269.49
4635.02
3937.14
3179.57
2362.98
1488.14
568.568
2146.06
2935.81
3695.03
4412.19
5076.32
5677.24
6205.74
6653.67
7014.14
7281.58
7451.88
7522.44
7492.21
7361.76
7133.22
6810.25
6397.86
5902.14
5329.8
4687.68
3981.56
3215.22
2389.24
1504.27
573.985
2110.78
2889.94
3639.07
4346.77
5002.23
5595.4
6117.17
6559.52
6915.63
7180.02
7348.6
7418.81
7389.63
7261.59
7036.81
6718.86
6312.66
5824.16
5259.95
4626.71
3930.13
3173.96
2358.85
1485.61
567.713
2139.21
2926.84
3684.04
4399.3
5061.69
5661.06
6188.21
6635.02
6994.61
7261.43
7431.38
7501.86
7471.83
7341.85
7114.05
6792.08
6380.92
5886.63
5315.91
4675.55
3971.33
3207.01
2383.19
1500.55
572.737
2139.21
2926.84
3684.04
4399.3
5061.69
5661.06
6188.21
6635.02
6994.61
7261.43
7431.38
7501.86
7471.83
7341.85
7114.05
6792.08
6380.92
5886.63
5315.91
4675.55
3971.33
3207.01
2383.19
1500.55
572.737
2110.78
2889.95
3639.08
4346.77
5002.23
5595.4
6117.17
6559.52
6915.64
7180.02
7348.6
7418.82
7389.63
7261.59
7036.81
6718.86
6312.66
5824.16
5259.95
4626.71
3930.13
3173.96
2358.86
1485.61
567.714
2146.06
2935.81
3695.03
4412.19
5076.32
5677.24
6205.74
6653.67
7014.14
7281.58
7451.88
7522.44
7492.21
7361.75
7133.22
6810.25
6397.86
5902.14
5329.8
4687.68
3981.56
3215.22
2389.24
1504.27
573.985
2115.7
2896.31
3646.81
4355.79
5012.43
5606.65
6129.33
6572.43
6929.13
7193.92
7362.74
7432.99
7403.66
7275.28
7049.98
6731.34
6324.3
5834.81
5269.49
4635.02
3937.14
3179.57
2362.98
1488.13
568.568
2139.21
2926.84
3684.04
4399.3
5061.69
5661.06
6188.21
6635.02
6994.61
7261.43
7431.38
7501.86
7471.83
7341.85
7114.05
6792.08
6380.92
5886.63
5315.91
4675.55
3971.33
3207.01
2383.19
1500.55
572.737
2110.78
2889.94
3639.07
4346.77
5002.23
5595.4
6117.17
6559.52
6915.63
7180.02
7348.6
7418.81
7389.63
7261.59
7036.8
6718.86
6312.66
5824.16
5259.95
4626.71
3930.13
3173.96
2358.86
1485.61
567.713
2110.78
2889.95
3639.08
4346.77
5002.23
5595.4
6117.17
6559.52
6915.64
7180.02
7348.6
7418.82
7389.63
7261.59
7036.81
6718.86
6312.66
5824.16
5259.95
4626.71
3930.13
3173.96
2358.86
1485.61
567.713
2139.21
2926.84
3684.04
4399.3
5061.69
5661.06
6188.21
6635.02
6994.61
7261.43
7431.38
7501.86
7471.83
7341.85
7114.05
6792.08
6380.92
5886.63
5315.91
4675.55
3971.33
3207.01
2383.19
1500.55
572.737
)
;

boundaryField
{
    outletCentralUnloaded
    {
        type            zeroGradient;
    }
    inletCentralUnloaded
    {
        type            zeroGradient;
    }
    outletFuelElement
    {
        type            zeroGradient;
    }
    inletFuelElement
    {
        type            zeroGradient;
    }
    defaultFaces
    {
        type            zeroGradient;
    }
    baffle_master
    {
        type            zeroGradient;
    }
    baffle_slave
    {
        type            zeroGradient;
    }
}


// ************************************************************************* //
