/*--------------------------------*- C++ -*----------------------------------*\
| =========                 |                                                 |
| \\      /  F ield         | OpenFOAM: The Open Source CFD Toolbox           |
|  \\    /   O peration     | Version:  2212                                  |
|   \\  /    A nd           | Website:  www.openfoam.com                      |
|    \\/     M anipulation  |                                                 |
\*---------------------------------------------------------------------------*/
FoamFile
{
    version     2.0;
    format      ascii;
    arch        "LSB;label=32;scalar=64";
    class       volScalarField;
    location    "33/fluidRegion";
    object      Tcav.nuclearFuelPin;
}
// * * * * * * * * * * * * * * * * * * * * * * * * * * * * * * * * * * * * * //

dimensions      [0 0 0 1 0 0 0];

internalField   nonuniform List<scalar> 
350
(
0
0
0
0
0
0
0
0
0
0
0
0
0
0
0
0
0
0
0
0
0
0
0
0
0
0
0
0
0
0
0
0
0
0
0
0
0
0
0
0
0
0
0
0
0
0
0
0
0
0
1814.57
1853.85
1880.21
1893.65
1894.29
1882.42
1858.44
1822.93
1776.6
1720.27
1654.93
1581.67
1501.71
1416.38
1327.1
1235.33
1142.43
1049.43
956.702
863.39
766.585
660.097
533.547
375.561
188.022
1842.25
1882.18
1908.95
1922.58
1923.19
1911.05
1886.6
1850.41
1803.2
1745.81
1679.25
1604.61
1523.14
1436.18
1345.19
1251.64
1156.95
1062.21
967.841
873.026
774.852
667.045
539.016
379.105
189.221
1810.07
1849.27
1875.58
1889.01
1889.67
1877.86
1853.97
1818.59
1772.4
1716.26
1651.13
1578.09
1498.38
1413.31
1324.31
1232.82
1140.2
1047.48
955.003
861.926
765.337
659.059
532.741
375.043
187.84
1836.03
1875.79
1902.45
1916.02
1916.63
1904.54
1880.18
1844.14
1797.11
1739.96
1673.67
1599.34
1518.21
1431.62
1341.02
1247.88
1153.6
1059.26
965.266
870.797
772.939
665.436
537.748
378.283
188.944
1836.03
1875.79
1902.45
1916.02
1916.63
1904.54
1880.18
1844.14
1797.11
1739.96
1673.67
1599.34
1518.21
1431.62
1341.02
1247.88
1153.6
1059.26
965.266
870.797
772.939
665.436
537.748
378.283
188.944
1810.07
1849.27
1875.58
1889.01
1889.68
1877.86
1853.97
1818.59
1772.41
1716.26
1651.13
1578.09
1498.38
1413.31
1324.31
1232.82
1140.2
1047.48
955.004
861.927
765.338
659.059
532.742
375.044
187.84
1842.25
1882.18
1908.95
1922.58
1923.19
1911.05
1886.6
1850.41
1803.2
1745.81
1679.25
1604.61
1523.14
1436.18
1345.19
1251.64
1156.95
1062.21
967.841
873.026
774.852
667.045
539.016
379.105
189.221
1814.57
1853.85
1880.21
1893.65
1894.29
1882.42
1858.44
1822.93
1776.6
1720.27
1654.93
1581.67
1501.71
1416.38
1327.1
1235.33
1142.43
1049.43
956.702
863.39
766.585
660.097
533.547
375.561
188.022
1836.03
1875.79
1902.45
1916.02
1916.63
1904.54
1880.18
1844.14
1797.11
1739.96
1673.67
1599.34
1518.21
1431.62
1341.02
1247.88
1153.6
1059.26
965.266
870.798
772.939
665.436
537.748
378.283
188.944
1810.07
1849.27
1875.58
1889.01
1889.67
1877.86
1853.97
1818.59
1772.4
1716.26
1651.13
1578.09
1498.38
1413.31
1324.31
1232.82
1140.2
1047.48
955.003
861.926
765.337
659.059
532.741
375.043
187.84
1810.07
1849.27
1875.58
1889.01
1889.68
1877.86
1853.97
1818.59
1772.41
1716.26
1651.13
1578.09
1498.38
1413.31
1324.31
1232.82
1140.2
1047.48
955.004
861.927
765.338
659.059
532.742
375.044
187.84
1836.03
1875.79
1902.45
1916.02
1916.63
1904.54
1880.18
1844.14
1797.11
1739.96
1673.67
1599.34
1518.21
1431.62
1341.02
1247.88
1153.6
1059.26
965.266
870.798
772.939
665.436
537.748
378.283
188.944
)
;

boundaryField
{
    outletCentralUnloaded
    {
        type            zeroGradient;
    }
    inletCentralUnloaded
    {
        type            zeroGradient;
    }
    outletFuelElement
    {
        type            zeroGradient;
    }
    inletFuelElement
    {
        type            zeroGradient;
    }
    defaultFaces
    {
        type            zeroGradient;
    }
    baffle_master
    {
        type            zeroGradient;
    }
    baffle_slave
    {
        type            zeroGradient;
    }
}


// ************************************************************************* //
