/*--------------------------------*- C++ -*----------------------------------*\
| =========                 |                                                 |
| \\      /  F ield         | OpenFOAM: The Open Source CFD Toolbox           |
|  \\    /   O peration     | Version:  2212                                  |
|   \\  /    A nd           | Website:  www.openfoam.com                      |
|    \\/     M anipulation  |                                                 |
\*---------------------------------------------------------------------------*/
FoamFile
{
    version     2.0;
    format      ascii;
    arch        "LSB;label=32;scalar=64";
    class       volScalarField;
    location    "33/fluidRegion";
    object      Tci.nuclearFuelPin;
}
// * * * * * * * * * * * * * * * * * * * * * * * * * * * * * * * * * * * * * //

dimensions      [0 0 0 1 0 0 0];

internalField   nonuniform List<scalar> 
350
(
0
0
0
0
0
0
0
0
0
0
0
0
0
0
0
0
0
0
0
0
0
0
0
0
0
0
0
0
0
0
0
0
0
0
0
0
0
0
0
0
0
0
0
0
0
0
0
0
0
0
1819.49
1870.79
1908.89
1933.61
1944.89
1942.84
1927.73
1899.98
1860.17
1809.06
1747.51
1676.57
1597.43
1511.4
1419.92
1324.46
1226.47
1127.04
1026.64
924.553
817.999
700.952
563.21
393.596
194.183
1847.22
1899.3
1937.95
1962.99
1974.35
1972.16
1956.67
1928.33
1887.72
1835.6
1772.88
1700.59
1619.95
1532.28
1439.06
1341.79
1241.94
1140.7
1038.58
934.887
826.853
708.365
569.016
397.345
195.45
1814.98
1866.18
1904.21
1928.9
1940.18
1938.17
1923.14
1895.49
1855.83
1804.88
1743.54
1672.82
1593.93
1508.16
1416.95
1321.79
1224.08
1124.94
1024.82
922.978
816.658
699.839
562.35
393.046
193.99
1840.98
1892.87
1931.38
1956.33
1967.66
1965.49
1950.07
1921.85
1881.42
1829.52
1767.06
1695.07
1614.77
1527.47
1434.64
1337.79
1238.37
1137.54
1035.82
932.498
824.805
706.65
567.671
396.475
195.157
1840.98
1892.87
1931.38
1956.33
1967.66
1965.49
1950.07
1921.85
1881.42
1829.52
1767.06
1695.07
1614.77
1527.47
1434.64
1337.79
1238.37
1137.54
1035.82
932.498
824.805
706.65
567.671
396.475
195.157
1814.98
1866.18
1904.21
1928.9
1940.18
1938.17
1923.14
1895.5
1855.83
1804.89
1743.54
1672.83
1593.93
1508.16
1416.96
1321.79
1224.09
1124.94
1024.82
922.979
816.659
699.84
562.351
393.047
193.99
1847.22
1899.3
1937.95
1962.99
1974.35
1972.16
1956.67
1928.33
1887.72
1835.6
1772.88
1700.59
1619.95
1532.28
1439.06
1341.79
1241.94
1140.7
1038.58
934.887
826.853
708.365
569.016
397.345
195.45
1819.49
1870.79
1908.89
1933.61
1944.89
1942.84
1927.73
1899.98
1860.17
1809.06
1747.51
1676.57
1597.43
1511.4
1419.92
1324.46
1226.47
1127.04
1026.64
924.553
817.999
700.952
563.21
393.596
194.183
1840.98
1892.87
1931.38
1956.33
1967.66
1965.49
1950.07
1921.85
1881.42
1829.52
1767.06
1695.07
1614.77
1527.47
1434.64
1337.79
1238.37
1137.54
1035.82
932.498
824.805
706.65
567.671
396.475
195.157
1814.98
1866.18
1904.21
1928.9
1940.18
1938.17
1923.14
1895.49
1855.83
1804.88
1743.54
1672.82
1593.93
1508.16
1416.95
1321.79
1224.08
1124.94
1024.82
922.978
816.658
699.839
562.35
393.046
193.99
1814.98
1866.18
1904.21
1928.9
1940.18
1938.17
1923.14
1895.5
1855.83
1804.89
1743.54
1672.83
1593.93
1508.16
1416.96
1321.79
1224.09
1124.94
1024.82
922.979
816.659
699.84
562.351
393.047
193.99
1840.98
1892.87
1931.38
1956.33
1967.66
1965.49
1950.07
1921.85
1881.42
1829.52
1767.06
1695.07
1614.77
1527.47
1434.64
1337.79
1238.37
1137.54
1035.82
932.498
824.805
706.65
567.671
396.475
195.157
)
;

boundaryField
{
    outletCentralUnloaded
    {
        type            zeroGradient;
    }
    inletCentralUnloaded
    {
        type            zeroGradient;
    }
    outletFuelElement
    {
        type            zeroGradient;
    }
    inletFuelElement
    {
        type            zeroGradient;
    }
    defaultFaces
    {
        type            zeroGradient;
    }
    baffle_master
    {
        type            zeroGradient;
    }
    baffle_slave
    {
        type            zeroGradient;
    }
}


// ************************************************************************* //
