/*--------------------------------*- C++ -*----------------------------------*\
| =========                 |                                                 |
| \\      /  F ield         | OpenFOAM: The Open Source CFD Toolbox           |
|  \\    /   O peration     | Version:  2212                                  |
|   \\  /    A nd           | Website:  www.openfoam.com                      |
|    \\/     M anipulation  |                                                 |
\*---------------------------------------------------------------------------*/
FoamFile
{
    version     2.0;
    format      ascii;
    arch        "LSB;label=32;scalar=64";
    class       volScalarField;
    location    "33/fluidRegion";
    object      Tco.nuclearFuelPin;
}
// * * * * * * * * * * * * * * * * * * * * * * * * * * * * * * * * * * * * * //

dimensions      [0 0 0 1 0 0 0];

internalField   nonuniform List<scalar> 
350
(
0
0
0
0
0
0
0
0
0
0
0
0
0
0
0
0
0
0
0
0
0
0
0
0
0
0
0
0
0
0
0
0
0
0
0
0
0
0
0
0
0
0
0
0
0
0
0
0
0
0
1809.98
1838.04
1853.44
1856.35
1847.07
1826.02
1793.77
1751.01
1698.58
1637.39
1568.51
1493.08
1412.36
1327.68
1240.46
1152.13
1063.98
976.989
891.414
806.295
718.59
621.959
505.857
358.726
182.271
1837.62
1866.19
1881.88
1884.86
1875.43
1854.01
1821.2
1777.68
1724.29
1661.99
1591.84
1515.01
1432.77
1346.47
1257.56
1167.49
1077.61
988.943
901.809
815.28
726.31
628.473
511.011
362.079
183.405
1805.49
1833.48
1848.85
1851.77
1842.53
1821.56
1789.41
1746.8
1694.53
1633.53
1564.86
1489.66
1409.19
1324.77
1237.83
1149.77
1061.9
975.165
889.834
804.935
717.429
620.991
505.102
358.238
182.098
1831.41
1859.85
1875.45
1878.4
1868.99
1847.65
1814.94
1771.59
1718.41
1656.36
1586.49
1509.97
1428.07
1342.14
1253.62
1163.94
1074.46
986.18
899.405
813.201
724.523
626.964
509.816
361.301
183.143
1831.41
1859.85
1875.45
1878.4
1868.99
1847.65
1814.94
1771.59
1718.41
1656.36
1586.49
1509.97
1428.07
1342.14
1253.62
1163.94
1074.46
986.18
899.405
813.201
724.523
626.964
509.816
361.301
183.143
1805.49
1833.48
1848.85
1851.77
1842.53
1821.56
1789.42
1746.8
1694.53
1633.53
1564.86
1489.67
1409.19
1324.77
1237.83
1149.77
1061.9
975.166
889.835
804.936
717.43
620.991
505.103
358.239
182.099
1837.62
1866.19
1881.88
1884.86
1875.43
1854.01
1821.2
1777.68
1724.29
1661.99
1591.84
1515.01
1432.77
1346.47
1257.56
1167.49
1077.61
988.943
901.809
815.28
726.31
628.473
511.011
362.079
183.405
1809.98
1838.04
1853.44
1856.35
1847.07
1826.02
1793.77
1751.01
1698.58
1637.39
1568.51
1493.08
1412.36
1327.68
1240.46
1152.13
1063.98
976.989
891.414
806.295
718.59
621.96
505.858
358.726
182.271
1831.41
1859.85
1875.45
1878.4
1868.99
1847.65
1814.94
1771.59
1718.41
1656.36
1586.49
1509.97
1428.07
1342.14
1253.62
1163.94
1074.46
986.179
899.405
813.201
724.523
626.964
509.816
361.301
183.143
1805.49
1833.48
1848.85
1851.77
1842.53
1821.56
1789.41
1746.8
1694.53
1633.53
1564.86
1489.66
1409.19
1324.77
1237.83
1149.77
1061.9
975.165
889.834
804.935
717.429
620.991
505.102
358.238
182.098
1805.49
1833.48
1848.85
1851.77
1842.53
1821.56
1789.42
1746.8
1694.53
1633.53
1564.86
1489.67
1409.19
1324.77
1237.83
1149.77
1061.9
975.166
889.835
804.936
717.43
620.991
505.103
358.239
182.099
1831.41
1859.85
1875.45
1878.4
1868.99
1847.65
1814.94
1771.59
1718.41
1656.36
1586.49
1509.97
1428.07
1342.14
1253.62
1163.94
1074.46
986.18
899.405
813.202
724.523
626.964
509.816
361.301
183.143
)
;

boundaryField
{
    outletCentralUnloaded
    {
        type            zeroGradient;
    }
    inletCentralUnloaded
    {
        type            zeroGradient;
    }
    outletFuelElement
    {
        type            zeroGradient;
    }
    inletFuelElement
    {
        type            zeroGradient;
    }
    defaultFaces
    {
        type            zeroGradient;
    }
    baffle_master
    {
        type            zeroGradient;
    }
    baffle_slave
    {
        type            zeroGradient;
    }
}


// ************************************************************************* //
