/*--------------------------------*- C++ -*----------------------------------*\
| =========                 |                                                 |
| \\      /  F ield         | OpenFOAM: The Open Source CFD Toolbox           |
|  \\    /   O peration     | Version:  2212                                  |
|   \\  /    A nd           | Website:  www.openfoam.com                      |
|    \\/     M anipulation  |                                                 |
\*---------------------------------------------------------------------------*/
FoamFile
{
    version     2.0;
    format      ascii;
    arch        "LSB;label=32;scalar=64";
    class       scalarFieldField;
    location    "33/fluidRegion";
    object      Trad.nuclearFuelPin;
}
// * * * * * * * * * * * * * * * * * * * * * * * * * * * * * * * * * * * * * //


350
(
0()
0()
0()
0()
0()
0()
0()
0()
0()
0()
0()
0()
0()
0()
0()
0()
0()
0()
0()
0()
0()
0()
0()
0()
0()
0()
0()
0()
0()
0()
0()
0()
0()
0()
0()
0()
0()
0()
0()
0()
0()
0()
0()
0()
0()
0()
0()
0()
0()
0()

20
(
2269.44
2268.13
2264.19
2257.62
2248.38
2236.46
2221.81
2204.39
2184.16
2161.05
2135
2105.95
2073.81
2038.51
1999.97
1958.11
1819.49
1816.21
1813.05
1809.98
)


20
(
3446
3441.2
3426.77
3402.72
3369.01
3325.6
3272.47
3209.55
3136.78
3054.11
2961.44
2858.71
2745.83
2622.71
2489.24
2345.35
1870.79
1859.51
1848.6
1838.04
)


20
(
4583.34
4575.11
4550.45
4509.31
4451.68
4377.53
4286.79
4179.41
4055.32
3914.45
3756.71
3582.01
3390.25
3181.33
2955.15
2711.58
1908.89
1889.8
1871.32
1853.44
)


20
(
5663.93
5652.42
5617.91
5560.37
5479.77
5376.06
5249.2
5099.11
4925.72
4728.95
4508.69
4264.85
3997.33
3706
3390.75
3051.46
1933.61
1907.01
1881.27
1856.35
)


20
(
6671.08
6656.49
6612.69
6539.67
6437.39
6305.81
6144.87
5954.5
5734.6
5485.09
5205.87
4896.82
4557.83
4188.78
3789.53
3359.96
1944.89
1911.21
1878.62
1847.07
)


20
(
7589.23
7571.77
7519.39
7432.07
7309.76
7152.42
6959.98
6732.37
6469.5
6171.26
5837.55
5468.24
5063.22
4622.35
4145.49
3632.51
1942.84
1902.61
1863.7
1826.02
)


20
(
8404.13
8384.09
8323.97
8223.74
8083.36
7902.78
7681.92
7420.72
7119.08
6776.88
6394.01
5970.35
5505.76
5000.11
4453.26
3865.05
1927.73
1881.6
1836.98
1793.77
)


20
(
9103.14
9080.84
9013.94
8902.4
8746.19
8545.26
8299.52
8008.9
7673.29
7292.59
6866.68
6395.42
5878.68
5316.31
4708.17
4054.1
1899.98
1848.69
1799.07
1751.01
)


20
(
9675.42
9651.22
9578.59
9457.53
9287.98
9069.9
8803.19
8487.78
8123.57
7710.44
7248.27
6736.92
6176.25
5566.12
4906.37
4196.84
1860.17
1804.53
1750.7
1698.58
)


20
(
10112.1
10086.3
10009.2
9880.5
9700.32
9468.56
9185.13
8849.96
8462.94
8023.96
7532.88
6989.58
6393.9
5745.71
5044.84
4291.14
1809.06
1749.95
1692.77
1637.39
)


20
(
10406.3
10379.5
10299
10164.8
9976.81
9735.06
9439.43
9089.83
8686.16
8228.31
7716.14
7149.52
6528.31
5852.35
5121.5
4335.59
1747.51
1685.88
1626.25
1568.51
)


20
(
10553.6
10526.1
10443.5
10305.9
10113.2
9865.29
9562.15
9203.69
8789.79
8320.35
7795.23
7214.3
6577.42
5884.44
5135.21
4329.58
1676.57
1613.39
1552.27
1493.08
)


20
(
10551.7
10523.9
10440.7
10301.8
10107.4
9857.28
9551.46
9189.83
8772.28
8298.71
7768.99
7182.98
6540.55
5841.55
5085.84
4273.25
1597.43
1533.71
1472.06
1412.36
)


20
(
10400.7
10373.2
10290.5
10152.6
9959.57
9711.26
9407.62
9048.56
8634
8163.83
7637.91
7056.13
6418.35
5724.43
4974.23
4167.6
1511.4
1448.14
1386.94
1327.68
)


20
(
10103.2
10076.3
9995.48
9860.8
9672.19
9429.6
9132.97
8782.2
8377.22
7917.91
7404.16
6835.85
6212.85
5535.02
4802.23
4014.34
1419.92
1358.13
1298.35
1240.46
)


20
(
9663.8
9637.93
9560.33
9430.97
9249.81
9016.8
8731.89
8394.99
8006.02
7564.88
7071.46
6525.64
5927.31
5276.34
4572.6
3815.96
1324.46
1265.13
1207.72
1152.13
)


20
(
9089.35
9064.96
8991.78
8869.8
8698.98
8479.26
8210.61
7892.93
7526.16
7110.2
6644.95
6130.3
5566.15
4952.38
4288.87
3575.49
1226.47
1170.52
1116.4
1063.98
)


20
(
8388.47
8365.94
8298.36
8185.7
8027.92
7825
7576.88
7283.48
6944.75
6560.59
6130.91
5655.63
5134.63
4567.81
3955.06
3296.28
1127.04
1075.37
1025.39
976.989
)


20
(
7571.07
7550.77
7489.85
7388.31
7246.1
7063.21
6839.57
6575.13
6269.83
5923.59
5536.33
5107.97
4638.41
4127.57
3575.33
2981.61
1026.64
980.08
935.036
891.414
)


20
(
6647.9
6630.14
6576.86
6488.05
6363.69
6203.73
6008.14
5776.87
5509.87
5207.06
4868.38
4493.76
4083.11
3636.36
3153.42
2634.2
924.553
883.834
844.443
806.295
)


20
(
5629.29
5614.36
5569.57
5494.91
5390.36
5255.89
5091.46
4897.04
4672.57
4418.02
4133.3
3818.38
3473.17
3097.61
2691.63
2255.17
817.999
783.771
750.658
718.59
)


20
(
4524.32
4512.46
4476.86
4417.52
4334.43
4227.56
4096.89
3942.38
3764
3561.7
3335.44
3085.18
2810.85
2512.41
2189.8
1842.97
700.952
673.753
647.441
621.959
)


20
(
3339.62
3331
3305.14
3262.04
3201.69
3124.06
3029.15
2916.93
2787.37
2640.45
2476.14
2294.39
2095.18
1878.47
1644.22
1392.39
563.21
543.462
524.358
505.857
)


20
(
2082.55
2077.3
2061.55
2035.31
1998.56
1951.29
1893.51
1825.19
1746.32
1656.9
1556.91
1446.32
1325.13
1193.31
1050.85
897.727
393.596
381.59
369.974
358.726
)


20
(
772.849
771.039
765.609
756.56
743.892
727.608
707.708
684.194
657.07
626.336
591.997
554.055
512.514
467.377
418.647
366.328
194.183
190.082
186.114
182.271
)


20
(
2301.08
2299.75
2295.78
2289.16
2279.85
2267.83
2253.06
2235.51
2215.11
2191.81
2165.54
2136.24
2103.82
2068.22
2029.34
1987.1
1847.22
1843.91
1840.71
1837.62
)


20
(
3491.32
3486.46
3471.89
3447.58
3413.51
3369.65
3315.96
3252.38
3178.84
3095.29
3001.65
2897.83
2783.74
2659.3
2524.41
2378.96
1899.3
1887.9
1876.87
1866.19
)


20
(
4641.81
4633.5
4608.56
4566.98
4508.72
4433.76
4342.03
4233.48
4108.03
3965.62
3806.15
3629.53
3435.67
3224.45
2995.77
2749.51
1937.95
1918.64
1899.97
1881.88
)


20
(
5734.84
5723.21
5688.31
5630.14
5548.64
5443.79
5315.52
5163.77
4988.46
4789.5
4566.8
4320.25
4049.75
3755.17
3436.41
3093.33
1962.99
1936.09
1910.06
1884.86
)


20
(
6753.52
6738.76
6694.47
6620.64
6517.22
6384.18
6221.44
6028.93
5806.58
5554.28
5271.94
4959.43
4616.64
4243.45
3839.72
3405.33
1974.35
1940.29
1907.34
1875.43
)


20
(
7682.09
7664.44
7611.47
7523.17
7399.49
7240.39
7045.79
6815.63
6549.8
6248.22
5910.75
5537.3
5127.72
4681.88
4199.65
3680.89
1972.16
1931.48
1892.12
1854.01
)


20
(
8506.17
8485.91
8425.11
8323.75
8181.79
7999.18
7775.84
7511.7
7206.65
6860.6
6473.41
6044.98
5575.15
5063.79
4510.76
3915.9
1956.67
1910.02
1864.9
1821.2
)


20
(
9212.96
9190.41
9122.75
9009.96
8851.98
8648.78
8400.27
8106.37
7766.98
7381.98
6951.25
6474.67
5952.08
5383.35
4768.33
4106.85
1928.33
1876.45
1826.27
1777.68
)


20
(
9791.49
9767.02
9693.58
9571.14
9399.68
9179.13
8909.41
8590.44
8222.11
7804.3
7336.9
6819.76
6252.74
5635.7
4968.47
4250.9
1887.72
1831.45
1777.01
1724.29
)


20
(
10232.8
10206.8
10128.7
9998.6
9816.38
9581.99
9295.36
8956.39
8564.99
8121.03
7624.39
7074.93
6472.5
5816.95
5108.13
4345.87
1835.6
1775.83
1718
1661.99
)


20
(
10530
10502.8
10421.4
10285.7
10095.6
9851.11
9552.13
9198.57
8790.33
8327.28
7809.3
7236.26
6608
5924.37
5185.21
4390.37
1772.88
1710.54
1650.24
1591.84
)


20
(
10678.5
10650.6
10567.1
10428
10233.1
9982.35
9675.78
9313.25
8894.65
8419.88
7888.8
7301.28
6657.16
5956.31
5198.56
4383.77
1700.59
1636.69
1574.88
1515.01
)


20
(
10676
10647.9
10563.7
10423.3
10226.6
9973.71
9664.42
9298.68
8876.39
8397.44
7861.7
7269.03
6619.3
5912.36
5148.05
4326.22
1619.95
1555.5
1493.15
1432.77
)


20
(
10522.7
10494.9
10411.2
10271.8
10076.6
9825.42
9518.33
9155.2
8735.93
8260.41
7728.52
7140.12
6495.09
5793.28
5034.53
4218.72
1532.28
1468.3
1406.41
1346.47
)


20
(
10221.2
10193.9
10112.2
9976
9785.25
9539.9
9239.9
8885.15
8475.56
8011.02
7491.43
6916.66
6286.57
5601.02
4859.89
4063.03
1439.06
1376.56
1316.11
1257.56
)


20
(
9776.06
9749.9
9671.42
9540.59
9357.37
9121.72
8833.56
8492.83
8099.44
7653.27
7154.24
6602.21
5997.07
5338.69
4626.94
3861.68
1341.79
1281.77
1223.71
1167.49
)


20
(
9194.39
9169.72
9095.71
8972.34
8799.58
8577.36
8305.65
7984.36
7613.41
7192.72
6722.17
6201.67
5631.09
5010.33
4339.25
3617.74
1241.94
1185.36
1130.62
1077.61
)


20
(
8484.88
8462.1
8393.74
8279.8
8120.23
7915
7664.05
7367.32
7024.73
6636.19
6201.62
5720.92
5193.98
4620.71
4000.97
3334.68
1140.7
1088.45
1037.9
988.943
)


20
(
7657.61
7637.08
7575.47
7472.76
7328.94
7143.96
6917.78
6650.33
6341.55
5991.37
5599.7
5166.45
4691.54
4174.87
3616.34
3015.85
1038.58
991.486
945.928
901.809
)


20
(
6723.49
6705.53
6651.64
6561.82
6436.04
6274.26
6076.44
5842.54
5572.49
5266.23
4923.7
4544.8
4129.47
3677.63
3189.18
2664.04
934.887
893.704
853.863
815.28
)


20
(
5692.99
5677.89
5632.59
5557.08
5451.33
5315.33
5149.03
4952.4
4725.38
4467.92
4179.96
3861.45
3512.3
3132.46
2721.86
2280.41
826.853
792.234
758.743
726.31
)


20
(
4575.27
4563.27
4527.27
4467.26
4383.22
4275.14
4142.98
3986.71
3806.3
3601.7
3372.87
3119.76
2842.31
2540.47
2214.18
1863.4
708.365
680.857
654.244
628.473
)


20
(
3376.96
3368.25
3342.1
3298.51
3237.47
3158.97
3062.98
2949.48
2818.46
2669.87
2503.69
2319.88
2118.41
1899.23
1662.32
1407.63
569.016
549.043
529.722
511.011
)


20
(
2105.38
2100.08
2084.15
2057.61
2020.45
1972.65
1914.21
1845.13
1765.37
1674.94
1573.82
1461.99
1339.42
1206.12
1062.04
907.185
397.345
385.202
373.455
362.079
)


20
(
780.513
778.683
773.194
764.046
751.239
734.776
714.658
690.887
663.464
632.393
597.675
559.315
517.315
471.678
422.408
369.509
195.45
191.303
187.291
183.405
)


20
(
2264.31
2263
2259.07
2252.5
2243.28
2231.37
2216.74
2199.35
2179.14
2156.06
2130.05
2101.03
2068.94
2033.69
1995.21
1953.4
1814.98
1811.71
1808.55
1805.49
)


20
(
3438.71
3433.92
3419.52
3395.5
3361.84
3318.51
3265.47
3202.65
3130.01
3047.47
2954.97
2852.41
2739.72
2616.81
2483.57
2339.92
1866.18
1854.92
1844.03
1833.48
)


20
(
4573.97
4565.76
4541.13
4500.07
4442.54
4368.51
4277.93
4170.74
4046.87
3906.25
3748.78
3574.39
3382.96
3174.41
2948.62
2705.49
1904.21
1885.15
1866.71
1848.85
)


20
(
5652.59
5641.11
5606.66
5549.22
5468.76
5365.24
5238.6
5088.77
4915.69
4719.26
4499.4
4255.99
3988.94
3698.13
3383.44
3044.75
1928.9
1902.34
1876.65
1851.77
)


20
(
6657.93
6643.36
6599.64
6526.75
6424.66
6293.31
6132.66
5942.62
5723.11
5474.05
5195.33
4886.83
4548.45
4180.05
3781.52
3352.72
1940.18
1906.56
1874.03
1842.53
)


20
(
7574.43
7557.01
7504.72
7417.55
7295.46
7138.4
6946.31
6719.11
6456.7
6159
5825.88
5457.24
5052.95
4612.86
4136.86
3624.8
1938.17
1898.02
1859.17
1821.56
)


20
(
8387.89
8367.89
8307.87
8207.82
8067.69
7887.43
7666.98
7406.25
7105.14
6763.55
6381.37
5958.48
5494.72
4989.98
4444.11
3856.96
1923.14
1877.09
1832.55
1789.41
)


20
(
9085.68
9063.42
8996.63
8885.3
8729.37
8528.79
8283.5
7993.4
7658.4
7278.38
6853.24
6382.83
5867.02
5305.66
4698.62
4045.73
1895.49
1844.29
1794.76
1746.8
)


20
(
9656.97
9632.81
9560.32
9439.47
9270.23
9052.54
8786.31
8471.47
8107.92
7695.53
7234.19
6723.76
6164.11
5555.08
4896.52
4188.28
1855.83
1800.29
1746.56
1694.53
)


20
(
10092.9
10067.2
9990.17
9861.75
9681.89
9450.54
9167.63
8833.06
8446.74
8008.55
7518.36
6976.04
6381.44
5734.42
5034.81
4282.48
1804.88
1745.88
1688.81
1633.53
)


20
(
10386.7
10359.9
10279.5
10145.6
9957.95
9716.63
9421.53
9072.57
8669.63
8212.6
7701.36
7135.77
6515.68
5840.95
5111.42
4326.93
1743.54
1682.01
1622.5
1564.86
)


20
(
10533.8
10506.3
10423.9
10286.5
10094.2
9846.71
9544.12
9186.31
8773.16
8304.56
7780.4
7200.52
6564.79
5873.07
5125.2
4321.02
1672.82
1609.76
1548.75
1489.66
)


20
(
10532
10504.3
10421.1
10282.5
10088.5
9838.81
9533.55
9172.57
8755.78
8283.06
7754.3
7169.35
6528.08
5830.35
5076.01
4264.9
1593.93
1530.32
1468.78
1409.19
)


20
(
10381.4
10353.9
10271.3
10133.7
9941.02
9693.15
9390.06
9031.66
8617.85
8148.52
7623.56
7042.84
6406.21
5713.55
4964.71
4159.54
1508.16
1445.02
1383.93
1324.77
)


20
(
10084.5
10057.6
9976.97
9842.53
9654.26
9412.11
9116.02
8765.89
8361.64
7903.16
7390.34
6823.06
6201.19
5524.59
4793.13
4006.67
1416.95
1355.28
1295.61
1237.83
)


20
(
9645.99
9620.18
9542.71
9413.59
9232.76
9000.18
8715.78
8379.49
7991.22
7550.88
7058.35
6513.53
5916.28
5266.5
4564.03
3808.77
1321.79
1262.56
1205.26
1149.77
)


20
(
9072.7
9048.35
8975.31
8853.54
8683.03
8463.72
8195.55
7878.45
7512.34
7097.13
6632.73
6119.02
5555.89
4943.23
4280.92
3568.84
1224.08
1168.24
1114.22
1061.9
)


20
(
8373.19
8350.7
8283.24
8170.78
8013.3
7810.74
7563.07
7270.21
6932.08
6548.62
6119.73
5645.3
5125.25
4559.46
3947.83
3290.24
1124.94
1073.37
1023.48
975.165
)


20
(
7557.36
7537.09
7476.28
7374.92
7232.98
7050.41
6827.18
6563.23
6258.48
5912.87
5526.31
5098.73
4630.02
4120.1
3568.87
2976.23
1024.82
978.338
933.376
889.834
)


20
(
6635.92
6618.2
6565.02
6476.37
6352.23
6192.56
5997.33
5766.48
5499.96
5197.7
4859.64
4485.69
4075.79
3629.85
3147.79
2629.52
922.978
882.333
843.013
804.935
)


20
(
5619.21
5604.31
5559.6
5485.08
5380.71
5246.48
5082.35
4888.29
4664.23
4410.13
4125.94
3811.58
3467
3092.12
2686.89
2251.21
816.658
782.492
749.439
717.429
)


20
(
4516.27
4504.42
4468.89
4409.67
4326.72
4220.05
4089.61
3935.38
3757.32
3555.39
3329.55
3079.73
2805.91
2508.01
2185.99
1839.78
699.839
672.69
646.426
620.991
)


20
(
3333.73
3325.12
3299.31
3256.29
3196.05
3118.56
3023.82
2911.81
2782.48
2635.83
2471.81
2290.39
2091.54
1875.22
1641.4
1390.03
562.35
542.638
523.569
505.102
)


20
(
2078.95
2073.71
2057.99
2031.8
1995.11
1947.93
1890.25
1822.05
1743.33
1654.07
1554.26
1443.87
1322.9
1191.32
1049.11
896.266
393.046
381.061
369.467
358.238
)


20
(
771.636
769.829
764.409
755.375
742.73
726.474
706.609
683.136
656.059
625.38
591.101
553.226
511.758
466.7
418.056
365.83
193.99
189.895
185.934
182.098
)


20
(
2293.93
2292.61
2288.65
2282.03
2272.74
2260.74
2246.01
2228.48
2208.12
2184.87
2158.65
2129.4
2097.05
2061.52
2022.72
1980.57
1840.98
1837.68
1834.49
1831.41
)


20
(
3481.01
3476.16
3461.62
3437.37
3403.39
3359.64
3306.07
3242.64
3169.28
3085.94
2992.52
2888.95
2775.14
2651.01
2516.44
2371.36
1892.87
1881.5
1870.5
1859.85
)


20
(
4628.46
4620.17
4595.29
4553.81
4495.7
4420.92
4329.42
4221.14
4096.01
3953.95
3794.88
3618.71
3425.33
3214.64
2986.53
2740.9
1931.38
1912.12
1893.49
1875.45
)


20
(
5718.61
5707.01
5672.2
5614.17
5532.88
5428.29
5300.35
5148.98
4974.11
4775.66
4553.52
4307.6
4037.78
3743.95
3426
3083.79
1956.33
1929.5
1903.54
1878.4
)


20
(
6734.63
6719.9
6675.73
6602.08
6498.93
6366.22
6203.9
6011.88
5790.1
5538.44
5256.81
4945.11
4603.19
4230.95
3828.26
3394.97
1967.66
1933.68
1900.82
1868.99
)


20
(
7660.79
7643.18
7590.35
7502.27
7378.91
7220.21
7026.11
6796.53
6531.39
6230.57
5893.97
5521.47
5112.94
4668.25
4187.26
3669.82
1965.49
1924.91
1885.66
1847.65
)


20
(
8482.74
8462.53
8401.88
8300.78
8159.19
7977.04
7754.28
7490.81
7186.55
6841.38
6455.2
6027.86
5559.24
5049.19
4497.58
3904.25
1950.07
1903.54
1858.53
1814.94
)


20
(
9187.73
9165.24
9097.75
8985.24
8827.68
8625
8377.13
8083.98
7745.46
7361.45
6931.83
6456.47
5935.24
5367.97
4754.53
4094.76
1921.85
1870.11
1820.06
1771.59
)


20
(
9764.81
9740.4
9667.14
9545.03
9374.01
9154.02
8885
8566.84
8199.46
7782.73
7316.53
6800.73
6235.17
5619.72
4954.21
4238.49
1881.42
1825.29
1770.99
1718.41
)


20
(
10205
10179.1
10101.2
9971.44
9789.69
9555.9
9270.01
8931.92
8541.53
8098.71
7603.36
7055.31
6454.44
5800.58
5093.59
4333.3
1829.52
1769.9
1712.22
1656.36
)


20
(
10501.5
10474.5
10393.2
10257.9
10068.3
9824.41
9526.21
9173.56
8766.37
8304.52
7787.88
7216.31
6589.67
5907.81
5170.56
4377.78
1767.06
1704.88
1644.74
1586.49
)


20
(
10649.7
10622
10538.7
10399.9
10205.5
9955.41
9649.63
9288.04
8870.52
8396.98
7867.27
7281.27
6638.82
5939.78
5183.99
4371.3
1695.07
1631.34
1569.68
1509.97
)


20
(
10647.4
10619.4
10535.4
10395.3
10199.2
9946.91
9638.42
9273.63
8852.43
8374.72
7840.36
7249.23
6601.18
5896.06
5133.73
4314.03
1614.77
1550.49
1488.3
1428.07
)


20
(
10494.7
10466.9
10383.4
10244.4
10049.6
9799.14
9492.84
9130.65
8712.46
8238.17
7707.66
7120.79
6477.42
5777.43
5020.65
4206.95
1527.47
1463.66
1401.93
1342.14
)


20
(
10194
10166.8
10085.3
9949.47
9759.22
9514.51
9215.28
8861.44
8452.91
7989.58
7471.34
6898.05
6269.59
5585.82
4846.61
4051.82
1434.64
1372.31
1312.01
1253.62
)


20
(
9750.21
9724.12
9645.84
9515.34
9332.6
9097.56
8810.15
8470.3
8077.92
7632.92
7135.17
6584.58
5981
5324.33
4614.42
3851.14
1337.79
1277.93
1220.02
1163.94
)


20
(
9170.2
9145.6
9071.78
8948.73
8776.41
8554.77
8283.76
7963.3
7593.32
7173.71
6704.38
6185.23
5616.13
4996.98
4327.64
3608.01
1238.37
1181.93
1127.34
1074.46
)


20
(
8462.68
8439.95
8371.78
8258.13
8098.97
7894.27
7643.97
7348.01
7006.3
6618.78
6185.33
5705.88
5180.31
4608.52
3990.39
3325.83
1137.54
1085.43
1035.01
986.18
)


20
(
7637.68
7617.2
7555.75
7453.31
7309.86
7125.36
6899.77
6633.01
6325.03
5975.76
5585.1
5152.98
4679.3
4163.97
3606.89
3007.96
1035.82
988.849
943.41
899.405
)


20
(
6706.08
6688.16
6634.42
6544.83
6419.37
6258.01
6060.71
5827.41
5558.07
5252.6
4910.95
4533.04
4118.79
3668.12
3180.94
2657.16
932.498
891.421
851.684
813.201
)


20
(
5678.31
5663.26
5618.07
5542.76
5437.29
5301.64
5135.77
4939.64
4713.21
4456.42
4169.21
3851.52
3503.28
3124.43
2714.89
2274.59
824.805
790.276
756.872
724.523
)


20
(
4563.53
4551.56
4515.66
4455.8
4371.98
4264.18
4132.36
3976.5
3796.55
3592.49
3364.25
3111.79
2835.06
2534
2208.56
1858.69
706.65
679.212
652.669
626.964
)


20
(
3368.36
3359.66
3333.58
3290.11
3229.23
3150.92
3055.18
2941.98
2811.29
2663.09
2497.34
2314
2113.05
1894.44
1658.14
1404.11
567.671
547.75
528.479
509.816
)


20
(
2100.12
2094.83
2078.95
2052.47
2015.4
1967.73
1909.44
1840.53
1760.98
1670.78
1569.92
1458.37
1336.13
1203.16
1059.46
905.002
396.475
384.364
372.647
361.301
)


20
(
778.748
776.922
771.447
762.321
749.547
733.125
713.057
689.345
661.991
630.997
596.367
558.103
516.209
470.687
421.541
368.775
195.157
191.021
187.019
183.143
)


20
(
2293.93
2292.61
2288.65
2282.03
2272.74
2260.74
2246.01
2228.48
2208.12
2184.87
2158.65
2129.4
2097.06
2061.52
2022.72
1980.57
1840.98
1837.68
1834.49
1831.41
)


20
(
3481.01
3476.16
3461.62
3437.37
3403.39
3359.64
3306.07
3242.64
3169.28
3085.94
2992.52
2888.95
2775.14
2651.01
2516.44
2371.36
1892.87
1881.5
1870.5
1859.85
)


20
(
4628.46
4620.17
4595.29
4553.81
4495.7
4420.92
4329.42
4221.14
4096.01
3953.95
3794.88
3618.71
3425.33
3214.64
2986.53
2740.9
1931.38
1912.12
1893.49
1875.45
)


20
(
5718.61
5707.01
5672.2
5614.17
5532.88
5428.29
5300.35
5148.98
4974.11
4775.66
4553.52
4307.6
4037.78
3743.95
3426
3083.79
1956.33
1929.5
1903.54
1878.4
)


20
(
6734.63
6719.9
6675.73
6602.08
6498.93
6366.22
6203.9
6011.88
5790.09
5538.44
5256.81
4945.1
4603.19
4230.95
3828.26
3394.97
1967.66
1933.68
1900.82
1868.99
)


20
(
7660.79
7643.18
7590.35
7502.27
7378.91
7220.21
7026.11
6796.53
6531.39
6230.57
5893.97
5521.47
5112.94
4668.25
4187.26
3669.82
1965.49
1924.91
1885.66
1847.65
)


20
(
8482.74
8462.53
8401.88
8300.78
8159.19
7977.04
7754.28
7490.81
7186.55
6841.38
6455.19
6027.86
5559.24
5049.19
4497.58
3904.25
1950.07
1903.54
1858.53
1814.94
)


20
(
9187.73
9165.23
9097.75
8985.24
8827.68
8625
8377.13
8083.98
7745.46
7361.45
6931.83
6456.47
5935.24
5367.97
4754.53
4094.76
1921.85
1870.11
1820.06
1771.59
)


20
(
9764.81
9740.4
9667.14
9545.03
9374.01
9154.02
8885
8566.84
8199.46
7782.73
7316.53
6800.73
6235.17
5619.72
4954.21
4238.49
1881.42
1825.29
1770.99
1718.41
)


20
(
10205
10179.1
10101.2
9971.44
9789.69
9555.9
9270.01
8931.92
8541.53
8098.71
7603.36
7055.31
6454.44
5800.58
5093.59
4333.3
1829.52
1769.9
1712.22
1656.36
)


20
(
10501.5
10474.5
10393.2
10257.9
10068.3
9824.41
9526.21
9173.56
8766.37
8304.52
7787.88
7216.31
6589.67
5907.81
5170.56
4377.78
1767.06
1704.88
1644.74
1586.49
)


20
(
10649.7
10622
10538.7
10399.9
10205.5
9955.41
9649.63
9288.04
8870.52
8396.98
7867.27
7281.26
6638.82
5939.78
5183.99
4371.3
1695.07
1631.34
1569.68
1509.97
)


20
(
10647.4
10619.4
10535.4
10395.3
10199.2
9946.91
9638.42
9273.63
8852.43
8374.72
7840.36
7249.23
6601.18
5896.06
5133.73
4314.03
1614.77
1550.48
1488.3
1428.07
)


20
(
10494.7
10466.8
10383.4
10244.4
10049.6
9799.14
9492.84
9130.65
8712.46
8238.17
7707.66
7120.79
6477.42
5777.43
5020.65
4206.95
1527.47
1463.66
1401.93
1342.14
)


20
(
10194
10166.8
10085.3
9949.47
9759.22
9514.51
9215.28
8861.44
8452.91
7989.58
7471.34
6898.05
6269.59
5585.82
4846.61
4051.82
1434.64
1372.31
1312.01
1253.62
)


20
(
9750.21
9724.12
9645.84
9515.34
9332.6
9097.56
8810.15
8470.3
8077.92
7632.92
7135.17
6584.58
5981
5324.33
4614.42
3851.14
1337.79
1277.93
1220.02
1163.94
)


20
(
9170.2
9145.6
9071.78
8948.73
8776.41
8554.77
8283.76
7963.3
7593.32
7173.71
6704.38
6185.23
5616.13
4996.98
4327.64
3608.01
1238.37
1181.93
1127.34
1074.46
)


20
(
8462.68
8439.95
8371.78
8258.13
8098.97
7894.27
7643.97
7348.01
7006.3
6618.78
6185.33
5705.88
5180.31
4608.52
3990.39
3325.83
1137.54
1085.43
1035.01
986.18
)


20
(
7637.68
7617.2
7555.75
7453.31
7309.86
7125.36
6899.77
6633.01
6325.03
5975.75
5585.1
5152.98
4679.3
4163.97
3606.89
3007.96
1035.82
988.849
943.41
899.405
)


20
(
6706.08
6688.16
6634.42
6544.83
6419.37
6258.01
6060.71
5827.41
5558.06
5252.6
4910.95
4533.04
4118.79
3668.12
3180.94
2657.16
932.498
891.421
851.684
813.201
)


20
(
5678.31
5663.26
5618.07
5542.76
5437.29
5301.64
5135.77
4939.64
4713.21
4456.42
4169.21
3851.52
3503.28
3124.43
2714.89
2274.59
824.805
790.276
756.872
724.523
)


20
(
4563.53
4551.57
4515.66
4455.8
4371.98
4264.18
4132.36
3976.5
3796.56
3592.49
3364.25
3111.79
2835.06
2534
2208.56
1858.69
706.65
679.212
652.669
626.964
)


20
(
3368.36
3359.66
3333.58
3290.11
3229.23
3150.93
3055.18
2941.98
2811.3
2663.09
2497.34
2314
2113.05
1894.44
1658.14
1404.11
567.671
547.75
528.479
509.816
)


20
(
2100.12
2094.83
2078.95
2052.47
2015.4
1967.73
1909.44
1840.53
1760.98
1670.78
1569.92
1458.37
1336.13
1203.16
1059.46
905.001
396.475
384.364
372.647
361.301
)


20
(
778.748
776.923
771.447
762.321
749.547
733.125
713.057
689.345
661.991
630.997
596.367
558.103
516.209
470.687
421.541
368.775
195.157
191.021
187.019
183.143
)


20
(
2264.31
2263
2259.07
2252.5
2243.28
2231.37
2216.74
2199.35
2179.14
2156.06
2130.05
2101.03
2068.94
2033.69
1995.21
1953.4
1814.98
1811.71
1808.55
1805.49
)


20
(
3438.71
3433.92
3419.52
3395.5
3361.84
3318.51
3265.47
3202.65
3130.01
3047.47
2954.97
2852.41
2739.72
2616.81
2483.57
2339.92
1866.18
1854.92
1844.03
1833.48
)


20
(
4573.97
4565.76
4541.14
4500.07
4442.55
4368.52
4277.94
4170.74
4046.87
3906.25
3748.78
3574.39
3382.97
3174.41
2948.62
2705.49
1904.21
1885.15
1866.71
1848.85
)


20
(
5652.59
5641.11
5606.66
5549.22
5468.76
5365.24
5238.6
5088.77
4915.69
4719.27
4499.4
4256
3988.94
3698.13
3383.44
3044.76
1928.9
1902.34
1876.65
1851.77
)


20
(
6657.93
6643.36
6599.64
6526.75
6424.66
6293.31
6132.66
5942.62
5723.11
5474.05
5195.33
4886.83
4548.45
4180.05
3781.52
3352.72
1940.18
1906.56
1874.03
1842.53
)


20
(
7574.43
7557.01
7504.72
7417.55
7295.46
7138.41
6946.31
6719.11
6456.7
6159
5825.89
5457.24
5052.95
4612.87
4136.86
3624.8
1938.17
1898.02
1859.17
1821.56
)


20
(
8387.89
8367.89
8307.87
8207.82
8067.69
7887.43
7666.98
7406.25
7105.14
6763.56
6381.38
5958.48
5494.73
4989.99
4444.11
3856.97
1923.14
1877.09
1832.55
1789.42
)


20
(
9085.68
9063.42
8996.63
8885.3
8729.37
8528.79
8283.5
7993.4
7658.4
7278.38
6853.24
6382.83
5867.02
5305.66
4698.62
4045.73
1895.5
1844.3
1794.76
1746.8
)


20
(
9656.97
9632.81
9560.32
9439.48
9270.23
9052.54
8786.31
8471.48
8107.92
7695.53
7234.19
6723.77
6164.11
5555.08
4896.52
4188.28
1855.83
1800.29
1746.56
1694.53
)


20
(
10092.9
10067.2
9990.17
9861.75
9681.89
9450.54
9167.63
8833.06
8446.74
8008.55
7518.36
6976.04
6381.44
5734.42
5034.82
4282.48
1804.89
1745.88
1688.81
1633.53
)


20
(
10386.7
10359.9
10279.5
10145.6
9957.95
9716.63
9421.54
9072.57
8669.63
8212.6
7701.36
7135.77
6515.68
5840.95
5111.42
4326.93
1743.54
1682.02
1622.5
1564.86
)


20
(
10533.8
10506.3
10423.9
10286.5
10094.2
9846.71
9544.12
9186.31
8773.16
8304.56
7780.4
7200.52
6564.79
5873.07
5125.2
4321.02
1672.83
1609.76
1548.75
1489.67
)


20
(
10532
10504.3
10421.1
10282.5
10088.5
9838.81
9533.55
9172.57
8755.78
8283.06
7754.3
7169.35
6528.09
5830.35
5076.01
4264.9
1593.93
1530.32
1468.78
1409.19
)


20
(
10381.4
10353.9
10271.3
10133.7
9941.02
9693.15
9390.06
9031.66
8617.85
8148.53
7623.56
7042.84
6406.21
5713.55
4964.71
4159.54
1508.16
1445.02
1383.93
1324.77
)


20
(
10084.5
10057.6
9976.97
9842.53
9654.26
9412.12
9116.02
8765.89
8361.64
7903.16
7390.34
6823.06
6201.19
5524.59
4793.13
4006.68
1416.96
1355.28
1295.61
1237.83
)


20
(
9645.99
9620.18
9542.71
9413.59
9232.76
9000.18
8715.78
8379.49
7991.22
7550.88
7058.35
6513.53
5916.29
5266.5
4564.04
3808.77
1321.79
1262.56
1205.26
1149.77
)


20
(
9072.7
9048.35
8975.31
8853.55
8683.03
8463.72
8195.55
7878.45
7512.34
7097.13
6632.73
6119.02
5555.89
4943.23
4280.92
3568.84
1224.09
1168.24
1114.22
1061.9
)


20
(
8373.19
8350.7
8283.24
8170.78
8013.3
7810.74
7563.07
7270.21
6932.09
6548.62
6119.73
5645.3
5125.25
4559.46
3947.83
3290.24
1124.94
1073.37
1023.48
975.166
)


20
(
7557.36
7537.09
7476.28
7374.92
7232.98
7050.42
6827.18
6563.23
6258.48
5912.87
5526.31
5098.73
4630.02
4120.1
3568.87
2976.24
1024.82
978.339
933.377
889.835
)


20
(
6635.93
6618.2
6565.02
6476.37
6352.23
6192.56
5997.33
5766.48
5499.96
5197.7
4859.64
4485.69
4075.79
3629.85
3147.79
2629.52
922.979
882.334
843.014
804.936
)


20
(
5619.21
5604.31
5559.6
5485.07
5380.71
5246.48
5082.35
4888.29
4664.23
4410.13
4125.94
3811.58
3467
3092.13
2686.89
2251.21
816.659
782.492
749.439
717.43
)


20
(
4516.27
4504.43
4468.9
4409.67
4326.73
4220.05
4089.61
3935.38
3757.33
3555.39
3329.55
3079.74
2805.91
2508.01
2185.99
1839.78
699.84
672.691
646.426
620.991
)


20
(
3333.73
3325.13
3299.32
3256.29
3196.05
3118.57
3023.83
2911.81
2782.48
2635.83
2471.81
2290.39
2091.54
1875.23
1641.4
1390.03
562.351
542.639
523.57
505.103
)


20
(
2078.95
2073.71
2057.99
2031.8
1995.11
1947.93
1890.25
1822.05
1743.33
1654.07
1554.26
1443.87
1322.9
1191.32
1049.11
896.267
393.047
381.061
369.467
358.239
)


20
(
771.636
769.83
764.409
755.376
742.73
726.474
706.609
683.136
656.059
625.38
591.101
553.226
511.758
466.7
418.056
365.83
193.99
189.896
185.935
182.099
)


20
(
2301.08
2299.75
2295.78
2289.16
2279.85
2267.83
2253.06
2235.51
2215.11
2191.81
2165.54
2136.24
2103.82
2068.22
2029.34
1987.1
1847.22
1843.91
1840.71
1837.62
)


20
(
3491.32
3486.46
3471.89
3447.58
3413.51
3369.65
3315.96
3252.38
3178.84
3095.29
3001.65
2897.83
2783.74
2659.3
2524.41
2378.96
1899.3
1887.9
1876.87
1866.19
)


20
(
4641.81
4633.5
4608.56
4566.98
4508.73
4433.76
4342.03
4233.48
4108.04
3965.62
3806.15
3629.54
3435.67
3224.45
2995.77
2749.51
1937.95
1918.64
1899.97
1881.88
)


20
(
5734.84
5723.21
5688.31
5630.14
5548.64
5443.79
5315.52
5163.77
4988.46
4789.5
4566.8
4320.25
4049.75
3755.17
3436.41
3093.33
1962.99
1936.09
1910.06
1884.86
)


20
(
6753.52
6738.76
6694.47
6620.64
6517.22
6384.18
6221.44
6028.93
5806.58
5554.28
5271.94
4959.43
4616.64
4243.45
3839.72
3405.33
1974.35
1940.29
1907.34
1875.43
)


20
(
7682.09
7664.44
7611.47
7523.17
7399.49
7240.39
7045.79
6815.63
6549.8
6248.22
5910.75
5537.3
5127.72
4681.88
4199.65
3680.89
1972.16
1931.48
1892.12
1854.01
)


20
(
8506.17
8485.91
8425.11
8323.75
8181.79
7999.18
7775.84
7511.7
7206.65
6860.6
6473.41
6044.98
5575.15
5063.79
4510.76
3915.9
1956.67
1910.02
1864.9
1821.2
)


20
(
9212.96
9190.41
9122.75
9009.95
8851.98
8648.78
8400.27
8106.37
7766.98
7381.98
6951.25
6474.67
5952.08
5383.35
4768.33
4106.85
1928.33
1876.45
1826.27
1777.68
)


20
(
9791.49
9767.02
9693.58
9571.14
9399.68
9179.13
8909.41
8590.44
8222.11
7804.3
7336.9
6819.76
6252.74
5635.7
4968.47
4250.9
1887.72
1831.45
1777.01
1724.29
)


20
(
10232.8
10206.8
10128.7
9998.6
9816.38
9581.99
9295.36
8956.39
8564.99
8121.03
7624.39
7074.93
6472.5
5816.95
5108.13
4345.87
1835.6
1775.83
1718
1661.99
)


20
(
10530
10502.8
10421.4
10285.7
10095.6
9851.11
9552.13
9198.57
8790.33
8327.28
7809.3
7236.26
6608
5924.37
5185.21
4390.37
1772.88
1710.54
1650.24
1591.84
)


20
(
10678.5
10650.6
10567.1
10428
10233.1
9982.35
9675.78
9313.24
8894.65
8419.88
7888.8
7301.28
6657.16
5956.31
5198.56
4383.77
1700.59
1636.69
1574.88
1515.01
)


20
(
10676
10647.9
10563.7
10423.3
10226.6
9973.71
9664.42
9298.68
8876.39
8397.44
7861.7
7269.03
6619.3
5912.36
5148.05
4326.22
1619.95
1555.5
1493.15
1432.77
)


20
(
10522.7
10494.9
10411.2
10271.8
10076.6
9825.42
9518.33
9155.2
8735.93
8260.41
7728.51
7140.12
6495.09
5793.28
5034.53
4218.72
1532.28
1468.3
1406.41
1346.47
)


20
(
10221.2
10193.9
10112.2
9976
9785.25
9539.9
9239.9
8885.15
8475.56
8011.02
7491.43
6916.66
6286.56
5601.02
4859.89
4063.03
1439.06
1376.56
1316.11
1257.56
)


20
(
9776.06
9749.9
9671.42
9540.59
9357.37
9121.72
8833.56
8492.83
8099.44
7653.28
7154.24
6602.21
5997.07
5338.69
4626.94
3861.68
1341.79
1281.77
1223.71
1167.49
)


20
(
9194.39
9169.72
9095.71
8972.34
8799.58
8577.36
8305.65
7984.36
7613.41
7192.72
6722.17
6201.67
5631.09
5010.33
4339.25
3617.74
1241.94
1185.36
1130.62
1077.61
)


20
(
8484.88
8462.1
8393.74
8279.8
8120.23
7915
7664.05
7367.32
7024.72
6636.19
6201.62
5720.92
5193.98
4620.71
4000.97
3334.68
1140.7
1088.45
1037.9
988.943
)


20
(
7657.61
7637.08
7575.47
7472.76
7328.94
7143.96
6917.78
6650.33
6341.55
5991.37
5599.7
5166.45
4691.54
4174.87
3616.34
3015.85
1038.58
991.486
945.928
901.809
)


20
(
6723.49
6705.53
6651.64
6561.82
6436.04
6274.26
6076.44
5842.54
5572.49
5266.23
4923.7
4544.8
4129.47
3677.63
3189.18
2664.04
934.887
893.704
853.863
815.28
)


20
(
5692.99
5677.89
5632.59
5557.08
5451.33
5315.33
5149.03
4952.4
4725.38
4467.92
4179.96
3861.44
3512.3
3132.46
2721.86
2280.41
826.853
792.234
758.743
726.31
)


20
(
4575.27
4563.27
4527.27
4467.26
4383.22
4275.14
4142.98
3986.71
3806.3
3601.7
3372.87
3119.76
2842.31
2540.47
2214.18
1863.4
708.365
680.857
654.245
628.473
)


20
(
3376.96
3368.25
3342.1
3298.51
3237.47
3158.97
3062.98
2949.49
2818.46
2669.87
2503.69
2319.88
2118.41
1899.23
1662.32
1407.63
569.016
549.044
529.722
511.011
)


20
(
2105.38
2100.08
2084.15
2057.61
2020.45
1972.65
1914.21
1845.13
1765.37
1674.94
1573.82
1461.99
1339.42
1206.12
1062.04
907.185