/*--------------------------------*- C++ -*----------------------------------*\
| =========                 |                                                 |
| \\      /  F ield         | OpenFOAM: The Open Source CFD Toolbox           |
|  \\    /   O peration     | Version:  2212                                  |
|   \\  /    A nd           | Website:  www.openfoam.com                      |
|    \\/     M anipulation  |                                                 |
\*---------------------------------------------------------------------------*/
FoamFile
{
    version     2.0;
    format      ascii;
    arch        "LSB;label=32;scalar=64";
    class       volScalarField;
    location    "48/neutroRegion";
    object      TClad;
}
// * * * * * * * * * * * * * * * * * * * * * * * * * * * * * * * * * * * * * //

dimensions      [0 0 0 1 0 0 0];

internalField   nonuniform List<scalar> 
350
(
0
0
0
0
0
0
0
0
0
0
0
0
0
0
0
0
0
0
0
0
0
0
0
0
0
0
0
0
0
0
0
0
0
0
0
0
0
0
0
0
0
0
0
0
0
0
0
0
0
0
1843.28
1881.5
1906.79
1919.12
1918.62
1905.58
1880.41
1843.68
1796.1
1738.51
1671.9
1597.37
1516.13
1429.53
1339
1246
1151.92
1057.83
964.117
869.961
772.431
665.251
537.711
377.758
187.013
1871.66
1910.51
1936.18
1948.67
1948.11
1934.78
1909.1
1871.66
1823.17
1764.49
1696.63
1620.68
1537.9
1449.64
1357.36
1262.56
1166.66
1070.8
975.412
879.728
780.81
672.299
543.271
381.37
188.234
1838.66
1876.81
1902.05
1914.38
1913.91
1900.93
1875.86
1839.25
1791.83
1734.44
1668.04
1593.74
1512.75
1426.42
1336.16
1243.45
1149.66
1055.85
962.395
868.479
771.168
664.199
536.893
377.231
186.827
1865.28
1903.97
1929.53
1941.98
1941.42
1928.14
1902.56
1865.27
1816.97
1758.54
1690.95
1615.33
1532.89
1445.01
1353.13
1258.74
1163.26
1067.8
972.8
877.469
778.871
670.667
541.983
380.532
187.952
1865.28
1903.97
1929.53
1941.98
1941.42
1928.14
1902.56
1865.27
1816.97
1758.54
1690.95
1615.33
1532.89
1445.01
1353.13
1258.74
1163.26
1067.8
972.8
877.469
778.871
670.667
541.983
380.532
187.952
1838.67
1876.82
1902.06
1914.38
1913.92
1900.93
1875.86
1839.26
1791.83
1734.44
1668.04
1593.74
1512.75
1426.42
1336.16
1243.45
1149.66
1055.85
962.396
868.48
771.169
664.2
536.894
377.231
186.828
1871.66
1910.51
1936.18
1948.67
1948.11
1934.78
1909.1
1871.66
1823.17
1764.49
1696.63
1620.68
1537.9
1449.64
1357.36
1262.56
1166.66
1070.8
975.412
879.728
780.81
672.299
543.271
381.37
188.234
1843.28
1881.5
1906.79
1919.12
1918.62
1905.58
1880.41
1843.68
1796.1
1738.51
1671.9
1597.37
1516.13
1429.53
1339
1246
1151.92
1057.83
964.117
869.961
772.431
665.251
537.711
377.758
187.013
1865.28
1903.97
1929.53
1941.98
1941.42
1928.14
1902.56
1865.27
1816.97
1758.54
1690.95
1615.33
1532.89
1445.01
1353.13
1258.74
1163.26
1067.8
972.8
877.469
778.871
670.667
541.983
380.532
187.952
1838.66
1876.81
1902.05
1914.38
1913.91
1900.93
1875.86
1839.25
1791.83
1734.44
1668.04
1593.74
1512.75
1426.42
1336.16
1243.45
1149.66
1055.85
962.396
868.479
771.168
664.199
536.893
377.231
186.827
1838.67
1876.82
1902.05
1914.38
1913.91
1900.93
1875.86
1839.26
1791.83
1734.44
1668.04
1593.74
1512.75
1426.42
1336.16
1243.45
1149.66
1055.85
962.396
868.48
771.168
664.2
536.894
377.231
186.828
1865.28
1903.97
1929.53
1941.98
1941.42
1928.14
1902.56
1865.27
1816.97
1758.54
1690.95
1615.33
1532.89
1445.01
1353.13
1258.74
1163.26
1067.8
972.8
877.469
778.871
670.667
541.983
380.532
187.952
)
;

boundaryField
{
    outletCentralUnloaded
    {
        type            zeroGradient;
    }
    inletCentralUnloaded
    {
        type            zeroGradient;
    }
    outletFuelElement
    {
        type            zeroGradient;
    }
    inletFuelElement
    {
        type            zeroGradient;
    }
    defaultFaces
    {
        type            zeroGradient;
    }
}


// ************************************************************************* //
