/*--------------------------------*- C++ -*----------------------------------*\
| =========                 |                                                 |
| \\      /  F ield         | OpenFOAM: The Open Source CFD Toolbox           |
|  \\    /   O peration     | Version:  2212                                  |
|   \\  /    A nd           | Website:  www.openfoam.com                      |
|    \\/     M anipulation  |                                                 |
\*---------------------------------------------------------------------------*/
FoamFile
{
    version     2.0;
    format      ascii;
    arch        "LSB;label=32;scalar=64";
    class       volTensorField;
    location    "30/fluidRegion";
    object      KdTotU;
}
// * * * * * * * * * * * * * * * * * * * * * * * * * * * * * * * * * * * * * //

dimensions      [1 -2 -2 0 0 0 0];

internalField   nonuniform List<tensor> 
17
(
(5252.12 0 0 0 5252.12 0 0 0 5252.12)
(5252.12 0 0 0 5252.12 0 0 0 5252.12)
(5244.29 0 0 0 5244.29 0 0 0 5244.29)
(5272.8 0 0 0 5272.8 0 0 0 5272.8)
(5301.71 0 0 0 5301.71 0 0 0 5301.71)
(5330.95 0 0 0 5330.95 0 0 0 5330.95)
(5360.48 0 0 0 5360.48 0 0 0 5360.48)
(7146.3 0 0 0 7146.3 0 0 0 7146.3)
(10989.1 0 0 0 10989.1 0 0 0 10989.1)
(16069.8 0 0 0 16069.8 0 0 0 16069.8)
(22051.4 0 0 0 22051.4 0 0 0 22051.4)
(28907 0 0 0 28907 0 0 0 28907)
(36404.7 0 0 0 36404.7 0 0 0 36404.7)
(44233.1 0 0 0 44233.1 0 0 0 44233.1)
(52255.2 0 0 0 52255.2 0 0 0 52255.2)
(60413.1 0 0 0 60413.1 0 0 0 60413.1)
(68680.1 0 0 0 68680.1 0 0 0 68680.1)
)
;

boundaryField
{
    inlet
    {
        type            zeroGradient;
    }
    outlet
    {
        type            zeroGradient;
    }
    fixedWalls
    {
        type            zeroGradient;
    }
}


// ************************************************************************* //
