/*--------------------------------*- C++ -*----------------------------------*\
| =========                 |                                                 |
| \\      /  F ield         | OpenFOAM: The Open Source CFD Toolbox           |
|  \\    /   O peration     | Version:  2212                                  |
|   \\  /    A nd           | Website:  www.openfoam.com                      |
|    \\/     M anipulation  |                                                 |
\*---------------------------------------------------------------------------*/
FoamFile
{
    version     2.0;
    format      ascii;
    arch        "LSB;label=32;scalar=64";
    class       volScalarField;
    location    "30/fluidRegion";
    object      p;
}
// * * * * * * * * * * * * * * * * * * * * * * * * * * * * * * * * * * * * * //

dimensions      [1 -1 -2 0 0 0 0];

internalField   nonuniform List<scalar> 
17
(
1.48391e+07
1.48382e+07
1.48368e+07
1.48348e+07
1.48328e+07
1.48308e+07
1.48287e+07
1.48265e+07
1.48234e+07
1.48192e+07
1.48134e+07
1.48061e+07
1.4797e+07
1.4786e+07
1.47732e+07
1.47584e+07
1.47416e+07
)
;

boundaryField
{
    inlet
    {
        type            calculated;
        value           uniform 1.48396e+07;
    }
    outlet
    {
        type            calculated;
        value           uniform 1.47324e+07;
    }
    fixedWalls
    {
        type            calculated;
        value           nonuniform List<scalar> 
68
(
1.48391e+07
1.48382e+07
1.48368e+07
1.48348e+07
1.48328e+07
1.48308e+07
1.48287e+07
1.48265e+07
1.48234e+07
1.48192e+07
1.48134e+07
1.48061e+07
1.4797e+07
1.4786e+07
1.47732e+07
1.47584e+07
1.47416e+07
1.48391e+07
1.48382e+07
1.48368e+07
1.48348e+07
1.48328e+07
1.48308e+07
1.48287e+07
1.48265e+07
1.48234e+07
1.48192e+07
1.48134e+07
1.48061e+07
1.4797e+07
1.4786e+07
1.47732e+07
1.47584e+07
1.47416e+07
1.48391e+07
1.48382e+07
1.48368e+07
1.48348e+07
1.48328e+07
1.48308e+07
1.48287e+07
1.48265e+07
1.48234e+07
1.48192e+07
1.48134e+07
1.48061e+07
1.4797e+07
1.4786e+07
1.47732e+07
1.47584e+07
1.47416e+07
1.48391e+07
1.48382e+07
1.48368e+07
1.48348e+07
1.48328e+07
1.48308e+07
1.48287e+07
1.48265e+07
1.48234e+07
1.48192e+07
1.48134e+07
1.48061e+07
1.4797e+07
1.4786e+07
1.47732e+07
1.47584e+07
1.47416e+07
)
;
    }
}


// ************************************************************************* //
