/*--------------------------------*- C++ -*----------------------------------*\
| =========                 |                                                 |
| \\      /  F ield         | OpenFOAM: The Open Source CFD Toolbox           |
|  \\    /   O peration     | Version:  2212                                  |
|   \\  /    A nd           | Website:  www.openfoam.com                      |
|    \\/     M anipulation  |                                                 |
\*---------------------------------------------------------------------------*/
FoamFile
{
    version     2.0;
    format      ascii;
    arch        "LSB;label=32;scalar=64";
    class       volScalarField;
    location    "30/fluidRegion";
    object      p_rgh;
}
// * * * * * * * * * * * * * * * * * * * * * * * * * * * * * * * * * * * * * //

dimensions      [1 -1 -2 0 0 0 0];

internalField   nonuniform List<scalar> 
17
(
1.48393e+07
1.48387e+07
1.48378e+07
1.48364e+07
1.4835e+07
1.48336e+07
1.48322e+07
1.48305e+07
1.48279e+07
1.4824e+07
1.48186e+07
1.48116e+07
1.48028e+07
1.47921e+07
1.47795e+07
1.47649e+07
1.47483e+07
)
;

boundaryField
{
    inlet
    {
        type            fixedFluxPressure;
        gradient        uniform 12087.9;
        value           uniform 1.48396e+07;
    }
    outlet
    {
        type            fixedValue;
        value           uniform 1.47394e+07;
    }
    fixedWalls
    {
        type            fixedFluxPressure;
        gradient        uniform 0;
        value           nonuniform List<scalar> 
68
(
1.48393e+07
1.48387e+07
1.48378e+07
1.48364e+07
1.4835e+07
1.48336e+07
1.48322e+07
1.48305e+07
1.48279e+07
1.4824e+07
1.48186e+07
1.48116e+07
1.48028e+07
1.47921e+07
1.47795e+07
1.47649e+07
1.47483e+07
1.48393e+07
1.48387e+07
1.48378e+07
1.48364e+07
1.4835e+07
1.48336e+07
1.48322e+07
1.48305e+07
1.48279e+07
1.4824e+07
1.48186e+07
1.48116e+07
1.48028e+07
1.47921e+07
1.47795e+07
1.47649e+07
1.47483e+07
1.48393e+07
1.48387e+07
1.48378e+07
1.48364e+07
1.4835e+07
1.48336e+07
1.48322e+07
1.48305e+07
1.48279e+07
1.4824e+07
1.48186e+07
1.48116e+07
1.48028e+07
1.47921e+07
1.47795e+07
1.47649e+07
1.47483e+07
1.48393e+07
1.48387e+07
1.48378e+07
1.48364e+07
1.4835e+07
1.48336e+07
1.48322e+07
1.48305e+07
1.48279e+07
1.4824e+07
1.48186e+07
1.48116e+07
1.48028e+07
1.47921e+07
1.47795e+07
1.47649e+07
1.47483e+07
)
;
    }
}


// ************************************************************************* //
