/*--------------------------------*- C++ -*----------------------------------*\
| =========                 |                                                 |
| \\      /  F ield         | OpenFOAM: The Open Source CFD Toolbox           |
|  \\    /   O peration     | Version:  2212                                  |
|   \\  /    A nd           | Website:  www.openfoam.com                      |
|    \\/     M anipulation  |                                                 |
\*---------------------------------------------------------------------------*/
FoamFile
{
    version     2.0;
    format      ascii;
    arch        "LSB;label=32;scalar=64";
    class       volScalarField;
    location    "72/fluidRegion";
    object      heatFlux.structure;
}
// * * * * * * * * * * * * * * * * * * * * * * * * * * * * * * * * * * * * * //

dimensions      [1 0 -3 0 0 0 0];

internalField   nonuniform List<scalar> 
350
(
-258302
-258304
-258305
-258307
-258310
-258316
-258323
-258331
-258339
-258346
-258351
-258353
-258354
-258354
-258355
-258356
-258359
-258363
-258368
-258373
-258377
-258379
-258381
-258381
-258809
-258302
-258304
-258305
-258307
-258310
-258316
-258323
-258331
-258339
-258346
-258351
-258353
-258354
-258354
-258355
-258356
-258359
-258363
-258368
-258373
-258377
-258379
-258381
-258381
-258809
450231
1.34402e+06
2.21661e+06
3.05424e+06
3.8437e+06
4.57254e+06
5.22926e+06
5.80351e+06
6.28623e+06
6.66982e+06
6.94821e+06
7.11703e+06
7.1736e+06
7.11705e+06
6.94825e+06
6.66987e+06
6.2863e+06
5.8036e+06
5.22934e+06
4.57266e+06
3.84383e+06
3.05442e+06
2.21677e+06
1.34418e+06
450454
455385
1.35941e+06
2.242e+06
3.08923e+06
3.88773e+06
4.62492e+06
5.28916e+06
5.86999e+06
6.35824e+06
6.74622e+06
7.0278e+06
7.19855e+06
7.25578e+06
7.19857e+06
7.02784e+06
6.74627e+06
6.35831e+06
5.87008e+06
5.28924e+06
4.62504e+06
3.88787e+06
3.08941e+06
2.24217e+06
1.35957e+06
455613
449410
1.34157e+06
2.21257e+06
3.04867e+06
3.83669e+06
4.5642e+06
5.21972e+06
5.79292e+06
6.27477e+06
6.65765e+06
6.93554e+06
7.10405e+06
7.16052e+06
7.10406e+06
6.93557e+06
6.6577e+06
6.27484e+06
5.79301e+06
5.2198e+06
4.56432e+06
3.83682e+06
3.04885e+06
2.21273e+06
1.34172e+06
449632
454198
1.35587e+06
2.23616e+06
3.08117e+06
3.87759e+06
4.61286e+06
5.27537e+06
5.85468e+06
6.34166e+06
6.72863e+06
7.00948e+06
7.17978e+06
7.23686e+06
7.1798e+06
7.00952e+06
6.72868e+06
6.34174e+06
5.85477e+06
5.27545e+06
4.61298e+06
3.87773e+06
3.08135e+06
2.23632e+06
1.35603e+06
454426
454198
1.35587e+06
2.23616e+06
3.08117e+06
3.87759e+06
4.61286e+06
5.27537e+06
5.85468e+06
6.34166e+06
6.72863e+06
7.00948e+06
7.17978e+06
7.23686e+06
7.1798e+06
7.00952e+06
6.72868e+06
6.34174e+06
5.85477e+06
5.27545e+06
4.61298e+06
3.87773e+06
3.08135e+06
2.23632e+06
1.35603e+06
454426
449410
1.34157e+06
2.21257e+06
3.04867e+06
3.83669e+06
4.5642e+06
5.21972e+06
5.79292e+06
6.27477e+06
6.65765e+06
6.93554e+06
7.10405e+06
7.16052e+06
7.10406e+06
6.93557e+06
6.6577e+06
6.27484e+06
5.79301e+06
5.2198e+06
4.56432e+06
3.83682e+06
3.04885e+06
2.21273e+06
1.34172e+06
449632
455385
1.35941e+06
2.242e+06
3.08923e+06
3.88773e+06
4.62492e+06
5.28916e+06
5.86999e+06
6.35824e+06
6.74622e+06
7.0278e+06
7.19855e+06
7.25577e+06
7.19857e+06
7.02784e+06
6.74627e+06
6.35831e+06
5.87008e+06
5.28924e+06
4.62504e+06
3.88787e+06
3.08941e+06
2.24217e+06
1.35957e+06
455614
450231
1.34402e+06
2.21661e+06
3.05424e+06
3.8437e+06
4.57254e+06
5.22926e+06
5.80351e+06
6.28623e+06
6.66982e+06
6.94821e+06
7.11703e+06
7.1736e+06
7.11704e+06
6.94825e+06
6.66987e+06
6.2863e+06
5.8036e+06
5.22934e+06
4.57266e+06
3.84383e+06
3.05442e+06
2.21677e+06
1.34418e+06
450454
454198
1.35587e+06
2.23616e+06
3.08117e+06
3.87759e+06
4.61286e+06
5.27537e+06
5.85468e+06
6.34166e+06
6.72863e+06
7.00948e+06
7.17978e+06
7.23686e+06
7.1798e+06
7.00952e+06
6.72868e+06
6.34174e+06
5.85477e+06
5.27545e+06
4.61298e+06
3.87773e+06
3.08135e+06
2.23632e+06
1.35603e+06
454426
449410
1.34157e+06
2.21257e+06
3.04867e+06
3.83669e+06
4.5642e+06
5.21972e+06
5.79292e+06
6.27477e+06
6.65765e+06
6.93554e+06
7.10405e+06
7.16052e+06
7.10406e+06
6.93557e+06
6.6577e+06
6.27484e+06
5.79301e+06
5.2198e+06
4.56432e+06
3.83682e+06
3.04885e+06
2.21273e+06
1.34172e+06
449632
449410
1.34157e+06
2.21257e+06
3.04867e+06
3.83669e+06
4.5642e+06
5.21972e+06
5.79292e+06
6.27477e+06
6.65765e+06
6.93554e+06
7.10405e+06
7.16052e+06
7.10406e+06
6.93557e+06
6.6577e+06
6.27484e+06
5.79301e+06
5.2198e+06
4.56432e+06
3.83682e+06
3.04885e+06
2.21273e+06
1.34172e+06
449632
454198
1.35587e+06
2.23616e+06
3.08117e+06
3.87759e+06
4.61286e+06
5.27537e+06
5.85468e+06
6.34166e+06
6.72863e+06
7.00948e+06
7.17978e+06
7.23686e+06
7.1798e+06
7.00952e+06
6.72868e+06
6.34174e+06
5.85477e+06
5.27545e+06
4.61298e+06
3.87773e+06
3.08135e+06
2.23632e+06
1.35603e+06
454426
)
;

boundaryField
{
    outletCentralUnloaded
    {
        type            zeroGradient;
    }
    inletCentralUnloaded
    {
        type            zeroGradient;
    }
    outletFuelElement
    {
        type            zeroGradient;
    }
    inletFuelElement
    {
        type            zeroGradient;
    }
    defaultFaces
    {
        type            zeroGradient;
    }
    baffle_master
    {
        type            zeroGradient;
    }
    baffle_slave
    {
        type            zeroGradient;
    }
}


// ************************************************************************* //
