/*--------------------------------*- C++ -*----------------------------------*\
| =========                 |                                                 |
| \\      /  F ield         | OpenFOAM: The Open Source CFD Toolbox           |
|  \\    /   O peration     | Version:  2212                                  |
|   \\  /    A nd           | Website:  www.openfoam.com                      |
|    \\/     M anipulation  |                                                 |
\*---------------------------------------------------------------------------*/
FoamFile
{
    version     2.0;
    format      ascii;
    arch        "LSB;label=32;scalar=64";
    class       volScalarField;
    location    "72/fluidRegion";
    object      Tcav.nuclearFuelPin;
}
// * * * * * * * * * * * * * * * * * * * * * * * * * * * * * * * * * * * * * //

dimensions      [0 0 0 1 0 0 0];

internalField   nonuniform List<scalar> 
350
(
0
0
0
0
0
0
0
0
0
0
0
0
0
0
0
0
0
0
0
0
0
0
0
0
0
0
0
0
0
0
0
0
0
0
0
0
0
0
0
0
0
0
0
0
0
0
0
0
0
0
1845.85
1883.93
1909.07
1921.26
1920.64
1907.46
1882.16
1845.31
1797.61
1739.91
1673.19
1598.54
1517.2
1430.49
1339.86
1246.77
1152.6
1058.42
964.639
870.423
772.857
665.648
538.042
377.925
186.899
1874.3
1913
1938.53
1950.88
1950.18
1936.72
1910.91
1873.34
1824.72
1765.93
1697.95
1621.89
1539
1450.63
1358.25
1263.35
1167.36
1071.41
975.947
880.2
781.245
672.705
543.611
381.544
188.122
1841.22
1879.23
1904.33
1916.52
1915.92
1902.81
1877.61
1840.88
1793.34
1735.83
1669.32
1594.9
1513.81
1427.37
1337.02
1244.22
1150.33
1056.44
962.916
868.939
771.592
664.595
537.223
377.397
186.713
1867.9
1906.44
1931.87
1944.17
1943.47
1930.06
1904.36
1866.94
1818.52
1759.97
1692.27
1616.52
1533.98
1445.99
1354.01
1259.52
1163.95
1068.4
973.333
877.938
779.304
671.071
542.32
380.704
187.839
1867.9
1906.44
1931.87
1944.17
1943.47
1930.06
1904.36
1866.94
1818.52
1759.97
1692.27
1616.52
1533.98
1445.99
1354.01
1259.52
1163.95
1068.4
973.333
877.938
779.304
671.071
542.32
380.704
187.839
1841.23
1879.23
1904.33
1916.52
1915.92
1902.81
1877.61
1840.88
1793.34
1735.83
1669.32
1594.9
1513.81
1427.38
1337.02
1244.22
1150.34
1056.44
962.917
868.94
771.593
664.596
537.224
377.398
186.713
1874.3
1913
1938.53
1950.88
1950.18
1936.72
1910.91
1873.34
1824.72
1765.93
1697.95
1621.89
1539
1450.63
1358.25
1263.35
1167.36
1071.41
975.948
880.2
781.245
672.705
543.611
381.543
188.122
1845.85
1883.93
1909.07
1921.26
1920.64
1907.46
1882.16
1845.31
1797.61
1739.91
1673.19
1598.54
1517.2
1430.49
1339.86
1246.77
1152.6
1058.42
964.639
870.423
772.857
665.648
538.043
377.925
186.899
1867.9
1906.44
1931.87
1944.17
1943.47
1930.06
1904.36
1866.94
1818.52
1759.97
1692.27
1616.52
1533.98
1445.99
1354.01
1259.52
1163.95
1068.4
973.333
877.938
779.304
671.071
542.32
380.704
187.839
1841.22
1879.23
1904.33
1916.52
1915.92
1902.81
1877.61
1840.88
1793.34
1735.83
1669.32
1594.9
1513.81
1427.37
1337.02
1244.22
1150.34
1056.44
962.917
868.939
771.593
664.595
537.223
377.397
186.713
1841.23
1879.23
1904.33
1916.52
1915.92
1902.81
1877.61
1840.88
1793.34
1735.83
1669.32
1594.9
1513.81
1427.38
1337.02
1244.22
1150.34
1056.44
962.917
868.94
771.593
664.596
537.224
377.398
186.713
1867.9
1906.44
1931.87
1944.17
1943.47
1930.06
1904.36
1866.94
1818.52
1759.97
1692.27
1616.52
1533.98
1445.99
1354.01
1259.52
1163.95
1068.4
973.333
877.938
779.304
671.071
542.32
380.703
187.839
)
;

boundaryField
{
    outletCentralUnloaded
    {
        type            zeroGradient;
    }
    inletCentralUnloaded
    {
        type            zeroGradient;
    }
    outletFuelElement
    {
        type            zeroGradient;
    }
    inletFuelElement
    {
        type            zeroGradient;
    }
    defaultFaces
    {
        type            zeroGradient;
    }
    baffle_master
    {
        type            zeroGradient;
    }
    baffle_slave
    {
        type            zeroGradient;
    }
}


// ************************************************************************* //
