/*--------------------------------*- C++ -*----------------------------------*\
| =========                 |                                                 |
| \\      /  F ield         | OpenFOAM: The Open Source CFD Toolbox           |
|  \\    /   O peration     | Version:  2212                                  |
|   \\  /    A nd           | Website:  www.openfoam.com                      |
|    \\/     M anipulation  |                                                 |
\*---------------------------------------------------------------------------*/
FoamFile
{
    version     2.0;
    format      ascii;
    arch        "LSB;label=32;scalar=64";
    class       volScalarField;
    location    "72/fluidRegion";
    object      Tci.nuclearFuelPin;
}
// * * * * * * * * * * * * * * * * * * * * * * * * * * * * * * * * * * * * * //

dimensions      [0 0 0 1 0 0 0];

internalField   nonuniform List<scalar> 
350
(
0
0
0
0
0
0
0
0
0
0
0
0
0
0
0
0
0
0
0
0
0
0
0
0
0
0
0
0
0
0
0
0
0
0
0
0
0
0
0
0
0
0
0
0
0
0
0
0
0
0
1851.96
1902.17
1939.15
1962.72
1972.8
1969.52
1953.13
1924.07
1882.92
1830.43
1767.48
1695.13
1614.55
1527.08
1434.16
1337.29
1237.91
1137.19
1035.61
932.481
825.024
707.101
568.127
396.167
193.012
1880.48
1931.45
1968.95
1992.81
2002.95
1999.48
1982.69
1953
1911.01
1857.49
1793.32
1719.58
1637.47
1548.33
1453.63
1354.9
1253.65
1151.07
1047.73
942.969
834.009
714.633
574.04
399.995
194.306
1847.32
1897.44
1934.36
1957.89
1967.99
1964.75
1948.45
1919.5
1878.5
1826.18
1763.44
1691.32
1610.99
1523.79
1431.15
1334.57
1235.49
1135.06
1033.76
930.884
823.664
705.972
567.253
395.607
192.815
1874.07
1924.84
1962.21
1985.98
1996.1
1992.66
1975.95
1946.39
1904.59
1851.29
1787.39
1713.97
1632.2
1543.44
1449.14
1350.84
1250.01
1147.86
1044.93
940.544
831.931
712.89
572.67
399.107
194.007
1874.07
1924.84
1962.21
1985.98
1996.1
1992.66
1975.95
1946.39
1904.59
1851.29
1787.39
1713.97
1632.2
1543.44
1449.14
1350.84
1250.01
1147.86
1044.93
940.544
831.931
712.89
572.67
399.107
194.007
1847.33
1897.44
1934.36
1957.89
1967.99
1964.75
1948.45
1919.5
1878.5
1826.18
1763.44
1691.32
1610.99
1523.79
1431.15
1334.57
1235.5
1135.06
1033.76
930.884
823.665
705.973
567.254
395.607
192.815
1880.48
1931.45
1968.95
1992.81
2002.95
1999.48
1982.69
1953
1911.01
1857.49
1793.32
1719.58
1637.47
1548.33
1453.63
1354.9
1253.65
1151.07
1047.73
942.969
834.009
714.633
574.04
399.995
194.306
1851.96
1902.17
1939.15
1962.72
1972.8
1969.52
1953.13
1924.07
1882.92
1830.43
1767.48
1695.13
1614.55
1527.08
1434.16
1337.29
1237.91
1137.19
1035.61
932.481
825.024
707.101
568.128
396.167
193.012
1874.07
1924.84
1962.21
1985.98
1996.1
1992.66
1975.95
1946.39
1904.59
1851.29
1787.39
1713.97
1632.2
1543.44
1449.14
1350.84
1250.01
1147.86
1044.93
940.544
831.931
712.89
572.67
399.107
194.007
1847.32
1897.44
1934.36
1957.89
1967.99
1964.75
1948.45
1919.5
1878.5
1826.18
1763.44
1691.32
1610.99
1523.79
1431.15
1334.57
1235.49
1135.06
1033.76
930.884
823.664
705.973
567.254
395.607
192.815
1847.33
1897.44
1934.36
1957.89
1967.99
1964.75
1948.45
1919.5
1878.5
1826.18
1763.44
1691.32
1610.99
1523.79
1431.15
1334.57
1235.49
1135.06
1033.76
930.884
823.665
705.973
567.254
395.607
192.815
1874.07
1924.84
1962.21
1985.98
1996.1
1992.66
1975.95
1946.39
1904.59
1851.29
1787.39
1713.97
1632.2
1543.44
1449.14
1350.84
1250.01
1147.86
1044.93
940.544
831.931
712.89
572.67
399.107
194.007
)
;

boundaryField
{
    outletCentralUnloaded
    {
        type            zeroGradient;
    }
    inletCentralUnloaded
    {
        type            zeroGradient;
    }
    outletFuelElement
    {
        type            zeroGradient;
    }
    inletFuelElement
    {
        type            zeroGradient;
    }
    defaultFaces
    {
        type            zeroGradient;
    }
    baffle_master
    {
        type            zeroGradient;
    }
    baffle_slave
    {
        type            zeroGradient;
    }
}


// ************************************************************************* //
