/*--------------------------------*- C++ -*----------------------------------*\
| =========                 |                                                 |
| \\      /  F ield         | OpenFOAM: The Open Source CFD Toolbox           |
|  \\    /   O peration     | Version:  2212                                  |
|   \\  /    A nd           | Website:  www.openfoam.com                      |
|    \\/     M anipulation  |                                                 |
\*---------------------------------------------------------------------------*/
FoamFile
{
    version     2.0;
    format      ascii;
    arch        "LSB;label=32;scalar=64";
    class       volScalarField;
    location    "72/fluidRegion";
    object      Tco.nuclearFuelPin;
}
// * * * * * * * * * * * * * * * * * * * * * * * * * * * * * * * * * * * * * //

dimensions      [0 0 0 1 0 0 0];

internalField   nonuniform List<scalar> 
350
(
0
0
0
0
0
0
0
0
0
0
0
0
0
0
0
0
0
0
0
0
0
0
0
0
0
0
0
0
0
0
0
0
0
0
0
0
0
0
0
0
0
0
0
0
0
0
0
0
0
0
1840.14
1866.9
1880.99
1882.57
1871.94
1849.53
1815.91
1771.79
1717.97
1655.41
1585.16
1508.38
1426.31
1340.33
1251.83
1162.26
1072.96
984.898
898.389
812.492
724.16
626.952
509.958
360.896
181.192
1868.53
1895.78
1910.12
1911.74
1900.93
1878.12
1843.9
1798.97
1744.17
1680.46
1608.91
1530.69
1447.08
1359.44
1269.21
1177.88
1086.8
997.037
908.938
821.605
731.99
633.565
515.205
364.319
182.35
1835.53
1862.23
1876.3
1877.89
1867.31
1844.98
1811.48
1767.49
1713.85
1651.48
1581.45
1504.9
1423.1
1337.37
1249.15
1159.87
1070.84
983.048
896.787
811.114
722.984
625.969
509.19
360.399
181.016
1862.15
1889.27
1903.54
1905.13
1894.35
1871.62
1837.52
1792.76
1738.18
1674.72
1603.46
1525.56
1442.3
1355.03
1265.2
1174.27
1083.6
994.231
906.498
819.497
730.178
632.033
513.988
363.524
182.082
1862.15
1889.27
1903.54
1905.13
1894.35
1871.62
1837.52
1792.76
1738.18
1674.72
1603.46
1525.56
1442.3
1355.03
1265.2
1174.27
1083.6
994.231
906.498
819.497
730.178
632.033
513.988
363.524
182.082
1835.53
1862.23
1876.3
1877.89
1867.31
1844.99
1811.48
1767.49
1713.85
1651.48
1581.45
1504.9
1423.1
1337.37
1249.16
1159.87
1070.84
983.049
896.788
811.114
722.985
625.97
509.191
360.4
181.017
1868.53
1895.78
1910.12
1911.74
1900.93
1878.12
1843.9
1798.97
1744.17
1680.46
1608.91
1530.69
1447.08
1359.44
1269.21
1177.88
1086.8
997.037
908.938
821.605
731.99
633.565
515.205
364.319
182.35
1840.14
1866.9
1880.99
1882.57
1871.94
1849.53
1815.91
1771.78
1717.97
1655.41
1585.16
1508.38
1426.31
1340.33
1251.83
1162.26
1072.96
984.898
898.389
812.492
724.16
626.952
509.958
360.895
181.192
1862.15
1889.27
1903.54
1905.13
1894.35
1871.62
1837.52
1792.76
1738.18
1674.72
1603.46
1525.56
1442.3
1355.03
1265.2
1174.27
1083.6
994.231
906.498
819.497
730.178
632.033
513.988
363.524
182.082
1835.53
1862.23
1876.3
1877.89
1867.31
1844.98
1811.48
1767.49
1713.85
1651.48
1581.45
1504.9
1423.1
1337.37
1249.15
1159.87
1070.84
983.048
896.787
811.114
722.984
625.969
509.19
360.399
181.016
1835.53
1862.23
1876.3
1877.89
1867.31
1844.99
1811.48
1767.49
1713.85
1651.48
1581.45
1504.9
1423.1
1337.37
1249.16
1159.87
1070.84
983.048
896.788
811.114
722.985
625.97
509.191
360.4
181.017
1862.15
1889.27
1903.54
1905.13
1894.35
1871.62
1837.52
1792.76
1738.18
1674.72
1603.46
1525.56
1442.3
1355.03
1265.2
1174.27
1083.6
994.231
906.498
819.497
730.178
632.033
513.988
363.524
182.082
)
;

boundaryField
{
    outletCentralUnloaded
    {
        type            zeroGradient;
    }
    inletCentralUnloaded
    {
        type            zeroGradient;
    }
    outletFuelElement
    {
        type            zeroGradient;
    }
    inletFuelElement
    {
        type            zeroGradient;
    }
    defaultFaces
    {
        type            zeroGradient;
    }
    baffle_master
    {
        type            zeroGradient;
    }
    baffle_slave
    {
        type            zeroGradient;
    }
}


// ************************************************************************* //
