/*--------------------------------*- C++ -*----------------------------------*\
| =========                 |                                                 |
| \\      /  F ield         | OpenFOAM: The Open Source CFD Toolbox           |
|  \\    /   O peration     | Version:  2212                                  |
|   \\  /    A nd           | Website:  www.openfoam.com                      |
|    \\/     M anipulation  |                                                 |
\*---------------------------------------------------------------------------*/
FoamFile
{
    version     2.0;
    format      ascii;
    arch        "LSB;label=32;scalar=64";
    class       volScalarField;
    location    "72/fluidRegion";
    object      Tfav.nuclearFuelPin;
}
// * * * * * * * * * * * * * * * * * * * * * * * * * * * * * * * * * * * * * //

dimensions      [0 0 0 1 0 0 0];

internalField   nonuniform List<scalar> 
350
(
0
0
0
0
0
0
0
0
0
0
0
0
0
0
0
0
0
0
0
0
0
0
0
0
0
0
0
0
0
0
0
0
0
0
0
0
0
0
0
0
0
0
0
0
0
0
0
0
0
0
2223.1
3010.14
3766.47
4480.56
5141.47
5739.03
6264.03
6708.37
7065.17
7328.9
7495.46
7562.27
7528.34
7394.24
7162.16
6835.8
6420.22
5921.56
5346.58
4702.1
3993.81
3225.11
2395.59
1504.28
564.359
2255.88
3052.11
3817.2
4539.49
5207.91
5812.17
6342.97
6792.1
7152.62
7418.94
7586.91
7653.93
7618.99
7482.69
7247.24
6916.4
6495.32
5990.25
5408.08
4755.76
4039.09
3261.48
2422.44
1520.8
569.906
2217.79
3003.39
3758.34
4471.15
5130.87
5727.38
6251.48
6695.07
7051.29
7314.62
7480.96
7547.76
7513.99
7380.24
7148.7
6823.06
6408.35
5910.71
5336.86
4693.62
3986.67
3219.39
2391.39
1501.7
563.484
2248.48
3042.58
3805.65
4526.03
5192.7
5795.41
6324.86
6772.88
7132.53
7398.24
7565.87
7632.84
7598.13
7462.33
7227.65
6897.84
6478.02
5974.43
5393.91
4743.4
4028.66
3253.1
2416.25
1516.99
568.627
2248.48
3042.58
3805.65
4526.03
5192.7
5795.41
6324.86
6772.88
7132.53
7398.24
7565.87
7632.84
7598.13
7462.33
7227.65
6897.84
6478.02
5974.43
5393.91
4743.4
4028.66
3253.1
2416.25
1516.99
568.628
2217.8
3003.39
3758.35
4471.15
5130.87
5727.38
6251.48
6695.07
7051.3
7314.62
7480.97
7547.76
7513.99
7380.24
7148.7
6823.06
6408.35
5910.71
5336.87
4693.62
3986.67
3219.39
2391.39
1501.7
563.484
2255.88
3052.11
3817.2
4539.49
5207.91
5812.17
6342.97
6792.1
7152.62
7418.94
7586.91
7653.93
7618.99
7482.69
7247.24
6916.4
6495.32
5990.25
5408.08
4755.76
4039.09
3261.48
2422.44
1520.8
569.906
2223.1
3010.14
3766.47
4480.56
5141.47
5739.03
6264.03
6708.37
7065.17
7328.9
7495.45
7562.27
7528.33
7394.24
7162.16
6835.8
6420.22
5921.56
5346.58
4702.1
3993.81
3225.11
2395.59
1504.28
564.359
2248.48
3042.58
3805.65
4526.03
5192.7
5795.41
6324.86
6772.88
7132.53
7398.24
7565.87
7632.84
7598.13
7462.33
7227.65
6897.84
6478.02
5974.43
5393.91
4743.4
4028.66
3253.1
2416.25
1516.99
568.627
2217.79
3003.39
3758.34
4471.15
5130.87
5727.38
6251.48
6695.07
7051.29
7314.62
7480.96
7547.76
7513.98
7380.24
7148.7
6823.06
6408.35
5910.71
5336.86
4693.62
3986.67
3219.39
2391.39
1501.7
563.484
2217.8
3003.39
3758.35
4471.15
5130.87
5727.38
6251.48
6695.07
7051.3
7314.62
7480.97
7547.76
7513.99
7380.24
7148.7
6823.06
6408.35
5910.71
5336.87
4693.62
3986.67
3219.39
2391.39
1501.7
563.484
2248.48
3042.58
3805.65
4526.03
5192.7
5795.41
6324.86
6772.88
7132.53
7398.24
7565.87
7632.84
7598.13
7462.33
7227.65
6897.84
6478.02
5974.43
5393.91
4743.4
4028.66
3253.1
2416.25
1516.99
568.627
)
;

boundaryField
{
    outletCentralUnloaded
    {
        type            zeroGradient;
    }
    inletCentralUnloaded
    {
        type            zeroGradient;
    }
    outletFuelElement
    {
        type            zeroGradient;
    }
    inletFuelElement
    {
        type            zeroGradient;
    }
    defaultFaces
    {
        type            zeroGradient;
    }
    baffle_master
    {
        type            zeroGradient;
    }
    baffle_slave
    {
        type            zeroGradient;
    }
}


// ************************************************************************* //
