/*--------------------------------*- C++ -*----------------------------------*\
| =========                 |                                                 |
| \\      /  F ield         | OpenFOAM: The Open Source CFD Toolbox           |
|  \\    /   O peration     | Version:  2212                                  |
|   \\  /    A nd           | Website:  www.openfoam.com                      |
|    \\/     M anipulation  |                                                 |
\*---------------------------------------------------------------------------*/
FoamFile
{
    version     2.0;
    format      ascii;
    arch        "LSB;label=32;scalar=64";
    class       scalarFieldField;
    location    "72/fluidRegion";
    object      Trad.nuclearFuelPin;
}
// * * * * * * * * * * * * * * * * * * * * * * * * * * * * * * * * * * * * * //


350
(
0()
0()
0()
0()
0()
0()
0()
0()
0()
0()
0()
0()
0()
0()
0()
0()
0()
0()
0()
0()
0()
0()
0()
0()
0()
0()
0()
0()
0()
0()
0()
0()
0()
0()
0()
0()
0()
0()
0()
0()
0()
0()
0()
0()
0()
0()
0()
0()
0()
0()

20
(
2425.26
2423.47
2418.1
2409.16
2396.63
2380.53
2360.86
2337.6
2310.77
2280.36
2246.37
2208.8
2167.65
2122.92
2074.61
2022.72
1851.96
1847.89
1843.95
1840.14
)


20
(
3613.67
3608.33
3592.31
3565.6
3528.22
3480.15
3421.4
3351.97
3271.85
3181.06
3079.58
2967.42
2844.57
2711.05
2566.83
2411.94
1902.17
1890.03
1878.28
1866.9
)


20
(
4761.86
4753.05
4726.62
4682.58
4620.92
4541.64
4444.75
4330.24
4198.11
4048.36
3880.99
3696.01
3493.4
3273.18
3035.34
2779.88
1939.15
1919.13
1899.75
1880.99
)


20
(
5852.1
5839.96
5803.55
5742.87
5657.9
5548.67
5415.16
5257.37
5075.31
4868.97
4638.36
4383.47
4104.3
3800.86
3473.14
3121.15
1962.72
1935.12
1908.42
1882.57
)


20
(
6867.53
6852.25
6806.43
6730.06
6623.13
6485.66
6317.64
6119.06
5889.94
5630.27
5340.05
5019.27
4667.95
4286.07
3873.64
3430.66
1972.8
1938.07
1904.48
1871.94
)


20
(
7792.39
7774.22
7719.7
7628.85
7501.65
7338.11
7138.22
6902
6629.43
6320.51
5975.26
5593.66
5175.72
4721.43
4230.8
3703.82
1969.52
1928.21
1888.24
1849.53
)


20
(
8612.31
8591.53
8529.18
8425.28
8279.81
8092.78
7864.19
7594.03
7282.31
6929.03
6534.19
6097.78
5619.81
5100.28
4539.18
3936.52
1953.13
1905.89
1860.18
1815.91
)


20
(
9314.53
9291.46
9222.27
9106.96
8945.52
8737.95
8484.25
8184.43
7838.48
7446.4
7008.2
6523.87
5993.41
5416.82
4794.11
4125.26
1924.07
1871.64
1820.91
1771.79
)


20
(
9888.1
9863.12
9788.18
9663.27
9488.4
9263.56
8988.77
8664
8289.28
7864.59
7389.94
6865.32
6290.74
5666.19
4991.68
4267.2
1882.92
1826.13
1771.18
1717.97
)


20
(
10324.1
10297.6
10218.1
10085.5
9899.99
9661.44
9369.87
9025.29
8627.7
8177.1
7673.48
7116.85
6507.21
5844.55
5128.88
4360.2
1830.43
1770.17
1711.87
1655.41
)


20
(
10615.7
10588.1
10505.2
10367.2
10173.9
9925.36
9621.62
9262.66
8848.47
8379.06
7854.42
7274.56
6639.47
5949.15
5203.61
4402.84
1767.48
1704.71
1643.98
1585.16
)


20
(
10758.3
10730
10645.2
10503.7
10305.8
10051.2
9740.1
9372.41
8948.16
8467.34
7929.96
7336.01
6685.49
5978.4
5214.74
4394.52
1695.13
1630.83
1568.62
1508.38
)


20
(
10749.8
10721.3
10635.7
10493.2
10293.6
10037.1
9723.47
9352.87
8925.24
8440.6
7898.95
7300.27
6644.58
5931.87
5162.15
4335.4
1614.55
1549.74
1487.04
1426.31
)


20
(
10590.3
10562
10477.1
10335.7
10137.7
9883.19
9572.07
9204.38
8780.13
8299.31
7761.93
7167.97
6517.45
5810.36
5046.7
4226.48
1527.08
1462.78
1400.57
1340.33
)


20
(
10282.4
10254.8
10171.9
10033.9
9840.59
9592.08
9288.34
8929.37
8515.18
8045.77
7521.13
6941.26
6306.17
5615.85
4870.3
4069.53
1434.16
1371.38
1310.65
1251.83
)


20
(
9831.02
9804.52
9725
9592.47
9406.92
9168.37
8876.8
8532.21
8134.62
7684.01
7180.39
6623.75
6014.1
5351.44
4635.76
3867.07
1337.29
1277.02
1218.72
1162.26
)


20
(
9243.2
9218.22
9143.27
9018.36
8843.49
8618.65
8343.85
8019.08
7644.35
7219.65
6744.99
6220.37
5645.78
5021.22
4346.7
3622.22
1237.91
1181.12
1126.17
1072.96
)


20
(
8527.78
8504.71
8435.52
8320.2
8158.76
7951.18
7697.48
7397.65
7051.69
6659.61
6221.4
5737.06
5206.59
4629.99
4007.26
3338.41
1137.19
1084.75
1034.02
984.898
)


20
(
7694.91
7674.13
7611.78
7507.88
7362.4
7175.37
6946.77
6676.61
6364.88
6011.6
5616.74
5180.33
4702.35
4182.8
3621.7
3019.03
1035.61
988.362
942.655
898.389
)


20
(
6755.53
6737.36
6682.84
6591.98
6464.78
6301.23
6101.34
5865.1
5592.52
5283.6
4938.33
4556.72
4138.76
3684.46
3193.82
2666.83
932.481
891.166
851.199
812.492
)


20
(
5719.95
5704.68
5658.85
5582.47
5475.54
5338.06
5170.03
4971.45
4742.32
4482.63
4192.39
3871.61
3520.27
3138.37
2725.93
2282.94
825.024
790.295
756.697
724.16
)


20
(
4596.75
4584.61
4548.2
4487.5
4402.53
4293.29
4159.77
4001.97
3819.89
3613.54
3382.91
3128
2848.82
2545.35
2217.62
1865.6
707.101
679.504
652.807
626.952
)


20
(
3391.08
3382.27
3355.84
3311.79
3250.12
3170.84
3073.93
2959.41
2827.26
2677.5
2510.12
2325.12
2122.5
1902.26
1664.4
1408.92
568.127
548.099
528.723
509.958
)


20
(
2107.91
2102.57
2086.54
2059.83
2022.44
1974.36
1915.6
1846.16
1766.03
1675.22
1573.73
1461.55
1338.68
1205.14
1060.91
905.995
396.167
384.023
372.274
360.896
)


20
(
766.646
764.855
759.485
750.534
738.003
721.892
702.2
678.928
652.076
621.643
587.631
550.038
508.864
464.111
415.777
363.863
193.012
188.943
185.005
181.192
)


20
(
2460.34
2458.53
2453.11
2444.06
2431.39
2415.11
2395.21
2371.69
2344.55
2313.79
2279.41
2241.41
2199.79
2154.55
2105.69
2053.2
1880.48
1876.37
1872.39
1868.53
)


20
(
3662.55
3657.15
3640.94
3613.93
3576.12
3527.5
3468.08
3397.85
3316.82
3224.98
3122.34
3008.9
2884.65
2749.59
2603.73
2447.06
1931.45
1919.17
1907.28
1895.78
)


20
(
4823.99
4815.08
4788.35
4743.8
4681.44
4601.25
4503.25
4387.42
4253.78
4102.32
3933.03
3745.93
3541.01
3318.26
3077.7
2819.31
1968.95
1948.7
1929.1
1910.12
)


20
(
5926.74
5914.46
5877.64
5816.25
5730.32
5619.83
5484.79
5325.2
5141.05
4932.35
4699.09
4441.28
4158.92
3852
3520.53
3164.51
1992.81
1964.89
1937.89
1911.74
)


20
(
6953.74
6938.29
6891.94
6814.69
6706.54
6567.5
6397.55
6196.7
5964.95
5702.31
5408.76
5084.31
4728.96
4342.71
3925.56
3477.51
2002.95
1967.82
1933.84
1900.93
)


20
(
7889.05
7870.67
7815.53
7723.64
7594.98
7429.57
7227.39
6988.46
6712.77
6400.32
6051.11
5665.14
5242.41
4782.91
4286.66
3753.65
1999.48
1957.7
1917.27
1878.12
)


20
(
8718.14
8697.12
8634.07
8528.97
8381.84
8192.66
7961.45
7688.2
7372.92
7015.59
6616.22
6174.82
5691.37
5165.89
4598.36
3988.8
1982.69
1934.9
1888.67
1843.9
)


20
(
9428.11
9404.78
9334.8
9218.17
9054.87
8844.93
8588.32
8285.07
7935.16
7538.59
7095.36
6605.49
6068.95
5485.76
4855.91
4179.41
1953
1899.97
1848.66
1798.97
)


20
(
10007.9
9982.63
9906.82
9780.48
9603.61
9376.2
9098.25
8769.77
8390.75
7961.2
7481.11
6950.48
6369.32
5737.62
5055.38
4322.61
1911.01
1853.57
1797.99
1744.17
)


20
(
10448.4
10421.6
10341.2
10207.1
10019.5
9778.2
9483.29
9134.76
8732.62
8276.85
7767.47
7204.46
6587.83
5917.59
5193.72
4416.23
1857.49
1796.53
1737.57
1680.46
)


20
(
10742.9
10714.9
10631.1
10491.5
10296
10044.6
9737.43
9374.35
8955.42
8480.63
7949.98
7363.48
6721.12
6022.89
5268.81
4458.87
1793.32
1729.83
1668.4
1608.91
)


20
(
10886.6
10858
10772.1
10629.1
10428.8
10171.4
9856.7
9484.81
9055.7
8569.37
8025.83
7425.08
6767.1
6051.92
5279.51
4449.89
1719.58
1654.54
1591.63
1530.69
)


20
(
10877.3
10848.5
10762
10617.8
10416
10156.5
9839.28
9464.42
9031.9
8541.71
7993.85
7388.32
6725.12
6004.24
5225.7
4389.49
1637.47
1571.92
1508.49
1447.08
)


20
(
10715.3
10686.7
10600.9
10457.9
10257.6
10000.2
9685.47
9313.58
8884.46
8398.14
7854.59
7253.84
6595.86
5880.67
5108.27
4278.65
1548.33
1483.29
1420.37
1359.44
)


20
(
10403.2
10375.3
10291.5
10151.9
9956.36
9705
9397.78
9034.7
8615.77
8140.97
7610.32
7023.81
6381.45
5683.22
4929.13
4119.19
1453.63
1390.13
1328.7
1269.21
)


20
(
9945.94
9919.13
9838.7
9704.65
9516.98
9275.69
8980.78
8632.25
8230.1
7774.33
7264.94
6701.92
6085.29
5415.04
4691.16
3913.67
1354.9
1293.95
1234.98
1177.88
)


20
(
9350.64
9325.37
9249.56
9123.22
8946.35
8718.93
8440.98
8112.49
7733.47
7303.91
6823.81
6293.18
5712.01
5080.3
4398.05
3665.27
1253.65
1196.2
1140.62
1086.8
)


20
(
8626.32
8602.99
8533.01
8416.37
8253.07
8043.12
7786.51
7483.25
7133.33
6736.75
6293.52
5803.63
5267.09
4683.88
4054.03
3377.51
1151.07
1098.03
1046.73
997.037
)


20
(
7783.31
7762.29
7699.23
7594.14
7447
7257.82
7026.6
6753.35
6438.05
6080.72
5681.34
5239.93
4756.47
4230.98
3663.44
3053.87
1047.73
999.942
953.711
908.938
)


20
(
6832.72
6814.34
6759.2
6667.3
6538.64
6373.22
6171.04
5932.1
5656.39
5343.93
4994.71
4608.72
4185.98
3726.47
3230.21
2697.18
942.969
901.181
860.756
821.605
)


20
(
5785.01
5769.56
5723.21
5645.95
5537.8
5398.75
5228.79
5027.93
4796.17
4533.51
4239.95
3915.49
3560.13
3173.86
2756.69
2308.62
834.009
798.882
764.9
731.99
)


20
(
4648.84
4636.56
4599.73
4538.34
4452.4
4341.9
4206.85
4047.24
3863.08
3654.36
3421.09
3163.26
2880.88
2573.94
2242.45
1886.4
714.633
686.72
659.717
633.565
)


20
(
3429.32
3420.41
3393.68
3349.13
3286.76
3206.56
3108.55
2992.71
2859.05
2707.58
2538.28
2351.16
2146.22
1923.45
1682.87
1424.46
574.04
553.782
534.184
515.205
)


20
(
2131.34
2125.94
2109.73
2082.72
2044.89
1996.27
1936.83
1866.6
1785.55
1693.7
1591.04
1477.58
1353.31
1218.23
1072.35
915.662
399.995
387.711
375.828
364.319
)


20
(
774.509
772.699
767.267
758.213
745.539
729.243
709.326
685.787
658.627
627.846
593.444
555.42
513.775
468.509
419.622
367.113
194.306
190.189
186.207
182.35
)


20
(
2419.58
2417.79
2412.44
2403.51
2391.01
2374.94
2355.3
2332.08
2305.3
2274.94
2241.01
2203.51
2162.44
2117.79
2069.57
2017.78
1847.32
1843.26
1839.34
1835.53
)


20
(
3605.82
3600.48
3584.49
3557.84
3520.52
3472.54
3413.9
3344.59
3264.62
3173.99
3072.7
2960.74
2838.12
2704.84
2560.89
2406.28
1897.44
1885.31
1873.59
1862.23
)


20
(
4751.91
4743.12
4716.74
4672.78
4611.23
4532.1
4435.38
4321.08
4189.19
4039.71
3872.65
3688.01
3485.77
3265.95
3028.55
2773.55
1934.36
1914.36
1895.03
1876.3
)


20
(
5840.18
5828.07
5791.72
5731.15
5646.34
5537.3
5404.03
5246.54
5064.81
4858.84
4628.65
4374.23
4095.57
3792.68
3465.56
3114.21
1957.89
1930.35
1903.7
1877.89
)


20
(
6853.79
6838.54
6792.8
6716.57
6609.84
6472.62
6304.9
6106.69
5877.98
5618.78
5329.09
5008.9
4658.22
4277.04
3865.36
3423.19
1967.99
1933.32
1899.79
1867.31
)


20
(
7777
7758.86
7704.45
7613.76
7486.79
7323.55
7124.03
6888.23
6616.16
6307.81
5963.18
5582.28
5165.1
4711.64
4221.9
3695.89
1964.75
1923.51
1883.62
1844.98
)


20
(
8595.47
8574.73
8512.5
8408.79
8263.58
8076.89
7848.72
7579.06
7267.91
6915.27
6521.15
6085.54
5608.44
5089.85
4529.78
3928.21
1948.45
1901.29
1855.66
1811.48
)


20
(
9296.48
9273.46
9204.39
9089.29
8928.14
8720.95
8467.71
8168.44
7823.12
7431.76
6994.35
6510.91
5981.41
5405.88
4784.3
4116.68
1919.5
1867.16
1816.53
1767.49
)


20
(
9869.08
9844.14
9769.34
9644.66
9470.1
9245.68
8971.38
8647.21
8273.17
7849.26
7375.47
6851.81
6278.27
5654.87
4981.59
4258.43
1878.5
1821.81
1766.96
1713.85
)


20
(
10304.3
10277.9
10198.5
10066.2
9881.03
9642.91
9351.87
9007.92
8611.06
8161.27
7658.58
7102.96
6494.43
5832.98
5118.62
4351.34
1826.18
1766.03
1707.84
1651.48
)


20
(
10595.5
10567.9
10485.2
10347.4
10154.5
9906.43
9603.25
9244.94
8831.51
8362.96
7839.28
7260.47
6626.54
5937.48
5193.3
4393.99
1763.44
1700.78
1640.16
1581.45
)


20
(
10738
10709.7
10625
10483.9
10286.2
10032.2
9721.61
9354.6
8931.12
8451.18
7914.77
7321.9
6672.57
5966.77
5204.51
4385.78
1691.32
1627.13
1565.04
1504.9
)


20
(
10729.5
10701.1
10615.7
10473.4
10274.2
10018.1
9705.12
9335.19
8908.35
8424.59
7883.92
7286.34
6631.84
5920.43
5152.11
4326.88
1610.99
1546.29
1483.71
1423.1
)


20
(
10570.4
10542.2
10457.5
10316.4
10118.7
9864.65
9554.1
9187.09
8763.61
8283.67
7747.26
7154.39
6505.05
5799.25
5036.99
4218.26
1523.79
1459.6
1397.51
1337.37
)


20
(
10263.2
10235.7
10153
10015.2
9822.25
9574.19
9271
8912.69
8499.26
8030.7
7507.02
6928.21
6294.27
5605.21
4861.02
4061.71
1431.15
1368.48
1307.86
1249.15
)


20
(
9812.82
9786.36
9706.99
9574.7
9389.49
9151.37
8860.33
8516.38
8119.5
7669.72
7167.01
6611.39
6002.86
5341.4
4627.03
3859.75
1334.57
1274.42
1216.23
1159.87
)


20
(
9226.18
9201.25
9126.44
9001.75
8827.2
8602.77
8328.47
8004.29
7630.25
7206.32
6732.53
6208.86
5635.32
5011.91
4338.62
3615.45
1235.49
1178.8
1123.95
1070.84
)


20
(
8512.17
8489.15
8420.08
8304.97
8143.82
7936.63
7683.39
7384.1
7038.78
6647.41
6210
5726.54
5197.04
4621.49
3999.9
3332.27
1135.06
1082.72
1032.08
983.048
)


20
(
7680.91
7660.17
7597.94
7494.22
7349.01
7162.32
6934.14
6664.47
6353.31
6000.67
5606.54
5170.92
4693.81
4175.21
3615.13
3013.56
1033.76
986.596
940.972
896.787
)


20
(
6743.31
6725.17
6670.76
6580.06
6453.09
6289.84
6090.31
5854.51
5582.43
5274.07
4929.43
4548.51
4131.32
3677.85
3188.09
2662.07
930.884
889.645
849.75
811.114
)


20
(
5709.66
5694.42
5648.67
5572.44
5465.7
5328.47
5160.75
4962.53
4733.81
4474.6
4184.89
3864.69
3513.99
3132.8
2721.1
2278.92
823.664
788.998
755.462
722.984
)


20
(
4588.52
4576.41
4540.06
4479.48
4394.66
4285.62
4152.34
3994.83
3813.08
3607.11
3376.9
3122.46
2843.78
2540.87
2213.73
1862.36
705.972
678.426
651.777
625.969
)


20
(
3385.05
3376.26
3349.88
3305.91
3244.36
3165.22
3068.49
2954.17
2822.27
2672.78
2505.7
2321.04
2118.79
1898.95
1661.52
1406.51
567.253
547.261
527.921
509.19
)


20
(
2104.22
2098.89
2082.9
2056.24
2018.91
1970.92
1912.27
1842.95
1762.97
1672.33
1571.02
1459.04
1336.4
1203.1
1059.13
904.504
395.607
383.484
371.757
360.399
)


20
(
765.402
763.615
758.254
749.32
736.812
720.73
701.074
677.844
651.041
620.664
586.713
549.189
508.091
463.419
415.173
363.354
192.815
188.753
184.823
181.016
)


20
(
2452.42
2450.61
2445.2
2436.18
2423.54
2407.3
2387.45
2363.99
2336.92
2306.24
2271.95
2234.05
2192.54
2147.42
2098.68
2046.34
1874.07
1869.96
1865.99
1862.15
)


20
(
3651.43
3646.05
3629.88
3602.94
3565.23
3516.74
3457.47
3387.42
3306.6
3215.01
3112.63
2999.48
2875.56
2740.85
2595.37
2439.11
1924.84
1912.59
1900.74
1889.27
)


20
(
4809.81
4800.92
4774.26
4729.83
4667.63
4587.65
4489.9
4374.38
4241.08
4090.02
3921.17
3734.56
3530.17
3308.01
3068.07
2810.36
1962.21
1942.01
1922.46
1903.54
)


20
(
5909.66
5897.42
5860.69
5799.47
5713.75
5603.55
5468.87
5309.69
5126.02
4917.86
4685.22
4428.08
4146.45
3840.34
3509.73
3154.63
1985.98
1958.15
1931.21
1905.13
)


20
(
6933.99
6918.58
6872.35
6795.3
6687.43
6548.75
6379.24
6178.92
5947.78
5685.82
5393.03
5069.43
4715.01
4329.77
3913.7
3466.82
1996.1
1961.06
1927.17
1894.35
)


20
(
7866.88
7848.54
7793.55
7701.89
7573.57
7408.59
7206.94
6968.63
6693.66
6382.02
6033.72
5648.76
5227.13
4768.84
4273.88
3742.26
1992.66
1950.99
1910.67
1871.62
)


20
(
8693.84
8672.88
8609.99
8505.16
8358.41
8169.73
7939.13
7666.59
7352.12
6995.73
6597.4
6157.15
5674.96
5150.85
4584.8
3976.83
1975.95
1928.29
1882.18
1837.52
)


20
(
9402.02
9378.75
9308.95
9192.62
9029.75
8820.35
8564.42
8261.95
7912.95
7517.42
7075.35
6586.75
6051.61
5469.94
4841.73
4166.99
1946.39
1893.5
1842.32
1792.76
)


20
(
9980.36
9955.16
9879.55
9753.54
9577.13
9350.31
9073.09
8745.46
8367.43
7939
7460.16
6930.92
6351.27
5721.22
5040.76
4309.89
1904.59
1847.29
1791.86
1738.18
)


20
(
10419.8
10393.1
10312.9
10179.2
9992.01
9751.35
9457.21
9109.59
8708.5
8253.92
7745.86
7184.32
6569.3
5900.8
5178.82
4403.36
1851.29
1790.49
1731.68
1674.72
)


20
(
10713.6
10685.7
10602.2
10462.9
10267.9
10017.2
9710.79
9348.66
8930.82
8457.27
7928.01
7343.03
6702.34
6005.94
5253.82
4445.99
1787.39
1724.06
1662.8
1603.46
)


20
(
10857
10828.5
10742.9
10600.3
10400.5
10143.7
9829.87
9458.95
9030.95
8545.9
8003.77
7404.58
6748.33
6035
5264.61
4437.16
1713.97
1649.1
1586.34
1525.56
)


20
(
10848
10819.2
10732.9
10589.1
10387.8
10129
9812.62
9438.75
9007.35
8518.44
7972.01
7368.05
6706.58
5987.59
5211.07
4377.04
1632.2
1566.81
1503.56
1442.3
)


20
(
10686.5
10658
10572.4
10429.8
10230
9973.23
9659.36
9288.44
8860.44
8375.39
7833.26
7234.07
6577.81
5864.49
5094.09
4266.63
1543.44
1478.57
1415.81
1355.03
)


20
(
10375.4
10347.5
10264
10124.7
9929.7
9679
9372.58
9010.45
8592.61
8119.05
7589.78
7004.8
6364.11
5667.7
4915.58
4107.75
1449.14
1385.81
1324.54
1265.2
)


20
(
9919.47
9892.73
9812.51
9678.81
9491.63
9250.97
8956.83
8609.21
8208.11
7753.53
7245.46
6683.92
6068.89
5400.39
4678.4
3902.93
1350.84
1290.04
1231.23
1174.27
)


20
(
9325.89
9300.69
9225.09
9099.07
8922.66
8695.84
8418.61
8090.98
7712.94
7284.5
6805.66
6276.41
5696.75
5066.69
4386.22
3655.35
1250.01
1192.72
1137.29
1083.6
)


20
(
8603.62
8580.36
8510.55
8394.22
8231.35
8021.94
7766.01
7463.53
7114.52
6718.98
6276.91
5788.29
5253.15
4671.47
4043.25
3368.5
1147.86
1094.96
1043.79
994.231
)


20
(
7762.95
7741.99
7679.09
7574.27
7427.51
7238.83
7008.22
6735.67
6421.2
6064.79
5666.46
5226.2
4744
4219.88
3653.82
3045.83
1044.93
997.265
951.154
906.498
)


20
(
6814.94
6796.61
6741.61
6649.95
6521.63
6356.64
6154.98
5916.66
5641.68
5330.03
4981.72
4596.74
4175.1
3716.79
3221.82
2690.18
940.544
898.865
858.545
819.497
)


20
(
5770.02
5754.61
5708.38
5631.33
5523.46
5384.77
5215.25
5014.92
4783.77
4521.79
4228.99
3905.38
3550.94
3165.68
2749.6
2302.7
831.931
796.896
763.002
730.178
)


20
(
4636.84
4624.59
4587.85
4526.63
4440.91
4330.7
4196
4036.81
3853.13
3644.96
3412.29
3155.14
2873.49
2567.35
2236.72
1881.6
712.89
685.049
658.116
632.033
)


20
(
3420.51
3411.62
3384.96
3340.53
3278.32
3198.33
3100.57
2985.04
2851.73
2700.64
2531.79
2345.15
2140.75
1918.56
1678.61
1420.88
572.67
552.465
532.918
513.988
)


20
(
2125.94
2120.55
2104.39
2077.44
2039.72
1991.22
1931.94
1861.88
1781.05
1689.44
1587.05
1473.88
1349.93
1215.21
1069.71
913.43
399.107
386.855
375.003
363.524
)


20
(
772.698
770.892
765.474
756.444
743.803
727.549
707.684
684.207
657.118
626.417
592.104
554.18
512.644
467.495
418.735
366.364
194.007
189.901
185.929
182.082
)


20
(
2452.42
2450.61
2445.2
2436.18
2423.54
2407.3
2387.45
2363.99
2336.92
2306.24
2271.95
2234.05
2192.54
2147.42
2098.68
2046.34
1874.07
1869.96
1865.99
1862.15
)


20
(
3651.43
3646.05
3629.88
3602.94
3565.23
3516.74
3457.47
3387.42
3306.6
3215.01
3112.63
2999.48
2875.56
2740.85
2595.37
2439.11
1924.84
1912.59
1900.74
1889.27
)


20
(
4809.81
4800.92
4774.26
4729.83
4667.63
4587.65
4489.9
4374.38
4241.08
4090.02
3921.18
3734.56
3530.17
3308.01
3068.07
2810.36
1962.21
1942.01
1922.47
1903.54
)


20
(
5909.67
5897.42
5860.69
5799.47
5713.76
5603.56
5468.87
5309.69
5126.02
4917.86
4685.22
4428.08
4146.45
3840.34
3509.73
3154.63
1985.98
1958.15
1931.21
1905.13
)


20
(
6933.98
6918.58
6872.35
6795.3
6687.43
6548.75
6379.24
6178.92
5947.78
5685.82
5393.03
5069.43
4715.01
4329.76
3913.7
3466.82
1996.1
1961.06
1927.17
1894.35
)


20
(
7866.88
7848.54
7793.55
7701.89
7573.57
7408.59
7206.94
6968.63
6693.66
6382.02
6033.72
5648.76
5227.13
4768.84
4273.88
3742.26
1992.66
1950.99
1910.67
1871.62
)


20
(
8693.84
8672.88
8609.99
8505.16
8358.41
8169.73
7939.13
7666.59
7352.12
6995.73
6597.4
6157.15
5674.96
5150.85
4584.8
3976.83
1975.95
1928.29
1882.18
1837.52
)


20
(
9402.02
9378.75
9308.95
9192.62
9029.75
8820.35
8564.42
8261.95
7912.95
7517.42
7075.35
6586.75
6051.61
5469.94
4841.73
4166.99
1946.39
1893.5
1842.32
1792.76
)


20
(
9980.36
9955.16
9879.55
9753.54
9577.13
9350.31
9073.09
8745.46
8367.43
7939
7460.16
6930.92
6351.27
5721.22
5040.76
4309.89
1904.59
1847.29
1791.86
1738.18
)


20
(
10419.8
10393.1
10312.9
10179.2
9992
9751.35
9457.21
9109.59
8708.5
8253.92
7745.86
7184.32
6569.3
5900.8
5178.82
4403.36
1851.29
1790.49
1731.68
1674.72
)


20
(
10713.6
10685.7
10602.2
10462.9
10267.9
10017.2
9710.79
9348.66
8930.82
8457.27
7928.01
7343.03
6702.34
6005.94
5253.82
4445.99
1787.39
1724.06
1662.8
1603.46
)


20
(
10857
10828.5
10742.9
10600.3
10400.5
10143.7
9829.87
9458.94
9030.95
8545.9
8003.77
7404.58
6748.33
6035
5264.61
4437.16
1713.97
1649.1
1586.34
1525.56
)


20
(
10848
10819.2
10732.9
10589.1
10387.8
10129
9812.62
9438.75
9007.35
8518.44
7972.01
7368.05
6706.58
5987.59
5211.07
4377.04
1632.2
1566.81
1503.56
1442.3
)


20
(
10686.5
10658
10572.4
10429.8
10230
9973.23
9659.36
9288.44
8860.44
8375.38
7833.26
7234.07
6577.81
5864.48
5094.09
4266.63
1543.44
1478.57
1415.81
1355.03
)


20
(
10375.4
10347.5
10264
10124.7
9929.7
9678.99
9372.58
9010.45
8592.61
8119.05
7589.78
7004.8
6364.11
5667.7
4915.58
4107.75
1449.14
1385.81
1324.54
1265.2
)


20
(
9919.47
9892.73
9812.51
9678.81
9491.63
9250.97
8956.83
8609.21
8208.11
7753.53
7245.46
6683.92
6068.89
5400.39
4678.4
3902.93
1350.84
1290.04
1231.23
1174.27
)


20
(
9325.89
9300.69
9225.08
9099.07
8922.66
8695.84
8418.61
8090.98
7712.94
7284.5
6805.66
6276.41
5696.75
5066.69
4386.22
3655.35
1250.01
1192.72
1137.29
1083.6
)


20
(
8603.62
8580.35
8510.55
8394.22
8231.35
8021.94
7766
7463.53
7114.52
6718.98
6276.9
5788.29
5253.15
4671.47
4043.25
3368.5
1147.86
1094.96
1043.79
994.231
)


20
(
7762.95
7741.99
7679.09
7574.27
7427.51
7238.83
7008.22
6735.67
6421.2
6064.79
5666.46
5226.2
4744
4219.88
3653.82
3045.83
1044.93
997.265
951.154
906.498
)


20
(
6814.94
6796.61
6741.61
6649.95
6521.63
6356.64
6154.98
5916.66
5641.68
5330.03
4981.72
4596.74
4175.1
3716.79
3221.82
2690.18
940.544
898.865
858.545
819.497
)


20
(
5770.02
5754.61
5708.38
5631.33
5523.46
5384.77
5215.25
5014.92
4783.77
4521.79
4228.99
3905.38
3550.94
3165.68
2749.6
2302.7
831.931
796.896
763.002
730.178
)


20
(
4636.84
4624.59
4587.86
4526.63
4440.91
4330.7
4196
4036.81
3853.13
3644.96
3412.29
3155.14
2873.49
2567.35
2236.72
1881.6
712.89
685.05
658.117
632.033
)


20
(
3420.51
3411.62
3384.96
3340.53
3278.32
3198.33
3100.57
2985.04
2851.73
2700.64
2531.79
2345.15
2140.75
1918.56
1678.61
1420.88
572.67
552.465
532.918
513.988
)


20
(
2125.94
2120.55
2104.39
2077.44
2039.72
1991.22
1931.94
1861.88
1781.05
1689.44
1587.05
1473.88
1349.93
1215.21
1069.71
913.43
399.107
386.855
375.003
363.524
)


20
(
772.698
770.892
765.474
756.444
743.803
727.549
707.684
684.207
657.118
626.417
592.104
554.18
512.644
467.495
418.735
366.364
194.007
189.901
185.929
182.082
)


20
(
2419.58
2417.79
2412.44
2403.51
2391.01
2374.94
2355.3
2332.09
2305.3
2274.94
2241.01
2203.51
2162.44
2117.79
2069.57
2017.78
1847.33
1843.26
1839.34
1835.53
)


20
(
3605.82
3600.49
3584.49
3557.84
3520.52
3472.54
3413.9
3344.59
3264.62
3173.99
3072.7
2960.74
2838.12
2704.84
2560.89
2406.28
1897.44
1885.32
1873.59
1862.23
)


20
(
4751.91
4743.12
4716.74
4672.78
4611.23
4532.1
4435.38
4321.08
4189.19
4039.72
3872.65
3688.01
3485.77
3265.95
3028.55
2773.55
1934.36
1914.37
1895.03
1876.3
)


20
(
5840.19
5828.07
5791.72
5731.15
5646.34
5537.3
5404.04
5246.54
5064.81
4858.85
4628.65
4374.23
4095.57
3792.69
3465.56
3114.21
1957.89
1930.35
1903.7
1877.89
)


20
(
6853.79
6838.54
6792.8
6716.57
6609.84
6472.62
6304.9
6106.69
5877.98
5618.78
5329.09
5008.9
4658.22
4277.04
3865.36
3423.19
1967.99
1933.32
1899.79
1867.31
)


20
(
7777
7758.86
7704.45
7613.76
7486.79
7323.55
7124.03
6888.23
6616.16
6307.81
5963.18
5582.28
5165.1
4711.64
4221.9
3695.89
1964.75
1923.52
1883.62
1844.99
)


20
(
8595.48
8574.73
8512.5
8408.79
8263.59
8076.9
7848.72
7579.06
7267.91
6915.27
6521.15
6085.54
5608.44
5089.85
4529.78
3928.22
1948.45
1901.29
1855.66
1811.48
)


20
(
9296.48
9273.46
9204.39
9089.29
8928.14
8720.95
8467.72
8168.44
7823.12
7431.76
6994.35
6510.91
5981.42
5405.88
4784.3
4116.68
1919.5
1867.16
1816.53
1767.49
)


20
(
9869.08
9844.15
9769.34
9644.66
9470.1
9245.68
8971.38
8647.21
8273.17
7849.26
7375.47
6851.81
6278.28
5654.87
4981.59
4258.43
1878.5
1821.81
1766.96
1713.85
)


20
(
10304.4
10277.9
10198.5
10066.2
9881.03
9642.91
9351.87
9007.92
8611.06
8161.27
7658.58
7102.96
6494.43
5832.98
5118.62
4351.34
1826.18
1766.03
1707.84
1651.48
)


20
(
10595.5
10567.9
10485.2
10347.4
10154.5
9906.44
9603.25
9244.95
8831.51
8362.96
7839.28
7260.47
6626.54
5937.48
5193.3
4394
1763.44
1700.78
1640.16
1581.45
)


20
(
10738
10709.7
10625
10483.9
10286.2
10032.2
9721.61
9354.6
8931.12
8451.18
7914.77
7321.9
6672.57
5966.77
5204.51
4385.78
1691.32
1627.13
1565.04
1504.9
)


20
(
10729.5
10701.1
10615.7
10473.4
10274.2
10018.1
9705.12
9335.19
8908.35
8424.59
7883.92
7286.34
6631.84
5920.43
5152.11
4326.88
1610.99
1546.3
1483.71
1423.1
)


20
(
10570.4
10542.2
10457.5
10316.4
10118.7
9864.65
9554.1
9187.09
8763.61
8283.67
7747.26
7154.39
6505.06
5799.25
5036.99
4218.26
1523.79
1459.6
1397.51
1337.37
)


20
(
10263.2
10235.7
10153
10015.2
9822.25
9574.19
9271
8912.69
8499.26
8030.7
7507.02
6928.21
6294.27
5605.21
4861.03
4061.71
1431.15
1368.48
1307.86
1249.16
)


20
(
9812.82
9786.36
9706.99
9574.7
9389.49
9151.37
8860.33
8516.38
8119.51
7669.72
7167.02
6611.4
6002.86
5341.4
4627.03
3859.75
1334.57
1274.42
1216.23
1159.87
)


20
(
9226.18
9201.25
9126.44
9001.76
8827.2
8602.77
8328.47
8004.3
7630.25
7206.33
6732.53
6208.86
5635.32
5011.91
4338.62
3615.45
1235.5
1178.8
1123.96
1070.84
)


20
(
8512.17
8489.15
8420.08
8304.97
8143.82
7936.63
7683.39
7384.1
7038.78
6647.41
6210
5726.54
5197.04
4621.49
3999.9
3332.27
1135.06
1082.72
1032.09
983.049
)


20
(
7680.91
7660.17
7597.94
7494.22
7349.01
7162.32
6934.14
6664.47
6353.31
6000.67
5606.54
5170.92
4693.81
4175.21
3615.13
3013.56
1033.76
986.597
940.973
896.788
)


20
(
6743.31
6725.17
6670.76
6580.06
6453.09
6289.84
6090.32
5854.51
5582.43
5274.07
4929.43
4548.51
4131.32
3677.85
3188.1
2662.07
930.884
889.646
849.751
811.114
)


20
(
5709.66
5694.42
5648.67
5572.44
5465.7
5328.47
5160.75
4962.53
4733.81
4474.6
4184.89
3864.69
3513.99
3132.8
2721.1
2278.92
823.665
788.999
755.463
722.985
)


20
(
4588.53
4576.41
4540.06
4479.48
4394.67
4285.62
4152.34
3994.83
3813.09
3607.11
3376.9
3122.46
2843.78
2540.87
2213.73
1862.36
705.973
678.427
651.778
625.97
)


20
(
3385.05
3376.26
3349.88
3305.91
3244.36
3165.22
3068.49
2954.17
2822.27
2672.78
2505.7
2321.04
2118.79
1898.95
1661.53
1406.51
567.254
547.262
527.922
509.191
)


20
(
2104.22
2098.89
2082.9
2056.24
2018.91
1970.92
1912.27
1842.95
1762.97
1672.33
1571.02
1459.04
1336.4
1203.1
1059.14
904.504
395.607
383.485
371.757
360.4
)


20
(
765.402
763.615
758.255
749.32
736.812
720.73
701.074
677.845
651.041
620.664
586.714
549.189
508.091
463.419
415.174
363.354
192.815
188.753
184.823
181.017
)


20
(
2460.34
2458.53
2453.11
2444.06
2431.39
2415.11
2395.21
2371.69
2344.55
2313.79
2279.41
2241.41
2199.79
2154.55
2105.69
2053.2
1880.48
1876.37
1872.39
1868.53
)


20
(
3662.55
3657.15
3640.94
3613.93
3576.12
3527.5
3468.08
3397.85
3316.82
3224.98
3122.34
3008.9
2884.65
2749.59
2603.73
2447.06
1931.45
1919.17
1907.28
1895.78
)


20
(
4823.99
4815.08
4788.35
4743.8
4681.44
4601.25
4503.25
4387.42
4253.78
4102.32
3933.03
3745.93
3541.01
3318.26
3077.7
2819.31
1968.95
1948.7
1929.1
1910.12
)


20
(
5926.74
5914.47
5877.64
5816.25
5730.32
5619.83
5484.79
5325.2
5141.05
4932.35
4699.09
4441.29
4158.92
3852.01
3520.53
3164.51
1992.81
1964.89
1937.89
1911.74
)


20
(
6953.74
6938.29
6891.94
6814.69
6706.54
6567.5
6397.55
6196.7
5964.95
5702.31
5408.76
5084.31
4728.96
4342.71
3925.56
3477.51
2002.95
1967.82
1933.84
1900.93
)


20
(
7889.05
7870.67
7815.53
7723.64
7594.98
7429.57
7227.39
6988.46
6712.77
6400.32
6051.11
5665.14
5242.41
4782.91
4286.66
3753.65
1999.48
1957.7
1917.27
1878.12
)


20
(
8718.14
8697.12
8634.07
8528.97
8381.84
8192.66
7961.45
7688.2
7372.92
7015.59
6616.22
6174.82
5691.37
5165.89
4598.36
3988.8
1982.69
1934.9
1888.67
1843.9
)


20
(
9428.11
9404.78
9334.8
9218.16
9054.87
8844.93
8588.32
8285.07
7935.15
7538.59
7095.36
6605.48
6068.95
5485.76
4855.91
4179.41
1953
1899.97
1848.66
1798.97
)


20
(
10007.9
9982.63
9906.82
9780.48
9603.61
9376.2
9098.25
8769.77
8390.75
7961.2
7481.11
6950.48
6369.32
5737.62
5055.38
4322.61
1911.01
1853.57
1797.99
1744.17
)


20
(
10448.4
10421.6
10341.2
10207.2
10019.5
9778.2
9483.29
9134.76
8732.62
8276.85
7767.47
7204.46
6587.83
5917.59
5193.72
4416.23
1857.49
1796.53
1737.57
1680.46
)


20
(
10742.9
10714.9
10631.1
10491.5
10296
10044.6
9737.43
9374.35
8955.42
8480.63
7949.98
7363.48
6721.11
6022.89
5268.81
4458.87
1793.32
1729.83
1668.4
1608.91
)


20
(
10886.6
10858
10772.1
10629.1
10428.8
10171.4
9856.7
9484.81
9055.7
8569.37
8025.83
7425.08
6767.1
6051.92
5279.51
4449.89
1719.58
1654.54
1591.62
1530.69
)


20
(
10877.3
10848.5
10762
10617.8
10416
10156.5
9839.28
9464.42
9031.9
8541.71
7993.85
7388.32
6725.12
6004.24
5225.7
4389.49
1637.47
1571.91
1508.49
1447.08
)


20
(
10715.3
10686.7
10600.9
10457.9
10257.6
10000.2
9685.47
9313.57
8884.46
8398.14
7854.59
7253.84
6595.86
5880.67
5108.27
4278.65
1548.33
1483.29
1420.37
1359.44
)


20
(
10403.2
10375.3
10291.5
10151.9
9956.36
9705
9397.78
9034.7
8615.77
8140.97
7610.32
7023.81
6381.44
5683.22
4929.13
4119.19
1453.63
1390.13
1328.7
1269.21
)


20
(
9945.94
9919.13
9838.7
9704.65
9516.98
9275.69
8980.78
8632.25
8230.1
7774.33
7264.94
6701.92
6085.29
5415.04
4691.17
3913.67
1354.9
1293.95
1234.98
1177.88
)


20
(
9350.64
9325.37
9249.56
9123.22
8946.35
8718.93
8440.98
8112.49
7733.47
7303.91
6823.81
6293.18
5712.01
5080.3
4398.05
3665.27
1253.65
1196.2
1140.62
1086.8
)


20
(
8626.32
8602.99
8533.01
8416.37
8253.07
8043.12
7786.51
7483.25
7133.33
6736.75
6293.52
5803.63
5267.09
4683.88
4054.02
3377.51
1151.07
1098.03
1046.73
997.037
)


20
(
7783.31
7762.29
7699.23
7594.14
7447
7257.82
7026.6
6753.35
6438.05
6080.72
5681.34
5239.93
4756.47
4230.98
3663.44
3053.87
1047.73
999.942
953.711
908.938
)


20
(
6832.72
6814.34
6759.2
6667.3
6538.64
6373.22
6171.04
5932.1
5656.39
5343.93
4994.71
4608.72
4185.98
3726.47
3230.21
2697.18
942.969
901.181
860.756
821.605
)


20
(
5785.01
5769.56
5723.21
5645.95
5537.8
5398.75
5228.79
5027.93
4796.17
4533.51
4239.95
3915.49
3560.13
3173.86
2756.69
2308.62
834.009
798.882
764.9
731.99
)


20
(
4648.84
4636.56
4599.73
4538.34
4452.4
4341.9
4206.85
4047.24
3863.08
3654.36
3421.09
3163.26
2880.88
2573.94
2242.45
1886.4
714.633
686.72
659.717
633.565
)


20
(
3429.33
3420.42
3393.68
3349.13
3286.76
3206.56
3108.55
2992.71
2859.06
2707.58
2538.28
2351.16
2146.22
1923.45
1682.87
1424.46
574.04
553.782
534.184
515.205
)


20
(
2131.34
2125.94
2109.73
2082.72
2044.89
1996.27
1936.83
1866.6
1785.55
1693.7
1591.04
1477.58
1353.31
1218.23
1072.35
915.662
399.995
387.711
375.828
364.319
)


20
(