/*--------------------------------*- C++ -*----------------------------------*\
| =========                 |                                                 |
| \\      /  F ield         | OpenFOAM: The Open Source CFD Toolbox           |
|  \\    /   O peration     | Version:  2212                                  |
|   \\  /    A nd           | Website:  www.openfoam.com                      |
|    \\/     M anipulation  |                                                 |
\*---------------------------------------------------------------------------*/
FoamFile
{
    version     2.0;
    format      ascii;
    arch        "LSB;label=32;scalar=64";
    class       surfaceScalarField;
    location    "94/fluidRegion";
    object      alphaPhi;
}
// * * * * * * * * * * * * * * * * * * * * * * * * * * * * * * * * * * * * * //

dimensions      [0 3 -1 0 0 0 0];

oriented        oriented;

internalField   nonuniform List<scalar> 
661
(
-0.000539006
-1.09088e-12
-0.000538944
-8.82013e-13
-0.000538881
-2.18079e-14
-0.000538822
8.55453e-13
-0.000538772
1.3791e-12
-0.000538734
1.37785e-12
-0.000538703
8.71865e-13
-0.000538675
4.32361e-14
-0.000538644
-8.2706e-13
-0.000538605
-1.43705e-12
-0.000538555
-1.58315e-12
-0.000538495
-1.21834e-12
-0.000538429
-4.6992e-13
-0.000538364
4.28416e-13
-0.000538304
1.20033e-12
-0.000538252
1.62438e-12
-0.000538209
1.60342e-12
-0.000538174
1.16656e-12
-0.000538142
4.75929e-13
-0.00053811
-2.49015e-13
-0.000538075
-8.01011e-13
-0.000538035
-1.04814e-12
-0.000537993
-9.27159e-13
-0.000537948
-4.0373e-13
2.38369e-13
-0.000539006
-0.000538944
-0.000538881
-0.000538822
-0.000538772
-0.000538734
-0.000538703
-0.000538675
-0.000538644
-0.000538605
-0.000538555
-0.000538495
-0.000538429
-0.000538364
-0.000538304
-0.000538252
-0.000538209
-0.000538174
-0.000538142
-0.00053811
-0.000538075
-0.000538035
-0.000537993
-0.000537948
-0.0202316
1.41457e-06
-0.0198033
6.72029e-07
-0.0192586
7.28072e-07
-0.0186066
6.55254e-07
-0.0178567
5.93219e-07
-0.0170189
5.35745e-07
-0.0161035
4.8251e-07
-0.0151209
4.30891e-07
-0.0140818
3.75139e-07
-0.0129975
3.05803e-07
-0.0118797
2.11008e-07
-0.0107413
7.9082e-08
-0.00959658
-9.34581e-08
-0.00846124
-2.92713e-07
-0.00735214
-4.96159e-07
-0.00628645
-6.69611e-07
-0.00528038
-7.863e-07
-0.00434809
-8.39046e-07
-0.00350116
-8.41557e-07
-0.00274931
-8.18083e-07
-0.00210126
-7.90664e-07
-0.00156638
-7.6448e-07
-0.00115537
-7.28879e-07
-0.00087935
-6.32327e-07
-6.02129e-07
-0.0203616
-3.60142e-08
-3.89963e-08
-0.0199323
-1.70439e-07
-1.79362e-07
-0.0193855
-1.61223e-07
-1.70369e-07
-0.0187304
-1.38575e-07
-1.48272e-07
-0.0179768
-1.18994e-07
-1.29201e-07
-0.0171344
-1.00871e-07
-1.117e-07
-0.0162138
-8.4206e-08
-9.57695e-08
-0.0152252
-6.83503e-08
-8.06842e-08
-0.0141796
-5.17727e-08
-6.49894e-08
-0.0130882
-3.18309e-08
-4.60151e-08
-0.0119628
-4.80249e-09
-2.00605e-08
-0.0108163
3.27035e-08
1.63696e-08
-0.00966307
8.13171e-08
6.35718e-08
-0.00851894
1.41963e-07
1.22684e-07
-0.00740099
2.0457e-07
1.83628e-07
-0.00632664
2.59207e-07
2.36535e-07
-0.00531238
2.96825e-07
2.72367e-07
-0.00437258
3.14311e-07
2.8819e-07
-0.00351898
3.1559e-07
2.87937e-07
-0.00276143
3.08036e-07
2.79553e-07
-0.0021087
2.98645e-07
2.699e-07
-0.00157023
2.87292e-07
2.60187e-07
-0.00115682
2.67564e-07
2.43073e-07
-0.000879545
2.11894e-07
1.93123e-07
1.60799e-07
1.51039e-07
-0.0202103
6.97693e-07
-0.0197823
6.58999e-07
-0.0192381
6.34656e-07
-0.0185866
5.65558e-07
-0.0178374
5.03651e-07
-0.0170004
4.46621e-07
-0.0160859
3.93663e-07
-0.0151043
3.41755e-07
-0.0140663
2.84414e-07
-0.0129831
2.114e-07
-0.0118665
1.0991e-07
-0.0107295
-3.04904e-08
-0.00958612
-2.1287e-07
-0.00845216
-4.23521e-07
-0.00734445
-6.35616e-07
-0.00628011
-8.13062e-07
-0.00527531
-9.28549e-07
-0.00434418
-9.76109e-07
-0.00349826
-9.71725e-07
-0.00274728
-9.41314e-07
-0.00209992
-9.06593e-07
-0.00156557
-8.71198e-07
-0.00115493
-8.12242e-07
-0.000879132
-6.74289e-07
-5.49661e-07
-0.0203326
6.07899e-09
-0.0199035
3.03861e-09
-0.0193571
3.28059e-09
-0.0187027
3.17269e-09
-0.0179498
3.12908e-09
-0.0171084
2.99456e-09
-0.0161889
2.70602e-09
-0.0152017
2.38798e-09
-0.0141575
1.93276e-09
-0.0130676
1.31915e-09
-0.0119439
6.47948e-10
-0.0107993
-1.24802e-10
-0.00964794
-1.04809e-09
-0.00850579
-2.0759e-09
-0.00738984
-3.23872e-09
-0.00631747
-4.45823e-09
-0.00530507
-5.58317e-09
-0.00436698
-6.46154e-09
-0.00351491
-7.09869e-09
-0.00275867
-7.31536e-09
-0.00210701
-7.08366e-09
-0.00156937
-6.47673e-09
-0.00115651
-5.70049e-09
-0.000879527
-4.22591e-09
-2.78892e-09
-0.0203327
-6.84451e-07
-0.0199035
-6.52448e-07
-0.0193571
-6.27285e-07
-0.0187027
-5.58271e-07
-0.0179498
-4.96339e-07
-0.0171085
-4.39452e-07
-0.0161889
-3.86844e-07
-0.0152017
-3.35349e-07
-0.0141575
-2.78643e-07
-0.0130677
-2.06484e-07
-0.0119439
-1.05952e-07
-0.0107993
3.34681e-08
-0.00964795
2.1455e-07
-0.0085058
4.23707e-07
-0.00738985
6.34102e-07
-0.00631747
8.09719e-07
-0.00530508
9.23423e-07
-0.00436699
9.69379e-07
-0.00351492
9.63457e-07
-0.00275867
9.318e-07
-0.00210701
8.96084e-07
-0.00156937
8.60099e-07
-0.00115652
8.00628e-07
-0.000879528
6.64387e-07
5.41853e-07
-0.0202103
3.38798e-08
-0.0197824
1.73464e-07
-0.0192381
1.64106e-07
-0.0185866
1.4175e-07
-0.0178374
1.22568e-07
-0.0170004
1.04896e-07
-0.0160859
8.87479e-08
-0.0151043
7.35349e-08
-0.0140663
5.76615e-08
-0.0129831
3.84832e-08
-0.0118665
1.23473e-08
-0.0107295
-2.42165e-08
-0.00958613
-7.15952e-08
-0.00845217
-1.3107e-07
-0.00734446
-1.92539e-07
-0.00628012
-2.46164e-07
-0.00527532
-2.82959e-07
-0.00434418
-2.99991e-07
-0.00349826
-3.01405e-07
-0.00274728
-2.94732e-07
-0.00209992
-2.86872e-07
-0.00156557
-2.77745e-07
-0.00115493
-2.60856e-07
-0.00087913
-2.0777e-07
-1.5834e-07
-0.0203616
-1.4139e-06
-4.41984e-08
-0.0199323
-6.71065e-07
-1.80237e-07
-0.0193855
-7.27102e-07
-1.71508e-07
-0.0187304
-6.5428e-07
-1.49188e-07
-0.0179768
-5.92157e-07
-1.2995e-07
-0.0171344
-5.3464e-07
-1.12167e-07
-0.0162138
-4.81396e-07
-9.57996e-08
-0.0152252
-4.29752e-07
-8.02082e-08
-0.0141796
-3.74046e-07
-6.38247e-08
-0.0130882
-3.048e-07
-4.39814e-08
-0.0119628
-2.10077e-07
-1.70263e-08
-0.0108163
-7.82912e-08
2.035e-08
-0.00966307
9.39557e-08
6.91076e-08
-0.00851894
2.92768e-07
1.30048e-07
-0.00740099
4.95443e-07
1.93249e-07
-0.00632664
6.67733e-07
2.4893e-07
-0.00531238
7.82757e-07
2.88144e-07
-0.00437258
8.33127e-07
3.07998e-07
-0.00351898
8.32139e-07
3.12706e-07
-0.00276143
8.03904e-07
3.09922e-07
-0.0021087
7.70198e-07
3.06257e-07
-0.00157023
7.3737e-07
3.01247e-07
-0.00115682
6.94395e-07
2.8688e-07
-0.000879545
5.96915e-07
2.32794e-07
5.71037e-07
1.80793e-07
-0.0202316
-0.0198033
-0.0192586
-0.0186066
-0.0178567
-0.0170189
-0.0161035
-0.0151209
-0.0140818
-0.0129975
-0.0118797
-0.0107413
-0.00959658
-0.00846124
-0.00735214
-0.00628645
-0.00528038
-0.00434809
-0.00350116
-0.00274931
-0.00210126
-0.00156638
-0.00115537
-0.00087935
-0.0203326
-6.87259e-07
-4.78188e-10
-0.0199035
-6.46946e-07
-4.65311e-09
-0.0193571
-6.22119e-07
-4.70457e-09
-0.0187027
-5.52648e-07
-5.00913e-09
-0.0179498
-4.90284e-07
-5.41651e-09
-0.0171084
-4.3286e-07
-5.8664e-09
-0.0161889
-3.79601e-07
-6.34852e-09
-0.0152017
-3.27381e-07
-6.95693e-09
-0.0141575
-2.69833e-07
-7.63566e-09
-0.0130676
-1.96734e-07
-8.37509e-09
-0.0119439
-9.51785e-08
-9.31447e-09
-0.0107993
4.54463e-08
-1.01018e-08
-0.00964794
2.27973e-07
-1.1575e-08
-0.00850579
4.38777e-07
-1.31464e-08
-0.00738984
6.51128e-07
-1.50053e-08
-0.00631747
8.29069e-07
-1.72581e-08
-0.00530507
9.45679e-07
-2.01196e-08
-0.00436698
9.95258e-07
-2.36931e-08
-0.00351491
9.94186e-07
-2.80848e-08
-0.00275867
9.68582e-07
-3.31111e-08
-0.00210701
9.40627e-07
-3.86388e-08
-0.00156937
9.12169e-07
-4.26715e-08
-0.00115651
8.58873e-07
-4.42727e-08
-0.000879527
7.2075e-07
-3.95962e-08
5.87379e-07
-2.97345e-08
-0.0202103
-0.0197823
-0.0192381
-0.0185866
-0.0178374
-0.0170004
-0.0160859
-0.0151043
-0.0140663
-0.0129831
-0.0118665
-0.0107295
-0.00958612
-0.00845216
-0.00734445
-0.00628011
-0.00527531
-0.00434418
-0.00349826
-0.00274728
-0.00209992
-0.00156557
-0.00115493
-0.000879132
-0.0202103
6.88005e-07
-0.0197824
6.56228e-07
-0.0192381
6.31116e-07
-0.0185866
5.62176e-07
-0.0178374
5.00484e-07
-0.0170004
4.43765e-07
-0.0160859
3.9125e-07
-0.0151043
3.39939e-07
-0.0140663
2.8334e-07
-0.0129831
2.11197e-07
-0.0118665
1.10737e-07
-0.0107295
-2.88441e-08
-0.00958613
-2.09582e-07
-0.00845217
-4.18608e-07
-0.00734446
-6.29038e-07
-0.00628012
-8.04861e-07
-0.00527532
-9.18958e-07
-0.00434418
-9.65754e-07
-0.00349826
-9.61661e-07
-0.00274728
-9.33142e-07
-0.00209992
-9.02424e-07
-0.00156557
-8.72754e-07
-0.00115493
-8.20606e-07
-0.00087913
-6.87865e-07
-5.63641e-07
-0.0203327
-0.0199035
-0.0193571
-0.0187027
-0.0179498
-0.0171085
-0.0161889
-0.0152017
-0.0141575
-0.0130677
-0.0119439
-0.0107993
-0.00964795
-0.0085058
-0.00738985
-0.00631747
-0.00530508
-0.00436699
-0.00351492
-0.00275867
-0.00210701
-0.00156937
-0.00115652
-0.000879528
)
;

boundaryField
{
    outletCentralUnloaded
    {
        type            calculated;
        value           nonuniform List<scalar> 2(0.000539058 0.000539058);
    }
    inletCentralUnloaded
    {
        type            calculated;
        value           uniform -0.000540134;
    }
    outletFuelElement
    {
        type            calculated;
        value           nonuniform List<scalar> 
12
(
0.0205725
0.0207057
0.0205517
0.0206759
0.0206759
0.0205517
0.0207057
0.0205725
0.0206759
0.0205517
0.0205517
0.0206759
)
;
    }
    inletFuelElement
    {
        type            calculated;
        value           nonuniform List<scalar> 
12
(
-0.000722059
-0.00072206
-0.000722059
-0.000722059
-0.00072206
-0.000722059
-0.00072206
-0.000722059
-0.000722059
-0.000722059
-0.000722059
-0.00072206
)
;
    }
    defaultFaces
    {
        type            calculated;
        value           nonuniform List<scalar> 
450
(
1.97958e-23
-2.30218e-23
0
2.79458e-23
6.14117e-24
0
2.37778e-23
7.93011e-24
0
-4.44288e-23
-2.04298e-23
0
-1.76495e-23
-3.6099e-23
0
-4.50948e-23
-7.19218e-24
0
-2.96359e-23
-1.07743e-23
0
-3.01726e-23
-8.77242e-24
0
-2.08007e-23
-8.4002e-24
0
-2.36918e-23
-5.07255e-24
0
-1.04527e-23
-4.39942e-24
0
-5.00762e-24
-1.94587e-24
0
3.14983e-24
3.36e-24
0
1.94253e-23
9.72804e-24
0
3.44478e-23
2.55188e-23
0
4.5447e-23
1.97095e-23
0
3.22882e-23
-2.22426e-23
0
7.90046e-23
2.1459e-23
0
3.71903e-23
-3.28312e-23
0
-1.70565e-23
-3.93665e-23
0
-2.60684e-23
-1.21273e-23
0
4.47772e-23
-1.51185e-23
0
-1.84866e-23
-5.41725e-24
0
-2.90176e-23
-3.0964e-24
0
-1.42309e-23
-1.95638e-23
0
2.00567e-23
0
1.60454e-23
0
0
0
2.00567e-23
0
-1.60454e-23
0
1.60454e-23
0
1.2034e-23
0
1.00284e-23
0
-8.0227e-24
0
6.01702e-24
0
3.25922e-24
0
-2.00567e-24
0
-8.0227e-24
0
-2.00567e-23
0
-1.60454e-23
0
-2.40681e-23
0
6.41816e-23
0
-1.60454e-23
0
1.60454e-23
0
-3.20908e-23
0
-3.20908e-23
0
4.01135e-23
0
2.40681e-23
0
-3.20908e-23
0
-1.60454e-23
0
-1.60454e-23
-8.0227e-24
8.0227e-24
0
8.0227e-24
0
0
-8.0227e-24
8.0227e-24
-4.01135e-24
0
1.00284e-24
0
8.0227e-24
8.0227e-24
0
-4.81362e-23
3.20908e-23
-1.60454e-23
0
0
-3.20908e-23
-1.60454e-23
0
8.0227e-24
0
0
0
0
0
0
0
0
0
0
0
0
0
0
0
0
0
0
0
0
0
0
0
0
0
-2.60738e-23
8.0227e-24
8.0227e-24
1.60454e-23
2.40681e-23
4.01135e-23
-1.2034e-23
-1.2034e-23
1.60454e-23
-1.2034e-23
-1.60454e-23
-8.0227e-24
-1.2034e-23
-1.2034e-23
-8.0227e-24
-4.01135e-24
1.40397e-23
-8.0227e-24
-4.01135e-24
-6.01702e-24
-2.00567e-24
-2.00567e-24
2.00567e-24
2.13103e-24
8.0227e-24
6.01702e-24
8.0227e-24
1.2034e-23
2.40681e-23
2.00567e-23
3.20908e-23
1.60454e-23
-3.20908e-23
4.01135e-23
3.20908e-23
2.40681e-23
-6.41816e-23
4.01135e-23
-4.81362e-23
-3.20908e-23
0
-3.20908e-23
-4.01135e-23
4.81362e-23
-1.60454e-23
-2.40681e-23
8.0227e-24
-2.00567e-23
-3.20908e-23
-2.00567e-23
2.05291e-23
0
0
1.22742e-23
0
-8.0227e-24
1.27722e-23
0
-4.81362e-23
-5.39886e-23
0
0
2.29392e-23
0
-8.0227e-24
-5.09481e-23
0
8.0227e-24
-4.49009e-23
0
8.0227e-24
-3.92479e-23
0
1.60454e-23
-2.48753e-23
0
-8.0227e-24
-2.6606e-23
0
4.01135e-24
-1.32254e-23
0
4.01135e-24
-6.94784e-24
0
2.00567e-24
8.70373e-24
-0
0
2.39959e-23
-0
-4.01135e-24
4.06805e-23
-0
-8.0227e-24
5.48498e-23
-0
-1.60454e-23
4.13122e-23
-0
0
7.39975e-23
-0
0
2.79956e-23
-0
-3.20908e-23
-1.97017e-23
-0
1.60454e-23
-9.83404e-24
-0
1.60454e-23
2.38186e-23
-0
1.60454e-23
-1.27461e-23
-0
0
-7.88897e-24
-0
1.60454e-23
-6.8819e-24
-0
2.40681e-23
-1.60454e-23
-8.0227e-24
0
-1.60454e-23
1.60454e-23
-8.0227e-24
0
-4.01135e-24
0
-4.01135e-24
-2.00567e-24
0
0
1.60454e-23
8.0227e-24
1.60454e-23
-3.20908e-23
3.20908e-23
-4.81362e-23
0
-1.60454e-23
-1.60454e-23
-1.60454e-23
0
8.0227e-24
1.60454e-23
0
8.0227e-24
0
0
0
8.0227e-24
0
-8.0227e-24
0
8.0227e-24
0
8.0227e-24
0
1.2034e-23
0
-2.00567e-24
0
8.0227e-24
0
3.00851e-24
0
-1.00284e-24
-0
-4.01135e-24
-0
-2.00567e-23
-0
-2.40681e-23
-0
-8.0227e-24
-0
5.61589e-23
-0
-3.20908e-23
-0
4.81362e-23
-0
-3.20908e-23
-0
-3.20908e-23
-0
3.20908e-23
-0
8.0227e-24
-0
-3.20908e-23
-0
-2.40681e-23
-0
-2.40681e-23
1.60454e-23
-1.60454e-23
3.20908e-23
-1.60454e-23
1.60454e-23
-1.60454e-23
-4.41248e-23
8.0227e-24
1.2034e-23
-8.0227e-24
-3.61021e-23
-8.0227e-24
-2.00567e-23
-8.0227e-24
-2.00567e-23
2.00567e-24
-1.2034e-23
-6.01702e-24
-1.80511e-23
-2.00567e-24
-7.01986e-24
1.00284e-24
3.44725e-24
4.01135e-24
1.80511e-23
4.01135e-24
3.20908e-23
8.0227e-24
4.41248e-23
1.60454e-23
5.61589e-23
0
4.01135e-23
2.40681e-23
8.82497e-23
-1.60454e-23
4.81362e-23
-8.0227e-24
-2.40681e-23
-8.0227e-24
-1.60454e-23
-8.0227e-24
2.40681e-23
1.60454e-23
-1.60454e-23
-8.0227e-24
-2.40681e-23
0
-1.60454e-23
-0
-0
-0
-0
-0
-0
-0
-0
-0
-0
-0
0
0
0
0
0
0
0
0
0
0
0
0
0
0
)
;
    }
    baffle_master
    {
        type            calculated;
        value           nonuniform List<scalar> 
150
(
-7.61616e-30
0
0
4.05348e-31
0
2.28934e-29
-7.82202e-32
0
3.57709e-31
6.97441e-30
0
0
6.90988e-29
0
4.57867e-29
-5.754e-30
0
-2.28934e-29
-1.44128e-29
0
0
-3.30672e-31
0
7.15418e-31
3.83013e-30
0
0
6.51919e-30
0
2.28934e-29
-6.87385e-31
0
-2.28934e-29
-3.78852e-30
0
0
8.94316e-31
0
-1.14467e-29
-2.14012e-30
0
0
1.66628e-30
0
0
2.43159e-29
0
2.28934e-29
-1.59593e-28
0
-1.14467e-28
-1.54813e-29
0
2.28934e-29
-2.93778e-29
0
-1.717e-29
-2.75458e-30
0
5.72334e-30
-1.68121e-30
0
1.14467e-29
-7.09771e-29
0
-4.57867e-29
2.14556e-30
0
-1.14467e-29
-2.77757e-31
0
5.72334e-30
-1.87407e-30
0
-2.86167e-30
0
-2.94148e-29
0
2.28934e-29
-4.77699e-29
0
7.15418e-31
-7.82697e-31
0
-2.28934e-29
2.55284e-29
-0
0
-2.77784e-29
-0
-4.57867e-29
2.86477e-29
-0
-2.28934e-29
3.25631e-29
-0
0
1.39926e-30
-0
-2.28934e-29
-3.79236e-29
0
2.28934e-29
-5.63821e-29
0
2.28934e-29
-8.25236e-29
0
2.28934e-29
-3.92731e-29
0
1.14467e-29
-1.803e-29
0
-5.72334e-30
6.55293e-30
-0
-2.28934e-29
3.03722e-29
-0
-2.28934e-29
5.36168e-29
-0
2.28934e-29
5.75279e-29
-0
-2.28934e-29
2.34479e-29
-0
1.717e-29
6.67815e-30
-0
0
8.38696e-30
0
-1.14467e-29
1.36675e-29
0
-4.57867e-29
4.56955e-29
0
-2.28934e-29
-4.0753e-29
0
0
1.13001e-29
0
0
-7.384e-30
-0
)
;
    }
    baffle_slave
    {
        type            calculated;
        value           nonuniform List<scalar> 
150
(
-3.38458e-24
-0
1.60454e-23
7.52128e-25
-0
0
-4.01135e-24
-0
8.0227e-24
-1.50426e-24
-0
0
-2.7578e-23
-0
-8.0227e-24
-1.00284e-24
-0
8.0227e-24
-5.01419e-24
-0
8.0227e-24
1.00284e-24
-0
0
5.01419e-24
-0
4.01135e-24
-1.00284e-24
-0
4.01135e-24
1.00284e-24
-0
2.00567e-24
0
0
2.50709e-25
-5.01419e-25
0
4.01135e-24
-3.00851e-24
0
8.0227e-24
1.00284e-24
0
0
4.01135e-24
0
-1.60454e-23
-4.81362e-23
0
-3.20908e-23
1.00284e-24
0
1.60454e-23
-3.30936e-23
0
-1.60454e-23
5.01419e-24
0
-1.60454e-23
-6.01702e-24
0
-1.60454e-23
3.61021e-23
0
3.20908e-23
2.00567e-24
0
1.60454e-23
6.01702e-24
0
-8.0227e-24
2.00567e-24
0
-8.0227e-24
-7.35596e-24
5.21475e-23
0
-1.12005e-23
2.08089e-23
0
8.83626e-24
1.75497e-23
0
-9.44094e-24
2.55724e-23
0
-5.77119e-24
-3.50993e-23
0
-1.20411e-23
1.65468e-23
0
-1.66085e-23
1.52933e-23
0
-1.02872e-24
1.00284e-23
0
7.80606e-24
1.15326e-23
0
-1.24559e-24
7.01986e-24
0
5.89669e-25
6.01702e-24
0
5.36773e-25
2.63245e-24
0
4.7341e-24
-7.52128e-25
0
7.79637e-24
-6.73781e-24
0
1.49827e-23
-7.99136e-24
0
1.72224e-23
-8.64947e-24
0
-2.99863e-23
-1.78004e-23
0
-1.887e-23
-1.57947e-23
0
-3.51978e-23
-3.00851e-24
0
-1.2357e-23
1.40397e-23
0
2.03431e-23
9.02554e-24
0
-3.26241e-23
2.10596e-23
0
-3.14829e-23
-1.70482e-23
0
3.93687e-24
7.01986e-24
0
5.45e-24
1.00284e-23
0
)
;
    }
}


// ************************************************************************* //
