/*--------------------------------*- C++ -*----------------------------------*\
| =========                 |                                                 |
| \\      /  F ield         | OpenFOAM: The Open Source CFD Toolbox           |
|  \\    /   O peration     | Version:  2212                                  |
|   \\  /    A nd           | Website:  www.openfoam.com                      |
|    \\/     M anipulation  |                                                 |
\*---------------------------------------------------------------------------*/
FoamFile
{
    version     2.0;
    format      ascii;
    arch        "LSB;label=32;scalar=64";
    class       volScalarField;
    location    "94/fluidRegion";
    object      heatFlux.structure;
}
// * * * * * * * * * * * * * * * * * * * * * * * * * * * * * * * * * * * * * //

dimensions      [1 0 -3 0 0 0 0];

internalField   nonuniform List<scalar> 
350
(
-258326
-258325
-258321
-258317
-258316
-258319
-258326
-258335
-258343
-258350
-258352
-258351
-258347
-258342
-258337
-258336
-258337
-258342
-258349
-258357
-258364
-258369
-258373
-258376
-258807
-258326
-258325
-258321
-258317
-258316
-258319
-258326
-258335
-258343
-258350
-258352
-258351
-258347
-258342
-258337
-258336
-258337
-258342
-258349
-258357
-258364
-258369
-258373
-258376
-258807
450434
1.34422e+06
2.2168e+06
3.05443e+06
3.84388e+06
4.57271e+06
5.22943e+06
5.80367e+06
6.28639e+06
6.66996e+06
6.94835e+06
7.11716e+06
7.17373e+06
7.11716e+06
6.94835e+06
6.66997e+06
6.28639e+06
5.80368e+06
5.22941e+06
4.57272e+06
3.84389e+06
3.05447e+06
2.21681e+06
1.34419e+06
450445
455593
1.35962e+06
2.2422e+06
3.08942e+06
3.88791e+06
4.62509e+06
5.28933e+06
5.87015e+06
6.3584e+06
6.74637e+06
7.02794e+06
7.19869e+06
7.2559e+06
7.19869e+06
7.02795e+06
6.74637e+06
6.3584e+06
5.87016e+06
5.28931e+06
4.6251e+06
3.88792e+06
3.08945e+06
2.2422e+06
1.35959e+06
455605
449612
1.34177e+06
2.21276e+06
3.04886e+06
3.83687e+06
4.56437e+06
5.21989e+06
5.79309e+06
6.27492e+06
6.6578e+06
6.93568e+06
7.10418e+06
7.16064e+06
7.10418e+06
6.93568e+06
6.6578e+06
6.27492e+06
5.79309e+06
5.21987e+06
4.56438e+06
3.83688e+06
3.04889e+06
2.21277e+06
1.34174e+06
449623
454406
1.35607e+06
2.23635e+06
3.08136e+06
3.87778e+06
4.61304e+06
5.27554e+06
5.85485e+06
6.34182e+06
6.72878e+06
7.00962e+06
7.17992e+06
7.23698e+06
7.17992e+06
7.00962e+06
6.72878e+06
6.34183e+06
5.85485e+06
5.27552e+06
4.61304e+06
3.87778e+06
3.0814e+06
2.23636e+06
1.35605e+06
454417
454406
1.35607e+06
2.23635e+06
3.08136e+06
3.87778e+06
4.61304e+06
5.27554e+06
5.85485e+06
6.34182e+06
6.72878e+06
7.00962e+06
7.17992e+06
7.23698e+06
7.17992e+06
7.00962e+06
6.72878e+06
6.34183e+06
5.85485e+06
5.27552e+06
4.61304e+06
3.87778e+06
3.0814e+06
2.23636e+06
1.35605e+06
454417
449612
1.34177e+06
2.21276e+06
3.04886e+06
3.83687e+06
4.56437e+06
5.21989e+06
5.79309e+06
6.27492e+06
6.6578e+06
6.93568e+06
7.10418e+06
7.16064e+06
7.10418e+06
6.93568e+06
6.6578e+06
6.27493e+06
5.79309e+06
5.21987e+06
4.56438e+06
3.83688e+06
3.04889e+06
2.21277e+06
1.34174e+06
449623
455593
1.35962e+06
2.2422e+06
3.08942e+06
3.88791e+06
4.62509e+06
5.28933e+06
5.87015e+06
6.3584e+06
6.74637e+06
7.02794e+06
7.19869e+06
7.2559e+06
7.19869e+06
7.02795e+06
6.74637e+06
6.3584e+06
5.87016e+06
5.28931e+06
4.6251e+06
3.88792e+06
3.08946e+06
2.2422e+06
1.35959e+06
455605
450434
1.34422e+06
2.21681e+06
3.05443e+06
3.84388e+06
4.57271e+06
5.22943e+06
5.80367e+06
6.28639e+06
6.66996e+06
6.94835e+06
7.11716e+06
7.17372e+06
7.11716e+06
6.94835e+06
6.66997e+06
6.28639e+06
5.80368e+06
5.22941e+06
4.57272e+06
3.84389e+06
3.05447e+06
2.21681e+06
1.3442e+06
450445
454406
1.35607e+06
2.23635e+06
3.08136e+06
3.87778e+06
4.61304e+06
5.27554e+06
5.85485e+06
6.34182e+06
6.72878e+06
7.00962e+06
7.17992e+06
7.23698e+06
7.17992e+06
7.00962e+06
6.72878e+06
6.34183e+06
5.85485e+06
5.27552e+06
4.61304e+06
3.87778e+06
3.0814e+06
2.23636e+06
1.35605e+06
454417
449612
1.34177e+06
2.21276e+06
3.04886e+06
3.83687e+06
4.56437e+06
5.21989e+06
5.79309e+06
6.27492e+06
6.6578e+06
6.93568e+06
7.10418e+06
7.16064e+06
7.10418e+06
6.93568e+06
6.6578e+06
6.27492e+06
5.79309e+06
5.21987e+06
4.56438e+06
3.83688e+06
3.04889e+06
2.21277e+06
1.34174e+06
449623
449612
1.34177e+06
2.21276e+06
3.04886e+06
3.83687e+06
4.56437e+06
5.21989e+06
5.79309e+06
6.27492e+06
6.6578e+06
6.93568e+06
7.10418e+06
7.16064e+06
7.10418e+06
6.93568e+06
6.6578e+06
6.27492e+06
5.79309e+06
5.21987e+06
4.56438e+06
3.83688e+06
3.04889e+06
2.21277e+06
1.34174e+06
449623
454406
1.35607e+06
2.23635e+06
3.08136e+06
3.87778e+06
4.61304e+06
5.27554e+06
5.85485e+06
6.34182e+06
6.72878e+06
7.00962e+06
7.17992e+06
7.23698e+06
7.17992e+06
7.00962e+06
6.72878e+06
6.34183e+06
5.85485e+06
5.27552e+06
4.61304e+06
3.87778e+06
3.0814e+06
2.23636e+06
1.35605e+06
454417
)
;

boundaryField
{
    outletCentralUnloaded
    {
        type            zeroGradient;
    }
    inletCentralUnloaded
    {
        type            zeroGradient;
    }
    outletFuelElement
    {
        type            zeroGradient;
    }
    inletFuelElement
    {
        type            zeroGradient;
    }
    defaultFaces
    {
        type            zeroGradient;
    }
    baffle_master
    {
        type            zeroGradient;
    }
    baffle_slave
    {
        type            zeroGradient;
    }
}


// ************************************************************************* //
