/*--------------------------------*- C++ -*----------------------------------*\
| =========                 |                                                 |
| \\      /  F ield         | OpenFOAM: The Open Source CFD Toolbox           |
|  \\    /   O peration     | Version:  2212                                  |
|   \\  /    A nd           | Website:  www.openfoam.com                      |
|    \\/     M anipulation  |                                                 |
\*---------------------------------------------------------------------------*/
FoamFile
{
    version     2.0;
    format      ascii;
    arch        "LSB;label=32;scalar=64";
    class       volScalarField;
    location    "32/fluidRegion";
    object      heatFlux.structure;
}
// * * * * * * * * * * * * * * * * * * * * * * * * * * * * * * * * * * * * * //

dimensions      [1 0 -3 0 0 0 0];

internalField   nonuniform List<scalar> 
350
(
-258294
-258297
-258300
-258303
-258306
-258308
-258311
-258313
-258315
-258317
-258319
-258321
-258324
-258327
-258330
-258333
-258335
-258338
-258340
-258343
-258345
-258348
-258351
-258355
-258797
-258294
-258297
-258300
-258303
-258306
-258308
-258311
-258313
-258315
-258317
-258319
-258321
-258324
-258327
-258330
-258333
-258335
-258338
-258340
-258343
-258345
-258348
-258351
-258355
-258797
346936
1.23085e+06
2.09434e+06
2.92379e+06
3.70614e+06
4.42906e+06
5.08117e+06
5.6522e+06
6.13317e+06
6.51652e+06
6.79623e+06
6.9679e+06
7.02886e+06
6.97817e+06
6.81663e+06
6.54679e+06
6.17289e+06
5.70079e+06
5.13792e+06
4.49327e+06
3.77716e+06
3.00145e+06
2.17945e+06
1.32587e+06
454605
349855
1.24391e+06
2.1173e+06
2.95628e+06
3.74761e+06
4.47884e+06
5.13846e+06
5.71607e+06
6.2026e+06
6.59038e+06
6.87333e+06
7.04702e+06
7.10873e+06
7.05751e+06
6.89417e+06
6.6213e+06
6.24317e+06
5.76573e+06
5.19647e+06
4.54449e+06
3.8202e+06
3.03562e+06
2.2042e+06
1.34084e+06
459624
346472
1.22877e+06
2.09068e+06
2.91862e+06
3.69953e+06
4.42113e+06
5.07204e+06
5.64202e+06
6.12211e+06
6.50475e+06
6.78394e+06
6.95529e+06
7.01614e+06
6.96553e+06
6.80427e+06
6.53492e+06
6.16168e+06
5.69044e+06
5.12858e+06
4.48511e+06
3.7703e+06
2.996e+06
2.17551e+06
1.32348e+06
453805
349172
1.24089e+06
2.11201e+06
2.94879e+06
3.73806e+06
4.46738e+06
5.12527e+06
5.70137e+06
6.18661e+06
6.57338e+06
6.85558e+06
7.02881e+06
7.09034e+06
7.03924e+06
6.87632e+06
6.60415e+06
6.227e+06
5.75078e+06
5.18299e+06
4.5327e+06
3.81029e+06
3.02776e+06
2.19851e+06
1.3374e+06
458469
349172
1.24089e+06
2.11201e+06
2.94879e+06
3.73806e+06
4.46738e+06
5.12527e+06
5.70137e+06
6.18661e+06
6.57338e+06
6.85558e+06
7.02881e+06
7.09034e+06
7.03924e+06
6.87632e+06
6.60415e+06
6.227e+06
5.75078e+06
5.18299e+06
4.5327e+06
3.81029e+06
3.02776e+06
2.19851e+06
1.3374e+06
458469
346472
1.22877e+06
2.09068e+06
2.91862e+06
3.69953e+06
4.42113e+06
5.07204e+06
5.64202e+06
6.12211e+06
6.50475e+06
6.78394e+06
6.95529e+06
7.01614e+06
6.96553e+06
6.80427e+06
6.53492e+06
6.16168e+06
5.69044e+06
5.12858e+06
4.48511e+06
3.7703e+06
2.996e+06
2.17551e+06
1.32348e+06
453806
349855
1.24391e+06
2.11731e+06
2.95628e+06
3.74761e+06
4.47884e+06
5.13846e+06
5.71607e+06
6.2026e+06
6.59038e+06
6.87333e+06
7.04702e+06
7.10873e+06
7.0575e+06
6.89417e+06
6.6213e+06
6.24317e+06
5.76573e+06
5.19647e+06
4.54449e+06
3.8202e+06
3.03562e+06
2.2042e+06
1.34084e+06
459625
346936
1.23085e+06
2.09434e+06
2.92379e+06
3.70614e+06
4.42906e+06
5.08117e+06
5.6522e+06
6.13317e+06
6.51652e+06
6.79623e+06
6.9679e+06
7.02886e+06
6.97817e+06
6.81663e+06
6.54679e+06
6.17289e+06
5.70079e+06
5.13792e+06
4.49327e+06
3.77716e+06
3.00145e+06
2.17946e+06
1.32587e+06
454605
349172
1.24089e+06
2.11201e+06
2.94879e+06
3.73806e+06
4.46738e+06
5.12527e+06
5.70137e+06
6.18661e+06
6.57338e+06
6.85558e+06
7.02881e+06
7.09034e+06
7.03924e+06
6.87632e+06
6.60415e+06
6.227e+06
5.75078e+06
5.18299e+06
4.5327e+06
3.81029e+06
3.02776e+06
2.19851e+06
1.3374e+06
458469
346472
1.22878e+06
2.09068e+06
2.91862e+06
3.69953e+06
4.42113e+06
5.07204e+06
5.64202e+06
6.12211e+06
6.50475e+06
6.78394e+06
6.9553e+06
7.01614e+06
6.96553e+06
6.80427e+06
6.53492e+06
6.16169e+06
5.69044e+06
5.12858e+06
4.48511e+06
3.77029e+06
2.996e+06
2.17551e+06
1.32348e+06
453805
346472
1.22877e+06
2.09068e+06
2.91862e+06
3.69953e+06
4.42113e+06
5.07204e+06
5.64202e+06
6.12211e+06
6.50475e+06
6.78394e+06
6.95529e+06
7.01614e+06
6.96553e+06
6.80427e+06
6.53492e+06
6.16168e+06
5.69044e+06
5.12858e+06
4.48511e+06
3.7703e+06
2.99601e+06
2.17551e+06
1.32348e+06
453805
349172
1.24089e+06
2.11201e+06
2.94879e+06
3.73806e+06
4.46738e+06
5.12527e+06
5.70136e+06
6.18661e+06
6.57338e+06
6.85558e+06
7.02881e+06
7.09034e+06
7.03924e+06
6.87632e+06
6.60415e+06
6.22699e+06
5.75078e+06
5.18299e+06
4.5327e+06
3.81029e+06
3.02776e+06
2.19851e+06
1.3374e+06
458469
)
;

boundaryField
{
    outletCentralUnloaded
    {
        type            zeroGradient;
    }
    inletCentralUnloaded
    {
        type            zeroGradient;
    }
    outletFuelElement
    {
        type            zeroGradient;
    }
    inletFuelElement
    {
        type            zeroGradient;
    }
    defaultFaces
    {
        type            zeroGradient;
    }
    baffle_master
    {
        type            zeroGradient;
    }
    baffle_slave
    {
        type            zeroGradient;
    }
}


// ************************************************************************* //
