/*--------------------------------*- C++ -*----------------------------------*\
| =========                 |                                                 |
| \\      /  F ield         | OpenFOAM: The Open Source CFD Toolbox           |
|  \\    /   O peration     | Version:  2212                                  |
|   \\  /    A nd           | Website:  www.openfoam.com                      |
|    \\/     M anipulation  |                                                 |
\*---------------------------------------------------------------------------*/
FoamFile
{
    version     2.0;
    format      ascii;
    arch        "LSB;label=32;scalar=64";
    class       volScalarField;
    location    "32/fluidRegion";
    object      p;
}
// * * * * * * * * * * * * * * * * * * * * * * * * * * * * * * * * * * * * * //

dimensions      [1 -1 -2 0 0 0 0];

internalField   nonuniform List<scalar> 
350
(
3.44743e+06
3.44773e+06
3.44802e+06
3.44832e+06
3.44861e+06
3.44891e+06
3.44921e+06
3.4495e+06
3.44979e+06
3.45009e+06
3.45038e+06
3.45068e+06
3.45097e+06
3.45127e+06
3.45156e+06
3.45186e+06
3.45215e+06
3.45245e+06
3.45275e+06
3.45304e+06
3.45334e+06
3.45364e+06
3.45393e+06
3.45423e+06
3.45451e+06
3.44743e+06
3.44773e+06
3.44802e+06
3.44832e+06
3.44861e+06
3.44891e+06
3.44921e+06
3.4495e+06
3.44979e+06
3.45009e+06
3.45038e+06
3.45068e+06
3.45097e+06
3.45127e+06
3.45156e+06
3.45186e+06
3.45215e+06
3.45245e+06
3.45275e+06
3.45304e+06
3.45334e+06
3.45364e+06
3.45393e+06
3.45423e+06
3.45451e+06
3.47316e+06
3.52371e+06
3.57372e+06
3.62289e+06
3.6709e+06
3.71748e+06
3.76237e+06
3.80532e+06
3.84613e+06
3.88461e+06
3.92059e+06
3.95393e+06
3.98453e+06
4.01231e+06
4.03721e+06
4.05923e+06
4.07841e+06
4.09485e+06
4.10868e+06
4.12007e+06
4.12921e+06
4.13632e+06
4.14164e+06
4.14546e+06
4.14813e+06
3.47316e+06
3.52371e+06
3.57372e+06
3.62289e+06
3.6709e+06
3.71748e+06
3.76237e+06
3.80532e+06
3.84613e+06
3.88461e+06
3.92059e+06
3.95393e+06
3.98453e+06
4.01231e+06
4.03721e+06
4.05923e+06
4.07841e+06
4.09485e+06
4.10868e+06
4.12007e+06
4.12921e+06
4.13632e+06
4.14164e+06
4.14546e+06
4.14813e+06
3.47316e+06
3.52371e+06
3.57372e+06
3.62289e+06
3.6709e+06
3.71748e+06
3.76237e+06
3.80532e+06
3.84613e+06
3.88461e+06
3.92059e+06
3.95393e+06
3.98453e+06
4.01231e+06
4.03721e+06
4.05923e+06
4.07841e+06
4.09485e+06
4.10868e+06
4.12007e+06
4.12921e+06
4.13632e+06
4.14164e+06
4.14546e+06
4.14813e+06
3.47316e+06
3.52371e+06
3.57372e+06
3.62289e+06
3.6709e+06
3.71748e+06
3.76237e+06
3.80532e+06
3.84613e+06
3.88461e+06
3.92059e+06
3.95393e+06
3.98453e+06
4.01231e+06
4.03721e+06
4.05923e+06
4.07841e+06
4.09485e+06
4.10868e+06
4.12007e+06
4.12921e+06
4.13632e+06
4.14164e+06
4.14546e+06
4.14813e+06
3.47316e+06
3.52371e+06
3.57372e+06
3.62289e+06
3.6709e+06
3.71748e+06
3.76237e+06
3.80532e+06
3.84613e+06
3.88461e+06
3.92059e+06
3.95393e+06
3.98453e+06
4.01231e+06
4.03721e+06
4.05923e+06
4.07841e+06
4.09485e+06
4.10868e+06
4.12007e+06
4.12921e+06
4.13632e+06
4.14164e+06
4.14546e+06
4.14813e+06
3.47316e+06
3.52371e+06
3.57372e+06
3.62289e+06
3.6709e+06
3.71748e+06
3.76237e+06
3.80532e+06
3.84613e+06
3.88461e+06
3.92059e+06
3.95393e+06
3.98453e+06
4.01231e+06
4.03721e+06
4.05923e+06
4.07841e+06
4.09485e+06
4.10868e+06
4.12007e+06
4.12921e+06
4.13632e+06
4.14164e+06
4.14546e+06
4.14813e+06
3.47316e+06
3.52371e+06
3.57372e+06
3.62289e+06
3.6709e+06
3.71748e+06
3.76237e+06
3.80532e+06
3.84613e+06
3.88461e+06
3.92059e+06
3.95393e+06
3.98453e+06
4.01231e+06
4.03721e+06
4.05923e+06
4.07841e+06
4.09485e+06
4.10868e+06
4.12007e+06
4.12921e+06
4.13632e+06
4.14164e+06
4.14546e+06
4.14813e+06
3.47316e+06
3.52371e+06
3.57372e+06
3.62289e+06
3.6709e+06
3.71748e+06
3.76237e+06
3.80532e+06
3.84613e+06
3.88461e+06
3.92059e+06
3.95393e+06
3.98453e+06
4.01231e+06
4.03721e+06
4.05923e+06
4.07841e+06
4.09485e+06
4.10868e+06
4.12007e+06
4.12921e+06
4.13632e+06
4.14164e+06
4.14546e+06
4.14813e+06
3.47316e+06
3.52371e+06
3.57372e+06
3.62289e+06
3.6709e+06
3.71748e+06
3.76237e+06
3.80532e+06
3.84613e+06
3.88461e+06
3.92059e+06
3.95393e+06
3.98453e+06
4.01231e+06
4.03721e+06
4.05923e+06
4.07841e+06
4.09485e+06
4.10868e+06
4.12007e+06
4.12921e+06
4.13632e+06
4.14164e+06
4.14546e+06
4.14813e+06
3.47316e+06
3.52371e+06
3.57372e+06
3.62289e+06
3.6709e+06
3.71748e+06
3.76237e+06
3.80532e+06
3.84613e+06
3.88461e+06
3.92059e+06
3.95393e+06
3.98453e+06
4.01231e+06
4.03721e+06
4.05923e+06
4.07841e+06
4.09485e+06
4.10868e+06
4.12007e+06
4.12921e+06
4.13632e+06
4.14164e+06
4.14546e+06
4.14813e+06
3.47316e+06
3.52371e+06
3.57372e+06
3.62289e+06
3.6709e+06
3.71748e+06
3.76237e+06
3.80532e+06
3.84613e+06
3.88461e+06
3.92059e+06
3.95393e+06
3.98453e+06
4.01231e+06
4.03721e+06
4.05923e+06
4.07841e+06
4.09485e+06
4.10868e+06
4.12007e+06
4.12921e+06
4.13632e+06
4.14164e+06
4.14546e+06
4.14813e+06
3.47316e+06
3.52371e+06
3.57372e+06
3.62289e+06
3.6709e+06
3.71748e+06
3.76237e+06
3.80532e+06
3.84613e+06
3.88461e+06
3.92059e+06
3.95393e+06
3.98453e+06
4.01231e+06
4.03721e+06
4.05923e+06
4.07841e+06
4.09485e+06
4.10868e+06
4.12007e+06
4.12921e+06
4.13632e+06
4.14164e+06
4.14546e+06
4.14813e+06
)
;

boundaryField
{
    outletCentralUnloaded
    {
        type            fixedValue;
        value           uniform 3.44728e+06;
    }
    inletCentralUnloaded
    {
        type            zeroGradient;
    }
    outletFuelElement
    {
        type            fixedValue;
        value           uniform 3.44728e+06;
    }
    inletFuelElement
    {
        type            zeroGradient;
    }
    defaultFaces
    {
        type            zeroGradient;
    }
    baffle_master
    {
        type            zeroGradient;
    }
    baffle_slave
    {
        type            zeroGradient;
    }
}


// ************************************************************************* //
