/*--------------------------------*- C++ -*----------------------------------*\
| =========                 |                                                 |
| \\      /  F ield         | OpenFOAM: The Open Source CFD Toolbox           |
|  \\    /   O peration     | Version:  2212                                  |
|   \\  /    A nd           | Website:  www.openfoam.com                      |
|    \\/     M anipulation  |                                                 |
\*---------------------------------------------------------------------------*/
FoamFile
{
    version     2.0;
    format      ascii;
    arch        "LSB;label=32;scalar=64";
    class       volScalarField;
    location    "32/fluidRegion";
    object      T.cladAvForNeutronics;
}
// * * * * * * * * * * * * * * * * * * * * * * * * * * * * * * * * * * * * * //

dimensions      [0 0 0 1 0 0 0];

internalField   nonuniform List<scalar> 
350
(
0
0
0
0
0
0
0
0
0
0
0
0
0
0
0
0
0
0
0
0
0
0
0
0
0
0
0
0
0
0
0
0
0
0
0
0
0
0
0
0
0
0
0
0
0
0
0
0
0
0
1808.98
1848.42
1874.95
1888.57
1889.41
1877.74
1853.98
1818.69
1772.59
1716.5
1651.41
1578.4
1498.7
1413.62
1324.6
1233.08
1140.42
1047.65
955.13
861.999
765.353
659.023
532.697
375.12
188.211
1836.53
1876.62
1903.57
1917.38
1918.19
1906.26
1882.03
1846.07
1799.1
1741.96
1675.65
1601.27
1520.06
1433.36
1342.63
1249.34
1154.9
1060.4
966.237
871.609
773.597
665.95
538.147
378.65
189.405
1804.5
1843.85
1870.33
1883.94
1884.81
1873.19
1849.52
1814.36
1768.41
1712.51
1647.62
1574.84
1495.38
1410.56
1321.82
1230.58
1138.2
1045.7
953.435
860.539
764.108
657.987
531.893
374.603
188.029
1830.34
1870.26
1897.1
1910.85
1911.65
1899.77
1875.64
1839.82
1793.03
1736.13
1670.09
1596.01
1515.14
1428.82
1338.47
1245.59
1151.56
1057.45
963.669
869.387
771.69
664.347
536.884
377.831
189.129
1830.34
1870.26
1897.1
1910.85
1911.65
1899.77
1875.64
1839.82
1793.03
1736.13
1670.09
1596.01
1515.14
1428.82
1338.47
1245.59
1151.56
1057.45
963.669
869.386
771.69
664.347
536.884
377.831
189.129
1804.5
1843.85
1870.34
1883.95
1884.81
1873.19
1849.52
1814.36
1768.41
1712.51
1647.62
1574.84
1495.38
1410.56
1321.82
1230.58
1138.2
1045.7
953.436
860.54
764.109
657.988
531.894
374.604
188.029
1836.53
1876.62
1903.57
1917.38
1918.19
1906.26
1882.03
1846.07
1799.1
1741.96
1675.65
1601.27
1520.06
1433.36
1342.63
1249.34
1154.9
1060.4
966.237
871.609
773.597
665.951
538.147
378.65
189.405
1808.98
1848.42
1874.95
1888.57
1889.41
1877.74
1853.98
1818.69
1772.59
1716.5
1651.41
1578.4
1498.7
1413.62
1324.6
1233.08
1140.42
1047.65
955.13
861.999
765.353
659.023
532.697
375.12
188.211
1830.34
1870.26
1897.1
1910.85
1911.65
1899.77
1875.64
1839.82
1793.03
1736.13
1670.09
1596.01
1515.14
1428.82
1338.47
1245.59
1151.56
1057.45
963.669
869.387
771.69
664.347
536.884
377.831
189.129
1804.5
1843.85
1870.33
1883.94
1884.81
1873.19
1849.52
1814.36
1768.41
1712.51
1647.62
1574.84
1495.38
1410.56
1321.82
1230.58
1138.2
1045.7
953.435
860.539
764.108
657.987
531.893
374.603
188.029
1804.5
1843.85
1870.34
1883.95
1884.81
1873.19
1849.52
1814.36
1768.41
1712.51
1647.62
1574.84
1495.38
1410.56
1321.82
1230.58
1138.2
1045.7
953.436
860.54
764.109
657.988
531.894
374.604
188.029
1830.34
1870.26
1897.1
1910.85
1911.65
1899.77
1875.64
1839.82
1793.03
1736.13
1670.09
1596.01
1515.14
1428.82
1338.47
1245.59
1151.56
1057.45
963.669
869.387
771.69
664.347
536.884
377.831
189.129
)
;

boundaryField
{
    outletCentralUnloaded
    {
        type            zeroGradient;
    }
    inletCentralUnloaded
    {
        type            zeroGradient;
    }
    outletFuelElement
    {
        type            zeroGradient;
    }
    inletFuelElement
    {
        type            zeroGradient;
    }
    defaultFaces
    {
        type            zeroGradient;
    }
    baffle_master
    {
        type            zeroGradient;
    }
    baffle_slave
    {
        type            zeroGradient;
    }
}


// ************************************************************************* //
