/*--------------------------------*- C++ -*----------------------------------*\
| =========                 |                                                 |
| \\      /  F ield         | OpenFOAM: The Open Source CFD Toolbox           |
|  \\    /   O peration     | Version:  2212                                  |
|   \\  /    A nd           | Website:  www.openfoam.com                      |
|    \\/     M anipulation  |                                                 |
\*---------------------------------------------------------------------------*/
FoamFile
{
    version     2.0;
    format      ascii;
    arch        "LSB;label=32;scalar=64";
    class       volScalarField;
    location    "32/fluidRegion";
    object      Tci.nuclearFuelPin;
}
// * * * * * * * * * * * * * * * * * * * * * * * * * * * * * * * * * * * * * //

dimensions      [0 0 0 1 0 0 0];

internalField   nonuniform List<scalar> 
350
(
0
0
0
0
0
0
0
0
0
0
0
0
0
0
0
0
0
0
0
0
0
0
0
0
0
0
0
0
0
0
0
0
0
0
0
0
0
0
0
0
0
0
0
0
0
0
0
0
0
0
1813.72
1865.15
1903.4
1928.28
1939.73
1937.87
1922.96
1895.43
1855.85
1804.97
1743.67
1672.99
1594.11
1508.34
1417.13
1321.94
1224.21
1125.03
1024.87
922.987
816.621
699.763
562.28
393.116
194.379
1841.31
1893.53
1932.33
1957.53
1969.08
1967.08
1951.8
1923.67
1883.3
1831.42
1768.95
1696.92
1616.55
1529.16
1436.21
1339.21
1239.64
1138.65
1036.77
933.292
825.45
707.155
568.066
396.85
195.642
1809.23
1860.56
1898.74
1923.58
1935.04
1933.22
1918.38
1890.96
1851.52
1800.81
1739.71
1669.25
1590.61
1505.11
1414.17
1319.28
1221.83
1122.94
1023.05
921.416
815.283
698.654
561.423
392.568
194.186
1835.11
1887.13
1925.79
1950.9
1962.41
1960.43
1945.22
1917.22
1877.02
1825.36
1763.15
1691.43
1611.39
1524.36
1431.81
1335.23
1236.08
1135.51
1034.02
930.91
823.408
705.444
566.726
395.984
195.35
1835.11
1887.13
1925.79
1950.9
1962.41
1960.43
1945.22
1917.22
1877.02
1825.36
1763.15
1691.43
1611.39
1524.36
1431.81
1335.23
1236.08
1135.51
1034.02
930.91
823.408
705.444
566.726
395.984
195.35
1809.23
1860.56
1898.74
1923.58
1935.04
1933.22
1918.39
1890.96
1851.52
1800.81
1739.71
1669.25
1590.61
1505.11
1414.18
1319.28
1221.84
1122.94
1023.05
921.417
815.284
698.654
561.424
392.568
194.187
1841.31
1893.53
1932.33
1957.53
1969.08
1967.08
1951.8
1923.67
1883.3
1831.42
1768.95
1696.92
1616.55
1529.16
1436.21
1339.21
1239.64
1138.65
1036.77
933.292
825.45
707.155
568.066
396.85
195.642
1813.72
1865.15
1903.4
1928.28
1939.73
1937.87
1922.96
1895.43
1855.85
1804.97
1743.67
1672.99
1594.11
1508.34
1417.13
1321.94
1224.21
1125.03
1024.87
922.987
816.621
699.763
562.28
393.116
194.379
1835.11
1887.13
1925.79
1950.9
1962.41
1960.43
1945.22
1917.22
1877.02
1825.36
1763.15
1691.43
1611.39
1524.36
1431.81
1335.23
1236.08
1135.51
1034.02
930.91
823.408
705.444
566.726
395.984
195.35
1809.23
1860.56
1898.74
1923.58
1935.04
1933.22
1918.38
1890.96
1851.52
1800.81
1739.71
1669.25
1590.61
1505.11
1414.17
1319.28
1221.83
1122.94
1023.05
921.416
815.283
698.654
561.423
392.567
194.186
1809.23
1860.56
1898.74
1923.58
1935.04
1933.22
1918.39
1890.96
1851.52
1800.81
1739.71
1669.25
1590.61
1505.11
1414.18
1319.28
1221.84
1122.94
1023.05
921.417
815.284
698.654
561.424
392.568
194.187
1835.11
1887.13
1925.79
1950.9
1962.41
1960.43
1945.22
1917.22
1877.02
1825.36
1763.15
1691.43
1611.39
1524.36
1431.81
1335.23
1236.08
1135.51
1034.02
930.91
823.408
705.444
566.726
395.984
195.35
)
;

boundaryField
{
    outletCentralUnloaded
    {
        type            zeroGradient;
    }
    inletCentralUnloaded
    {
        type            zeroGradient;
    }
    outletFuelElement
    {
        type            zeroGradient;
    }
    inletFuelElement
    {
        type            zeroGradient;
    }
    defaultFaces
    {
        type            zeroGradient;
    }
    baffle_master
    {
        type            zeroGradient;
    }
    baffle_slave
    {
        type            zeroGradient;
    }
}


// ************************************************************************* //
