/*--------------------------------*- C++ -*----------------------------------*\
| =========                 |                                                 |
| \\      /  F ield         | OpenFOAM: The Open Source CFD Toolbox           |
|  \\    /   O peration     | Version:  2212                                  |
|   \\  /    A nd           | Website:  www.openfoam.com                      |
|    \\/     M anipulation  |                                                 |
\*---------------------------------------------------------------------------*/
FoamFile
{
    version     2.0;
    format      ascii;
    arch        "LSB;label=32;scalar=64";
    class       volScalarField;
    location    "32/fluidRegion";
    object      Tco.nuclearFuelPin;
}
// * * * * * * * * * * * * * * * * * * * * * * * * * * * * * * * * * * * * * //

dimensions      [0 0 0 1 0 0 0];

internalField   nonuniform List<scalar> 
350
(
0
0
0
0
0
0
0
0
0
0
0
0
0
0
0
0
0
0
0
0
0
0
0
0
0
0
0
0
0
0
0
0
0
0
0
0
0
0
0
0
0
0
0
0
0
0
0
0
0
0
1804.56
1832.8
1848.39
1851.5
1842.43
1821.6
1789.58
1747.06
1694.87
1633.93
1565.29
1490.11
1409.63
1325.2
1238.23
1150.13
1062.21
975.422
890.031
805.068
717.495
620.993
505.081
358.32
182.452
1832.07
1860.83
1876.72
1879.9
1870.69
1849.5
1816.91
1773.63
1720.5
1658.45
1588.55
1511.97
1429.98
1343.94
1255.27
1165.45
1075.8
987.341
900.396
814.029
725.194
627.488
510.218
361.661
183.583
1800.08
1828.26
1843.82
1846.94
1837.91
1817.16
1785.25
1742.86
1690.83
1630.08
1561.66
1486.71
1406.48
1322.31
1235.6
1147.78
1060.13
973.603
888.454
803.711
716.337
620.026
504.328
357.834
182.28
1825.89
1854.51
1870.31
1873.47
1864.27
1843.15
1810.68
1767.57
1714.64
1652.83
1583.22
1506.95
1425.3
1339.62
1251.34
1161.91
1072.66
984.586
897.999
811.956
723.412
625.983
509.027
360.886
183.321
1825.89
1854.51
1870.31
1873.47
1864.27
1843.15
1810.68
1767.57
1714.64
1652.83
1583.22
1506.95
1425.3
1339.62
1251.34
1161.91
1072.66
984.586
897.999
811.956
723.412
625.983
509.028
360.886
183.321
1800.08
1828.26
1843.82
1846.95
1837.91
1817.16
1785.25
1742.86
1690.83
1630.08
1561.66
1486.71
1406.48
1322.31
1235.6
1147.78
1060.13
973.604
888.455
803.712
716.338
620.027
504.329
357.835
182.28
1832.07
1860.83
1876.72
1879.9
1870.69
1849.5
1816.91
1773.63
1720.5
1658.45
1588.55
1511.97
1429.98
1343.94
1255.27
1165.45
1075.8
987.341
900.396
814.029
725.194
627.488
510.218
361.661
183.583
1804.56
1832.8
1848.39
1851.5
1842.43
1821.6
1789.58
1747.06
1694.87
1633.93
1565.29
1490.11
1409.63
1325.2
1238.23
1150.13
1062.21
975.422
890.031
805.068
717.495
620.993
505.082
358.32
182.452
1825.89
1854.51
1870.31
1873.47
1864.27
1843.15
1810.68
1767.57
1714.64
1652.83
1583.22
1506.95
1425.3
1339.62
1251.34
1161.91
1072.66
984.586
897.999
811.956
723.412
625.983
509.028
360.886
183.321
1800.08
1828.26
1843.82
1846.94
1837.91
1817.16
1785.25
1742.86
1690.83
1630.08
1561.66
1486.71
1406.48
1322.31
1235.6
1147.78
1060.13
973.603
888.454
803.711
716.337
620.026
504.328
357.834
182.28
1800.08
1828.26
1843.82
1846.95
1837.91
1817.16
1785.25
1742.86
1690.83
1630.08
1561.66
1486.71
1406.48
1322.31
1235.6
1147.78
1060.13
973.604
888.455
803.712
716.338
620.027
504.329
357.835
182.28
1825.89
1854.51
1870.31
1873.47
1864.27
1843.15
1810.68
1767.57
1714.64
1652.83
1583.22
1506.95
1425.3
1339.62
1251.34
1161.91
1072.66
984.586
897.999
811.956
723.412
625.983
509.028
360.886
183.321
)
;

boundaryField
{
    outletCentralUnloaded
    {
        type            zeroGradient;
    }
    inletCentralUnloaded
    {
        type            zeroGradient;
    }
    outletFuelElement
    {
        type            zeroGradient;
    }
    inletFuelElement
    {
        type            zeroGradient;
    }
    defaultFaces
    {
        type            zeroGradient;
    }
    baffle_master
    {
        type            zeroGradient;
    }
    baffle_slave
    {
        type            zeroGradient;
    }
}


// ************************************************************************* //
