/*--------------------------------*- C++ -*----------------------------------*\
| =========                 |                                                 |
| \\      /  F ield         | OpenFOAM: The Open Source CFD Toolbox           |
|  \\    /   O peration     | Version:  2212                                  |
|   \\  /    A nd           | Website:  www.openfoam.com                      |
|    \\/     M anipulation  |                                                 |
\*---------------------------------------------------------------------------*/
FoamFile
{
    version     2.0;
    format      ascii;
    arch        "LSB;label=32;scalar=64";
    class       volScalarField;
    location    "32/fluidRegion";
    object      Tfav.nuclearFuelPin;
}
// * * * * * * * * * * * * * * * * * * * * * * * * * * * * * * * * * * * * * //

dimensions      [0 0 0 1 0 0 0];

internalField   nonuniform List<scalar> 
350
(
0
0
0
0
0
0
0
0
0
0
0
0
0
0
0
0
0
0
0
0
0
0
0
0
0
0
0
0
0
0
0
0
0
0
0
0
0
0
0
0
0
0
0
0
0
0
0
0
0
0
2098.94
2877.88
3626.85
4334.46
4989.89
5583.11
6105
6547.55
6903.94
7168.67
7337.68
7408.39
7379.77
7252.35
7028.23
6711
6305.54
5817.81
5254.37
4621.9
3926.12
3170.83
2356.82
1485.12
569.247
2128.93
2917
3674.68
4390.45
5053.36
5653.28
6180.99
6628.36
6988.52
7255.91
7426.42
7497.44
7467.94
7338.46
7111.13
6789.59
6378.83
5884.89
5314.46
4674.36
3970.38
3206.34
2382.98
1501.18
574.64
2094.07
2871.58
3619.18
4325.5
4979.76
5571.93
6092.91
6534.71
6890.51
7154.83
7323.61
7394.28
7365.8
7238.71
7015.11
6698.56
6293.95
5807.2
5244.86
4613.61
3919.14
3165.23
2352.72
1482.6
568.396
2122.17
2908.12
3663.78
4377.65
5038.84
5637.2
6163.55
6609.81
6969.09
7235.86
7406.01
7476.95
7447.65
7318.64
7092.04
6771.49
6361.95
5869.44
5300.62
4662.27
3960.18
3198.16
2376.95
1497.48
573.398
2122.17
2908.12
3663.78
4377.65
5038.84
5637.2
6163.55
6609.81
6969.09
7235.86
7406.01
7476.95
7447.65
7318.64
7092.04
6771.49
6361.95
5869.44
5300.62
4662.27
3960.18
3198.16
2376.95
1497.48
573.398
2094.07
2871.58
3619.18
4325.5
4979.76
5571.93
6092.91
6534.71
6890.51
7154.83
7323.61
7394.28
7365.8
7238.71
7015.11
6698.56
6293.95
5807.2
5244.86
4613.61
3919.14
3165.24
2352.72
1482.6
568.396
2128.93
2917
3674.68
4390.45
5053.36
5653.28
6180.99
6628.36
6988.52
7255.91
7426.42
7497.44
7467.94
7338.46
7111.13
6789.59
6378.83
5884.89
5314.46
4674.36
3970.38
3206.34
2382.98
1501.18
574.64
2098.94
2877.88
3626.85
4334.46
4989.89
5583.11
6105
6547.55
6903.94
7168.67
7337.68
7408.39
7379.76
7252.35
7028.23
6711
6305.54
5817.81
5254.37
4621.9
3926.12
3170.83
2356.82
1485.12
569.247
2122.17
2908.12
3663.78
4377.65
5038.84
5637.2
6163.55
6609.81
6969.09
7235.86
7406.01
7476.95
7447.65
7318.64
7092.04
6771.49
6361.95
5869.44
5300.62
4662.27
3960.18
3198.16
2376.95
1497.48
573.398
2094.07
2871.58
3619.18
4325.5
4979.76
5571.93
6092.91
6534.71
6890.51
7154.83
7323.61
7394.27
7365.8
7238.71
7015.11
6698.56
6293.95
5807.2
5244.86
4613.61
3919.14
3165.23
2352.72
1482.6
568.396
2094.07
2871.58
3619.18
4325.5
4979.76
5571.93
6092.91
6534.71
6890.51
7154.83
7323.61
7394.28
7365.8
7238.71
7015.11
6698.56
6293.95
5807.2
5244.86
4613.61
3919.14
3165.23
2352.72
1482.6
568.396
2122.17
2908.12
3663.78
4377.65
5038.84
5637.2
6163.55
6609.81
6969.09
7235.86
7406.01
7476.95
7447.65
7318.64
7092.04
6771.49
6361.95
5869.44
5300.62
4662.27
3960.18
3198.16
2376.95
1497.48
573.398
)
;

boundaryField
{
    outletCentralUnloaded
    {
        type            zeroGradient;
    }
    inletCentralUnloaded
    {
        type            zeroGradient;
    }
    outletFuelElement
    {
        type            zeroGradient;
    }
    inletFuelElement
    {
        type            zeroGradient;
    }
    defaultFaces
    {
        type            zeroGradient;
    }
    baffle_master
    {
        type            zeroGradient;
    }
    baffle_slave
    {
        type            zeroGradient;
    }
}


// ************************************************************************* //
