/*--------------------------------*- C++ -*----------------------------------*\
| =========                 |                                                 |
| \\      /  F ield         | OpenFOAM: The Open Source CFD Toolbox           |
|  \\    /   O peration     | Version:  2212                                  |
|   \\  /    A nd           | Website:  www.openfoam.com                      |
|    \\/     M anipulation  |                                                 |
\*---------------------------------------------------------------------------*/
FoamFile
{
    version     2.0;
    format      ascii;
    arch        "LSB;label=32;scalar=64";
    class       volScalarField;
    location    "32/fluidRegion";
    object      Tfi.nuclearFuelPin;
}
// * * * * * * * * * * * * * * * * * * * * * * * * * * * * * * * * * * * * * //

dimensions      [0 0 0 1 0 0 0];

internalField   nonuniform List<scalar> 
350
(
0
0
0
0
0
0
0
0
0
0
0
0
0
0
0
0
0
0
0
0
0
0
0
0
0
0
0
0
0
0
0
0
0
0
0
0
0
0
0
0
0
0
0
0
0
0
0
0
0
0
2245.71
3419.34
4553.94
5632.05
6637.02
7553.3
8366.69
9064.58
9636.13
10072.5
10366.8
10514.7
10513.8
10364.2
10068.5
9631.25
9059.29
8361.18
7546.8
6626.85
5611.67
4510.41
3329.91
2077.81
773.843
2276.83
3464.11
4611.85
5702.37
6718.84
7645.54
8468.09
9173.75
9751.57
10192.6
10489.9
10639
10637.5
10485.7
10185.9
9743.03
9163.89
8457.2
7632.99
6702.13
5675.11
4561.15
3367.09
2100.54
781.472
2240.66
3412.13
4544.66
5620.81
6623.97
7538.6
8350.55
9047.21
9617.78
10053.4
10347.3
10495
10494.2
10345
10049.9
9613.52
9042.71
8345.96
7533.14
6614.92
5601.63
4502.39
3324.04
2074.23
772.636
2269.8
3453.93
4598.63
5686.28
6700.09
7624.37
8444.81
9148.67
9725.03
10164.9
10461.6
10610.4
10609
10457.7
10158.9
9717.29
9139.8
8435.09
7613.14
6684.79
5660.5
4549.46
3358.52
2095.3
779.715
2269.8
3453.93
4598.63
5686.28
6700.09
7624.37
8444.81
9148.67
9725.03
10164.9
10461.6
10610.4
10609
10457.7
10158.9
9717.29
9139.8
8435.09
7613.14
6684.79
5660.5
4549.46
3358.52
2095.3
779.715
2240.66
3412.13
4544.67
5620.81
6623.97
7538.6
8350.55
9047.21
9617.79
10053.4
10347.3
10495
10494.2
10345
10049.9
9613.52
9042.71
8345.96
7533.14
6614.92
5601.63
4502.4
3324.04
2074.23
772.636
2276.83
3464.11
4611.85
5702.37
6718.84
7645.54
8468.09
9173.75
9751.57
10192.6
10489.9
10639
10637.5
10485.7
10185.9
9743.03
9163.89
8457.2
7632.99
6702.13
5675.11
4561.15
3367.09
2100.54
781.472
2245.71
3419.34
4553.94
5632.05
6637.02
7553.3
8366.69
9064.58
9636.13
10072.5
10366.8
10514.7
10513.8
10364.2
10068.5
9631.25
9059.29
8361.18
7546.8
6626.85
5611.67
4510.41
3329.91
2077.81
773.843
2269.8
3453.93
4598.63
5686.28
6700.09
7624.37
8444.81
9148.67
9725.03
10164.9
10461.6
10610.4
10609
10457.7
10158.9
9717.29
9139.8
8435.09
7613.14
6684.79
5660.5
4549.46
3358.52
2095.3
779.715
2240.66
3412.13
4544.66
5620.81
6623.97
7538.6
8350.55
9047.21
9617.78
10053.4
10347.3
10495
10494.2
10345
10049.9
9613.52
9042.71
8345.96
7533.14
6614.92
5601.63
4502.39
3324.04
2074.23
772.636
2240.66
3412.13
4544.66
5620.81
6623.97
7538.6
8350.55
9047.21
9617.79
10053.4
10347.3
10495
10494.2
10345
10049.9
9613.52
9042.71
8345.96
7533.14
6614.92
5601.63
4502.39
3324.04
2074.23
772.636
2269.8
3453.93
4598.63
5686.28
6700.09
7624.37
8444.81
9148.67
9725.03
10164.9
10461.6
10610.4
10609
10457.7
10158.9
9717.29
9139.8
8435.09
7613.14
6684.79
5660.5
4549.46
3358.52
2095.3
779.715
)
;

boundaryField
{
    outletCentralUnloaded
    {
        type            zeroGradient;
    }
    inletCentralUnloaded
    {
        type            zeroGradient;
    }
    outletFuelElement
    {
        type            zeroGradient;
    }
    inletFuelElement
    {
        type            zeroGradient;
    }
    defaultFaces
    {
        type            zeroGradient;
    }
    baffle_master
    {
        type            zeroGradient;
    }
    baffle_slave
    {
        type            zeroGradient;
    }
}


// ************************************************************************* //
