/*--------------------------------*- C++ -*----------------------------------*\
| =========                 |                                                 |
| \\      /  F ield         | OpenFOAM: The Open Source CFD Toolbox           |
|  \\    /   O peration     | Version:  2212                                  |
|   \\  /    A nd           | Website:  www.openfoam.com                      |
|    \\/     M anipulation  |                                                 |
\*---------------------------------------------------------------------------*/
FoamFile
{
    version     2.0;
    format      ascii;
    arch        "LSB;label=32;scalar=64";
    class       volScalarField;
    location    "32/fluidRegion";
    object      Tfo.nuclearFuelPin;
}
// * * * * * * * * * * * * * * * * * * * * * * * * * * * * * * * * * * * * * //

dimensions      [0 0 0 1 0 0 0];

internalField   nonuniform List<scalar> 
350
(
0
0
0
0
0
0
0
0
0
0
0
0
0
0
0
0
0
0
0
0
0
0
0
0
0
0
0
0
0
0
0
0
0
0
0
0
0
0
0
0
0
0
0
0
0
0
0
0
0
0
1947.58
2334.22
2699.91
3039.32
3347.43
3619.69
3852.03
4040.99
4183.74
4278.16
4322.85
4317.18
4261.32
4156.22
4003.63
3805.99
3566.34
3288.01
2974.27
2627.81
2249.76
1838.62
1389.27
896.182
366.73
1976.34
2367.6
2737.6
3080.94
3392.55
3667.82
3902.63
4093.5
4237.56
4332.67
4377.41
4371.16
4314.08
4207.15
4052.14
3851.54
3608.45
3326.28
3008.39
2657.55
2274.92
1858.98
1404.45
905.603
369.898
1942.91
2328.83
2693.85
3032.65
3340.23
3612.02
3843.98
4032.65
4175.21
4269.53
4314.22
4308.66
4252.99
4148.19
3995.99
3798.82
3559.72
3281.99
2968.9
2623.14
2245.82
1835.44
1386.91
894.727
366.234
1969.86
2360.04
2729.04
3071.46
3382.26
3656.81
3891.04
4081.46
4225.21
4320.15
4364.87
4358.74
4301.94
4195.43
4040.97
3841.05
3598.75
3317.46
3000.53
2650.69
2269.12
1854.28
1400.95
903.428
369.168
1969.86
2360.04
2729.04
3071.46
3382.25
3656.81
3891.04
4081.46
4225.21
4320.15
4364.87
4358.74
4301.94
4195.43
4040.97
3841.05
3598.75
3317.46
3000.53
2650.69
2269.12
1854.28
1400.95
903.428
369.168
1942.91
2328.83
2693.86
3032.65
3340.23
3612.02
3843.98
4032.65
4175.21
4269.53
4314.22
4308.66
4252.99
4148.19
3995.99
3798.83
3559.72
3281.99
2968.91
2623.14
2245.82
1835.44
1386.91
894.727
366.234
1976.34
2367.6
2737.6
3080.94
3392.55
3667.82
3902.63
4093.5
4237.56
4332.67
4377.41
4371.16
4314.08
4207.15
4052.14
3851.54
3608.45
3326.28
3008.39
2657.55
2274.92
1858.98
1404.45
905.603
369.898
1947.58
2334.22
2699.91
3039.32
3347.43
3619.69
3852.03
4040.99
4183.74
4278.16
4322.85
4317.18
4261.32
4156.22
4003.63
3805.99
3566.34
3288.01
2974.27
2627.81
2249.76
1838.62
1389.27
896.182
366.73
1969.86
2360.04
2729.04
3071.46
3382.25
3656.81
3891.04
4081.46
4225.21
4320.15
4364.87
4358.74
4301.94
4195.43
4040.97
3841.05
3598.75
3317.46
3000.53
2650.69
2269.12
1854.28
1400.95
903.428
369.168
1942.91
2328.83
2693.85
3032.65
3340.23
3612.02
3843.98
4032.65
4175.21
4269.53
4314.22
4308.66
4252.99
4148.19
3995.99
3798.82
3559.72
3281.99
2968.9
2623.14
2245.82
1835.44
1386.91
894.727
366.234
1942.91
2328.83
2693.86
3032.65
3340.23
3612.02
3843.98
4032.65
4175.21
4269.53
4314.22
4308.66
4252.99
4148.19
3995.99
3798.82
3559.72
3281.99
2968.91
2623.14
2245.82
1835.44
1386.91
894.727
366.234
1969.86
2360.04
2729.04
3071.46
3382.25
3656.81
3891.04
4081.46
4225.21
4320.15
4364.87
4358.74
4301.94
4195.43
4040.97
3841.05
3598.75
3317.46
3000.53
2650.69
2269.12
1854.28
1400.95
903.428
369.168
)
;

boundaryField
{
    outletCentralUnloaded
    {
        type            zeroGradient;
    }
    inletCentralUnloaded
    {
        type            zeroGradient;
    }
    outletFuelElement
    {
        type            zeroGradient;
    }
    inletFuelElement
    {
        type            zeroGradient;
    }
    defaultFaces
    {
        type            zeroGradient;
    }
    baffle_master
    {
        type            zeroGradient;
    }
    baffle_slave
    {
        type            zeroGradient;
    }
}


// ************************************************************************* //
