/*--------------------------------*- C++ -*----------------------------------*\
| =========                 |                                                 |
| \\      /  F ield         | OpenFOAM: The Open Source CFD Toolbox           |
|  \\    /   O peration     | Version:  2212                                  |
|   \\  /    A nd           | Website:  www.openfoam.com                      |
|    \\/     M anipulation  |                                                 |
\*---------------------------------------------------------------------------*/
FoamFile
{
    version     2.0;
    format      ascii;
    arch        "LSB;label=32;scalar=64";
    class       surfaceScalarField;
    location    "31/fluidRegion";
    object      alphaRhoPhi;
}
// * * * * * * * * * * * * * * * * * * * * * * * * * * * * * * * * * * * * * //

dimensions      [1 0 -1 0 0 0 0];

oriented        oriented;

internalField   nonuniform List<scalar> 
661
(
-0.00584878
-3.71703e-10
-0.00584882
-4.47787e-10
-0.00584888
-3.515e-10
-0.00584896
-2.06848e-10
-0.00584904
-4.54552e-11
-0.00584912
1.14818e-10
-0.00584919
2.60886e-10
-0.00584925
3.80874e-10
-0.00584928
4.63259e-10
-0.00584929
4.98567e-10
-0.00584927
4.81272e-10
-0.00584923
4.11964e-10
-0.00584916
2.98836e-10
-0.00584909
1.57436e-10
-0.00584901
7.32423e-12
-0.00584894
-1.32836e-10
-0.00584887
-2.49751e-10
-0.00584882
-3.37202e-10
-0.00584879
-3.94685e-10
-0.00584879
-4.24761e-10
-0.0058488
-4.30242e-10
-0.00584884
-4.14271e-10
-0.00584889
-3.49798e-10
-0.00584896
-2.94385e-11
6.8771e-10
-0.00584878
-0.00584882
-0.00584888
-0.00584896
-0.00584904
-0.00584912
-0.00584919
-0.00584925
-0.00584928
-0.00584929
-0.00584927
-0.00584923
-0.00584916
-0.00584909
-0.00584901
-0.00584894
-0.00584887
-0.00584882
-0.00584879
-0.00584879
-0.0058488
-0.00584884
-0.00584889
-0.00584896
-0.00935297
6.30836e-07
-0.00935321
3.23727e-07
-0.00935349
3.63265e-07
-0.00935375
3.36629e-07
-0.00935399
3.15881e-07
-0.00935422
2.9736e-07
-0.00935443
2.80719e-07
-0.00935463
2.63974e-07
-0.00935482
2.42991e-07
-0.00935498
2.09822e-07
-0.0093551
1.52556e-07
-0.00935514
5.44797e-08
-0.00935506
-9.93611e-08
-0.00935479
-3.16245e-07
-0.00935428
-5.94918e-07
-0.00935348
-9.17258e-07
-0.00935235
-1.25913e-06
-0.00935089
-1.60679e-06
-0.00934907
-1.97353e-06
-0.00934682
-2.40905e-06
-0.009344
-3.00031e-06
-0.00934035
-3.83391e-06
-0.00933561
-4.92409e-06
-0.00933005
-5.76231e-06
-6.95442e-06
-0.00927018
-2.24613e-08
-2.07685e-08
-0.00926971
-8.78594e-08
-8.82316e-08
-0.00926921
-8.45862e-08
-8.41063e-08
-0.00926875
-7.56482e-08
-7.46712e-08
-0.00926833
-6.81508e-08
-6.67364e-08
-0.00926794
-6.11592e-08
-5.96586e-08
-0.00926757
-5.45035e-08
-5.30033e-08
-0.00926724
-4.77471e-08
-4.63525e-08
-0.00926695
-3.9625e-08
-3.83519e-08
-0.0092667
-2.79744e-08
-2.69148e-08
-0.00926655
-8.90838e-09
-8.0882e-09
-0.00926655
2.19946e-08
2.25069e-08
-0.00926678
6.98582e-08
6.99732e-08
-0.00926737
1.40648e-07
1.40174e-07
-0.00926841
2.3258e-07
2.31344e-07
-0.00926997
3.41441e-07
3.39129e-07
-0.00927212
4.60215e-07
4.56444e-07
-0.00927485
5.84827e-07
5.78919e-07
-0.00927822
7.205e-07
7.11297e-07
-0.00928235
8.84436e-07
8.70343e-07
-0.00928752
1.10655e-06
1.08465e-06
-0.00929412
1.40982e-06
1.3766e-06
-0.00930253
1.77254e-06
1.71846e-06
-0.00931202
1.89552e-06
1.821e-06
1.85076e-06
1.7776e-06
-0.00936656
3.22017e-07
-0.0093669
3.23534e-07
-0.00936725
3.19056e-07
-0.00936756
2.92327e-07
-0.00936784
2.69339e-07
-0.0093681
2.48653e-07
-0.00936834
2.29315e-07
-0.00936856
2.0916e-07
-0.00936875
1.83185e-07
-0.00936889
1.42746e-07
-0.00936897
7.44138e-08
-0.00936892
-3.82074e-08
-0.00936868
-2.11489e-07
-0.00936816
-4.53729e-07
-0.00936727
-7.61458e-07
-0.00936595
-1.11493e-06
-0.00936415
-1.48942e-06
-0.00936185
-1.87243e-06
-0.00935902
-2.28187e-06
-0.00935555
-2.77364e-06
-0.0093512
-3.4387e-06
-0.00934564
-4.36061e-06
-0.00933861
-5.46925e-06
-0.00933081
-6.11044e-06
-6.34406e-06
-0.00928874
1.45801e-09
-0.00928846
-3.2095e-11
-0.00928817
1.23837e-10
-0.00928792
9.37239e-11
-0.00928768
1.26472e-10
-0.00928746
1.47693e-10
-0.00928727
1.32104e-10
-0.00928709
1.5493e-10
-0.00928693
1.56633e-10
-0.00928681
1.29478e-10
-0.00928675
1.32327e-10
-0.00928679
1.51475e-10
-0.00928699
1.39387e-10
-0.00928741
9.29801e-11
-0.00928813
-5.65687e-11
-0.00928918
-3.38623e-10
-0.00929061
-7.12221e-10
-0.00929241
-1.12894e-09
-0.00929462
-1.85948e-09
-0.00929732
-2.88925e-09
-0.00930069
-4.36477e-09
-0.00930498
-6.93905e-09
-0.00931039
-1.20496e-08
-0.00931645
-1.62869e-08
-2.15722e-08
-0.00928876
-3.18902e-07
-0.00928847
-3.23632e-07
-0.00928819
-3.18708e-07
-0.00928793
-2.92032e-07
-0.00928769
-2.68992e-07
-0.00928748
-2.48282e-07
-0.00928728
-2.28952e-07
-0.0092871
-2.08747e-07
-0.00928694
-1.82754e-07
-0.00928682
-1.42321e-07
-0.00928676
-7.39501e-08
-0.0092868
3.87812e-08
-0.009287
2.12082e-07
-0.00928742
4.54313e-07
-0.00928814
7.61865e-07
-0.0092892
1.11497e-06
-0.00929062
1.48894e-06
-0.00929242
1.87129e-06
-0.00929463
2.27944e-06
-0.00929733
2.76914e-06
-0.0093007
3.43071e-06
-0.00930499
4.34641e-06
-0.0093104
5.44192e-06
-0.00931647
6.07095e-06
6.28771e-06
-0.00936656
2.04497e-08
-0.00936691
8.78138e-08
-0.00936725
8.46201e-08
-0.00936756
7.58945e-08
-0.00936785
6.8655e-08
-0.00936811
6.16615e-08
-0.00936834
5.51021e-08
-0.00936856
4.82899e-08
-0.00936875
4.02319e-08
-0.00936889
2.84897e-08
-0.00936897
9.49792e-09
-0.00936892
-2.14468e-08
-0.00936868
-6.91942e-08
-0.00936816
-1.39927e-07
-0.00936727
-2.31687e-07
-0.00936594
-3.40413e-07
-0.00936414
-4.58793e-07
-0.00936184
-5.82904e-07
-0.00935901
-7.17839e-07
-0.00935554
-8.81073e-07
-0.00935119
-1.10174e-06
-0.00934562
-1.40333e-06
-0.00933859
-1.76494e-06
-0.00933079
-1.88671e-06
-1.83133e-06
-0.00927018
-6.31174e-07
-2.26022e-08
-0.00926971
-3.24038e-07
-8.80665e-08
-0.00926921
-3.62935e-07
-8.43723e-08
-0.00926875
-3.35967e-07
-7.49794e-08
-0.00926833
-3.14842e-07
-6.71523e-08
-0.00926794
-2.96358e-07
-6.00713e-08
-0.00926757
-2.79616e-07
-5.34146e-08
-0.00926724
-2.63004e-07
-4.67427e-08
-0.00926695
-2.42002e-07
-3.87158e-08
-0.0092667
-2.09038e-07
-2.71886e-08
-0.00926655
-1.51781e-07
-8.29083e-09
-0.00926655
-5.39049e-08
2.23361e-08
-0.00926678
9.98012e-08
7.00045e-08
-0.00926737
3.16353e-07
1.40509e-07
-0.0092684
5.94643e-07
2.32222e-07
-0.00926997
9.16199e-07
3.40963e-07
-0.00927211
1.25709e-06
4.5978e-07
-0.00927485
1.60288e-06
5.84716e-07
-0.00927822
1.96629e-06
7.21574e-07
-0.00928235
2.39531e-06
8.88486e-07
-0.00928752
2.97436e-06
1.1172e-06
-0.00929412
3.78729e-06
1.43268e-06
-0.00930253
4.83522e-06
1.81696e-06
-0.00931202
5.62484e-06
1.9651e-06
6.76626e-06
1.96812e-06
-0.00935297
-0.00935321
-0.00935349
-0.00935375
-0.009354
-0.00935422
-0.00935443
-0.00935463
-0.00935482
-0.00935498
-0.0093551
-0.00935514
-0.00935506
-0.0093548
-0.00935428
-0.00935348
-0.00935235
-0.00935089
-0.00934907
-0.00934682
-0.009344
-0.00934035
-0.00933562
-0.00933005
-0.00928874
-3.22106e-07
1.37045e-09
-0.00928846
-3.23558e-07
-2.20329e-10
-0.00928817
-3.19002e-07
2.10734e-11
-0.00928792
-2.92246e-07
-1.19375e-11
-0.00928768
-2.69148e-07
-3.23843e-11
-0.00928746
-2.4845e-07
-8.06551e-11
-0.00928727
-2.29043e-07
-8.55912e-11
-0.00928709
-2.08861e-07
-1.36962e-10
-0.00928693
-1.82787e-07
-1.76744e-10
-0.00928681
-1.42341e-07
-2.12332e-10
-0.00928675
-7.3853e-08
-3.31653e-10
-0.00928679
3.88672e-08
-4.15273e-10
-0.00928699
2.12418e-07
-6.79236e-10
-0.00928741
4.54927e-07
-1.05358e-09
-0.00928813
7.63041e-07
-1.56599e-09
-0.00928918
1.11702e-06
-2.40917e-09
-0.00929061
1.49257e-06
-3.83365e-09
-0.00929241
1.87755e-06
-6.3911e-09
-0.00929462
2.29075e-06
-1.07319e-08
-0.00929732
2.78942e-06
-1.83001e-08
-0.00930069
3.46885e-06
-3.25052e-08
-0.00930498
4.41559e-06
-5.52155e-08
-0.00931039
5.56893e-06
-9.42383e-08
-0.00931645
6.27019e-06
-1.38342e-07
6.56745e-06
-1.8664e-07
-0.00936656
-0.0093669
-0.00936725
-0.00936756
-0.00936784
-0.0093681
-0.00936834
-0.00936856
-0.00936875
-0.00936889
-0.00936897
-0.00936892
-0.00936868
-0.00936816
-0.00936727
-0.00936594
-0.00936414
-0.00936185
-0.00935902
-0.00935555
-0.0093512
-0.00934563
-0.0093386
-0.00933081
-0.00936656
3.18689e-07
-0.00936691
3.23435e-07
-0.00936725
3.19245e-07
-0.00936756
2.93001e-07
-0.00936785
2.70503e-07
-0.00936811
2.49776e-07
-0.00936835
2.3059e-07
-0.00936856
2.10239e-07
-0.00936875
1.84316e-07
-0.00936889
1.43639e-07
-0.00936897
7.53014e-08
-0.00936892
-3.76072e-08
-0.00936868
-2.10882e-07
-0.00936816
-4.53347e-07
-0.00936727
-7.61032e-07
-0.00936594
-1.11461e-06
-0.00936414
-1.48887e-06
-0.00936184
-1.87192e-06
-0.00935901
-2.28131e-06
-0.00935554
-2.77415e-06
-0.00935119
-3.44159e-06
-0.00934562
-4.37033e-06
-0.00933859
-5.49444e-06
-0.00933079
-6.16277e-06
-6.40869e-06
-0.00928876
-0.00928847
-0.00928819
-0.00928793
-0.00928769
-0.00928748
-0.00928728
-0.0092871
-0.00928694
-0.00928682
-0.00928676
-0.0092868
-0.009287
-0.00928742
-0.00928814
-0.0092892
-0.00929062
-0.00929242
-0.00929463
-0.00929733
-0.0093007
-0.00930499
-0.0093104
-0.00931647
)
;

boundaryField
{
    outletCentralUnloaded
    {
        type            calculated;
        value           nonuniform List<scalar> 2(0.00584877 0.00584877);
    }
    inletCentralUnloaded
    {
        type            calculated;
        value           nonuniform List<scalar> 2(-0.00587368 -0.00587368);
    }
    outletFuelElement
    {
        type            calculated;
        value           nonuniform List<scalar> 
12
(
0.00935242
0.00927082
0.00936628
0.00928903
0.00928904
0.00936629
0.00927082
0.00935242
0.00928903
0.00936628
0.00936629
0.00928904
)
;
    }
    inletFuelElement
    {
        type            calculated;
        value           nonuniform List<scalar> 
12
(
-0.00949905
-0.00949905
-0.00949904
-0.00949904
-0.00949905
-0.00949905
-0.00949905
-0.00949905
-0.00949904
-0.00949904
-0.00949905
-0.00949905
)
;
    }
    defaultFaces
    {
        type            calculated;
        value           nonuniform List<scalar> 
450
(
1.15594e-24
-2.27829e-23
0
1.66949e-23
-4.25769e-25
0
8.02156e-24
1.2226e-23
0
-2.7679e-23
-1.37704e-23
0
-1.06058e-23
-2.30541e-23
0
-1.75003e-23
-1.00808e-23
0
-1.78251e-23
-1.16003e-23
0
-2.05463e-23
-7.06559e-24
0
-1.64159e-23
-5.23395e-24
0
-1.46641e-23
-6.12091e-24
0
-1.05393e-23
-5.13774e-24
0
-4.38872e-24
-2.52888e-24
0
8.64443e-24
3.71449e-24
0
1.84372e-23
1.30205e-23
0
3.5949e-23
1.14565e-23
0
5.44965e-23
3.96718e-23
0
6.46201e-23
-6.30944e-24
0
1.04123e-22
6.13801e-23
0
1.02645e-22
-1.22929e-22
0
-8.45842e-23
-7.88256e-23
0
-7.43179e-23
-1.3971e-23
0
1.68677e-22
-7.78315e-23
0
-1.9529e-22
8.46512e-23
0
-2.08789e-22
-9.66767e-23
0
-2.94349e-22
-1.56789e-22
0
5.6687e-24
0
1.53744e-23
0
-3.93508e-24
0
1.21663e-23
0
-4.20753e-24
0
1.09884e-23
0
1.15609e-23
0
4.9018e-24
0
-1.30935e-24
0
5.64418e-24
0
2.68605e-24
0
-1.68678e-24
0
-3.74946e-24
0
-4.21944e-24
0
-1.92557e-23
0
-4.46048e-23
0
6.56595e-23
0
-9.4509e-23
0
3.85732e-23
0
-1.45013e-22
0
-1.55382e-22
0
2.46252e-22
0
0
0
-2.24396e-22
0
-1.9112e-22
0
-7.45147e-24
-7.57748e-24
3.87838e-24
-7.993e-24
4.1459e-24
-4.3305e-24
0
-4.82854e-24
5.15871e-24
-2.7795e-24
0
8.30622e-25
3.69291e-24
8.31284e-24
2.84595e-23
2.19838e-23
-5.18061e-23
6.21857e-23
-7.62109e-23
0
6.15526e-23
-8.14323e-23
-2.20308e-22
0
9.54689e-23
0
0
0
0
0
0
0
0
0
0
0
0
0
0
0
0
0
0
0
0
0
0
0
0
0
-9.44782e-24
1.13374e-23
-3.8436e-24
1.15308e-23
1.18052e-23
1.96754e-23
-8.11086e-24
-6.08315e-24
8.41505e-24
-6.31129e-24
-6.59303e-24
-6.59303e-24
-6.93653e-24
-6.93653e-24
-4.9018e-24
-4.9018e-24
1.17842e-23
-5.23741e-24
-2.82209e-24
-4.23313e-24
-1.91861e-24
-3.06977e-24
8.43388e-25
1.42322e-24
3.74945e-24
5.62418e-24
4.21944e-24
8.43888e-24
2.88835e-23
2.40696e-23
4.46048e-23
3.34536e-23
-5.25275e-23
6.56594e-23
3.15029e-23
6.30059e-23
-1.15719e-22
1.15719e-22
-9.66751e-23
-9.66751e-23
0
-1.55382e-22
-2.46252e-22
1.23126e-22
-5.53977e-23
-2.21591e-22
7.47985e-23
-1.86996e-22
-2.86679e-22
-1.4334e-22
3.35642e-26
0
0
8.66776e-24
0
0
1.4266e-23
0
-2.35511e-23
-3.04044e-23
0
8.09036e-24
8.73097e-24
0
-4.19683e-24
-2.30312e-23
0
4.38413e-24
-2.32741e-23
0
0
-2.43357e-23
0
4.8892e-24
-1.26815e-23
0
-1.04478e-23
-1.78883e-23
0
2.81481e-24
-1.57324e-23
0
3.06186e-24
-4.75505e-24
0
0
9.8292e-24
-0
-1.86995e-24
2.26565e-23
-0
-1.26265e-23
5.94656e-23
-0
-1.92083e-23
6.66124e-23
-0
-2.22493e-23
6.18775e-23
-0
0
1.18564e-22
-0
-6.28707e-23
7.508e-23
-0
0
-1.21844e-22
-0
4.8251e-23
-2.6692e-24
-0
6.20561e-23
2.32191e-22
-0
8.19798e-23
-2.07676e-22
-0
0
-2.45422e-23
-0
1.49518e-22
-2.17792e-22
-0
1.91088e-22
0
0
7.75676e-24
0
8.2918e-24
-4.3305e-24
-4.55566e-24
-4.82854e-24
2.57936e-24
0
0
8.30622e-25
0
0
0
0
-5.18061e-23
3.10928e-23
-1.14316e-22
0
0
-2.44297e-22
-1.10154e-22
0
0
1.03926e-23
0
1.15308e-23
0
0
0
8.11087e-24
0
-2.10376e-24
0
6.59303e-24
0
6.93653e-24
0
7.3527e-24
0
2.61871e-24
0
4.23313e-24
0
1.91861e-24
0
-8.43388e-25
-0
-7.49891e-24
-0
-2.10972e-23
-0
-1.92557e-23
-0
-4.46048e-23
-0
6.56594e-23
-0
-6.3006e-23
-0
1.15719e-22
-0
-4.83376e-23
-0
-1.24306e-22
-0
2.87294e-22
-0
5.53977e-23
-0
-2.24396e-22
-0
-2.86679e-22
-0
-9.44782e-24
0
-7.6872e-24
7.6872e-24
-7.87015e-24
1.18052e-23
-4.05543e-24
-2.43326e-23
0
6.31129e-24
-2.19768e-24
-1.75814e-23
-9.2487e-24
-1.84974e-23
-4.9018e-24
-1.47054e-23
-1.30935e-24
-7.85611e-24
-4.23313e-24
-1.12883e-23
-2.30233e-24
-4.60466e-24
8.43388e-25
5.4186e-24
3.74945e-24
1.68725e-23
8.43888e-24
4.21944e-23
1.92556e-23
7.22087e-23
2.23024e-23
8.92096e-23
0
7.87912e-23
3.15029e-23
1.41763e-22
0
9.64327e-23
4.83376e-23
-1.20844e-22
-3.10764e-23
-9.32292e-23
4.1042e-23
2.46252e-22
1.66193e-22
-2.21591e-22
0
-1.86996e-22
0
-1.9112e-22
-0
-0
-0
-0
-0
-0
-0
-0
-0
-0
-0
0
0
0
0
0
0
0
0
0
0
0
0
0
0
)
;
    }
    baffle_master
    {
        type            calculated;
        value           nonuniform List<scalar> 
150
(
-5.63856e-27
0
7.95077e-27
6.91473e-27
0
-7.95143e-27
-6.36657e-27
0
7.95208e-27
3.91104e-27
0
0
-2.37098e-27
0
-1.98835e-27
-9.38434e-28
0
0
-4.11629e-27
0
-3.97735e-27
4.00067e-27
0
0
-2.72368e-27
0
-7.95602e-27
5.49854e-27
0
0
1.52916e-27
0
0
-7.71116e-27
0
0
1.56025e-27
0
3.97933e-27
4.84477e-28
0
0
-6.78665e-29
0
0
-3.96925e-28
0
1.99016e-27
2.2848e-26
0
1.19419e-26
3.82981e-28
0
7.96194e-27
2.36364e-26
0
1.59252e-26
-4.66779e-28
0
0
-3.92736e-27
0
0
-1.9828e-26
0
-1.59291e-26
6.10395e-27
0
7.96522e-27
1.06417e-28
0
9.95734e-28
-8.41586e-28
0
-1.5933e-26
0
-9.42164e-27
0
7.95143e-27
-1.75423e-26
0
7.95208e-27
-1.42189e-26
0
7.95273e-27
-9.16842e-27
0
9.94174e-28
7.92519e-28
0
-1.98851e-27
3.27022e-27
-0
-3.97735e-27
1.24946e-26
-0
-7.95536e-27
1.03802e-26
-0
7.95602e-27
1.4221e-26
-0
0
1.88277e-26
-0
0
2.34932e-26
-0
-1.5916e-26
1.38772e-26
-0
0
1.10872e-26
-0
-3.97966e-27
6.04929e-27
-0
-2.48749e-28
2.57273e-28
-0
1.99016e-27
-5.13543e-27
0
-1.19419e-26
-5.90713e-27
0
7.96194e-27
-1.41272e-26
0
-7.9626e-27
-3.38721e-27
0
0
6.59421e-27
0
7.96391e-27
2.9678e-27
0
-1.59291e-26
2.48905e-26
0
-7.96522e-27
-1.60116e-26
0
0
4.93522e-28
0
0
-7.86122e-27
-0
)
;
    }
    baffle_slave
    {
        type            calculated;
        value           nonuniform List<scalar> 
150
(
-2.08865e-24
-0
0
-2.62534e-24
-0
0
7.85065e-25
-0
-3.87838e-24
1.24453e-24
-0
0
-1.39428e-23
-0
-1.24377e-23
3.16882e-24
-0
0
2.83699e-25
-0
0
-4.51023e-25
-0
-4.82854e-24
2.0077e-24
-0
0
2.16343e-25
-0
-2.7795e-24
9.88328e-25
-0
1.51166e-24
7.75797e-26
0
0
-3.66475e-25
0
3.69292e-24
-2.10285e-25
0
-8.31284e-24
1.07071e-24
0
0
-1.36909e-24
0
0
-6.99801e-23
0
-7.77092e-23
-6.05298e-24
0
0
-8.39917e-23
0
-1.14316e-22
-6.70385e-24
0
0
-3.93358e-23
0
-6.15526e-23
1.66346e-22
0
1.62865e-22
-3.60911e-23
0
0
2.09506e-23
0
0
-5.36886e-23
0
-1.90938e-22
3.01694e-24
1.75215e-23
0
-3.99262e-24
9.69016e-24
0
2.86339e-24
1.2093e-23
0
-4.96087e-24
7.03157e-24
0
-2.65004e-24
-1.58793e-23
0
-2.39832e-24
9.3716e-24
0
-7.39215e-24
9.29113e-24
0
-5.30786e-24
9.09563e-24
0
8.5124e-24
7.14743e-24
0
-1.31667e-24
7.13933e-24
0
-2.18163e-24
6.0241e-24
0
5.34634e-25
2.32739e-24
0
3.53954e-24
-9.77267e-25
0
1.32787e-23
-6.03357e-24
0
3.84668e-24
-1.35316e-23
0
2.21797e-23
-1.63649e-23
0
-3.17994e-23
-3.04525e-23
0
3.241e-23
-3.69232e-23
0
-2.44321e-23
1.67687e-23
0
-7.99573e-24
4.65545e-23
0
-2.14052e-23
6.09225e-23
0
-1.73326e-22
1.47299e-22
0
-2.09608e-22
-1.03117e-22
0
-3.30949e-23
1.39671e-22
0
-5.02501e-23
1.84927e-22
0
)
;
    }
}


// ************************************************************************* //
