/*--------------------------------*- C++ -*----------------------------------*\
| =========                 |                                                 |
| \\      /  F ield         | OpenFOAM: The Open Source CFD Toolbox           |
|  \\    /   O peration     | Version:  2212                                  |
|   \\  /    A nd           | Website:  www.openfoam.com                      |
|    \\/     M anipulation  |                                                 |
\*---------------------------------------------------------------------------*/
FoamFile
{
    version     2.0;
    format      ascii;
    arch        "LSB;label=32;scalar=64";
    class       volScalarField;
    location    "31/fluidRegion";
    object      heatFlux.structure;
}
// * * * * * * * * * * * * * * * * * * * * * * * * * * * * * * * * * * * * * //

dimensions      [1 0 -3 0 0 0 0];

internalField   nonuniform List<scalar> 
350
(
-258279
-258283
-258287
-258293
-258298
-258304
-258310
-258315
-258319
-258323
-258325
-258327
-258328
-258329
-258329
-258329
-258329
-258330
-258331
-258334
-258337
-258340
-258345
-258350
-258794
-258279
-258283
-258287
-258293
-258298
-258304
-258310
-258315
-258319
-258323
-258325
-258327
-258328
-258329
-258329
-258329
-258329
-258330
-258331
-258334
-258337
-258340
-258345
-258350
-258794
331854
1.2134e+06
2.07467e+06
2.90209e+06
3.68262e+06
4.40397e+06
5.05478e+06
5.62481e+06
6.10508e+06
6.48805e+06
6.76771e+06
6.93967e+06
7.00125e+06
6.95149e+06
6.79119e+06
6.52288e+06
6.15076e+06
5.68068e+06
5.12002e+06
4.47776e+06
3.76421e+06
2.99129e+06
2.17242e+06
1.32245e+06
455266
334461
1.22612e+06
2.09727e+06
2.93419e+06
3.72369e+06
4.45334e+06
5.11164e+06
5.68824e+06
6.17406e+06
6.56147e+06
6.84438e+06
7.01836e+06
7.0807e+06
7.03043e+06
6.86836e+06
6.59704e+06
6.22073e+06
5.74534e+06
5.17832e+06
4.52876e+06
3.80707e+06
3.02531e+06
2.19705e+06
1.33735e+06
460260
331440
1.21138e+06
2.07107e+06
2.89697e+06
3.67608e+06
4.3961e+06
5.04572e+06
5.6147e+06
6.09409e+06
6.47635e+06
6.75549e+06
6.92713e+06
6.98859e+06
6.93891e+06
6.77889e+06
6.51106e+06
6.13961e+06
5.67037e+06
5.11072e+06
4.46963e+06
3.75738e+06
2.98587e+06
2.16849e+06
1.32007e+06
454470
333848
1.22318e+06
2.09206e+06
2.92679e+06
3.71423e+06
4.44197e+06
5.09855e+06
5.67363e+06
6.15818e+06
6.54457e+06
6.82673e+06
7.00025e+06
7.06241e+06
7.01226e+06
6.8506e+06
6.57997e+06
6.20463e+06
5.73045e+06
5.1649e+06
4.51702e+06
3.7972e+06
3.01748e+06
2.19138e+06
1.33392e+06
459110
333848
1.22318e+06
2.09206e+06
2.92679e+06
3.71423e+06
4.44197e+06
5.09855e+06
5.67363e+06
6.15818e+06
6.54457e+06
6.82673e+06
7.00025e+06
7.06241e+06
7.01226e+06
6.8506e+06
6.57997e+06
6.20463e+06
5.73045e+06
5.1649e+06
4.51702e+06
3.7972e+06
3.01748e+06
2.19138e+06
1.33392e+06
459110
331440
1.21138e+06
2.07107e+06
2.89697e+06
3.67608e+06
4.3961e+06
5.04572e+06
5.6147e+06
6.09409e+06
6.47635e+06
6.75549e+06
6.92713e+06
6.98858e+06
6.93891e+06
6.77889e+06
6.51106e+06
6.13961e+06
5.67037e+06
5.11072e+06
4.46963e+06
3.75738e+06
2.98587e+06
2.16849e+06
1.32007e+06
454470
334461
1.22612e+06
2.09727e+06
2.93419e+06
3.72369e+06
4.45334e+06
5.11164e+06
5.68824e+06
6.17406e+06
6.56147e+06
6.84438e+06
7.01836e+06
7.0807e+06
7.03043e+06
6.86836e+06
6.59704e+06
6.22073e+06
5.74533e+06
5.17832e+06
4.52876e+06
3.80707e+06
3.02531e+06
2.19705e+06
1.33735e+06
460260
331854
1.2134e+06
2.07467e+06
2.90209e+06
3.68262e+06
4.40397e+06
5.05478e+06
5.62481e+06
6.10508e+06
6.48805e+06
6.76771e+06
6.93967e+06
7.00125e+06
6.95149e+06
6.79119e+06
6.52288e+06
6.15076e+06
5.68068e+06
5.12002e+06
4.47776e+06
3.76421e+06
2.99129e+06
2.17242e+06
1.32245e+06
455266
333848
1.22318e+06
2.09206e+06
2.92679e+06
3.71423e+06
4.44197e+06
5.09855e+06
5.67363e+06
6.15818e+06
6.54457e+06
6.82673e+06
7.00025e+06
7.06241e+06
7.01226e+06
6.8506e+06
6.57997e+06
6.20463e+06
5.73045e+06
5.1649e+06
4.51702e+06
3.7972e+06
3.01748e+06
2.19138e+06
1.33392e+06
459110
331440
1.21138e+06
2.07107e+06
2.89697e+06
3.67608e+06
4.3961e+06
5.04572e+06
5.6147e+06
6.09409e+06
6.47635e+06
6.75549e+06
6.92713e+06
6.98858e+06
6.93891e+06
6.77889e+06
6.51106e+06
6.13961e+06
5.67037e+06
5.11072e+06
4.46963e+06
3.75738e+06
2.98587e+06
2.16849e+06
1.32007e+06
454470
331440
1.21138e+06
2.07107e+06
2.89697e+06
3.67608e+06
4.3961e+06
5.04572e+06
5.6147e+06
6.09409e+06
6.47635e+06
6.75549e+06
6.92713e+06
6.98858e+06
6.93891e+06
6.77889e+06
6.51106e+06
6.13961e+06
5.67037e+06
5.11072e+06
4.46963e+06
3.75738e+06
2.98587e+06
2.16849e+06
1.32007e+06
454470
333848
1.22318e+06
2.09206e+06
2.92679e+06
3.71423e+06
4.44197e+06
5.09855e+06
5.67363e+06
6.15818e+06
6.54457e+06
6.82673e+06
7.00025e+06
7.06241e+06
7.01226e+06
6.8506e+06
6.57997e+06
6.20463e+06
5.73045e+06
5.1649e+06
4.51702e+06
3.7972e+06
3.01748e+06
2.19138e+06
1.33392e+06
459110
)
;

boundaryField
{
    outletCentralUnloaded
    {
        type            zeroGradient;
    }
    inletCentralUnloaded
    {
        type            zeroGradient;
    }
    outletFuelElement
    {
        type            zeroGradient;
    }
    inletFuelElement
    {
        type            zeroGradient;
    }
    defaultFaces
    {
        type            zeroGradient;
    }
    baffle_master
    {
        type            zeroGradient;
    }
    baffle_slave
    {
        type            zeroGradient;
    }
}


// ************************************************************************* //
