/*--------------------------------*- C++ -*----------------------------------*\
| =========                 |                                                 |
| \\      /  F ield         | OpenFOAM: The Open Source CFD Toolbox           |
|  \\    /   O peration     | Version:  2212                                  |
|   \\  /    A nd           | Website:  www.openfoam.com                      |
|    \\/     M anipulation  |                                                 |
\*---------------------------------------------------------------------------*/
FoamFile
{
    version     2.0;
    format      ascii;
    arch        "LSB;label=32;scalar=64";
    class       volScalarField;
    location    "31/fluidRegion";
    object      htc;
}
// * * * * * * * * * * * * * * * * * * * * * * * * * * * * * * * * * * * * * //

dimensions      [1 0 -3 -1 0 0 0];

internalField   nonuniform List<scalar> 
350
(
3101
3101.03
3101.07
3101.12
3101.17
3101.22
3101.27
3101.31
3101.35
3101.37
3101.38
3101.39
3101.38
3101.37
3101.36
3101.34
3101.33
3101.32
3101.32
3101.33
3101.35
3101.37
3101.41
3101.45
3106.77
3101
3101.03
3101.07
3101.12
3101.17
3101.22
3101.27
3101.31
3101.35
3101.37
3101.38
3101.39
3101.38
3101.37
3101.36
3101.34
3101.33
3101.32
3101.32
3101.33
3101.35
3101.37
3101.41
3101.45
3106.77
26778.3
26708
26536.9
26241.3
25822.5
25282.8
24625.2
23853.6
22973.3
21991.7
20918.3
19765.5
18548.4
17283.3
15986
14669.9
13345.1
12019.6
10703
9411.62
8173.88
7035.97
6067.61
5359.16
4923.14
26864.5
26794.1
26623.7
26328.1
25908.9
25368.3
24709.1
23935.1
23051.6
22065.6
20986.6
19827
18601.9
17328.4
16022.8
14699.4
13368.4
12037.7
10716.6
9420.85
8178.63
7036.36
6064.6
5355.04
4921.24
26764.6
26694
26522.8
26227.2
25808.5
25269
24611.7
23840.5
22960.8
21979.9
20907.4
19755.8
18539.9
17276.1
15980
14665.1
13341.2
12016.4
10700.4
9409.66
8172.51
7035.16
6067.21
5358.91
4922.99
26845.4
26775
26604.4
26308.8
25889.6
25349.2
24690.3
23916.8
23034
22048.9
20971.1
19813.1
18589.8
17318.2
16014.5
14692.8
13363.2
12033.7
10713.6
9418.83
8177.63
7036.37
6065.4
5356.11
4921.74
26845.4
26775
26604.4
26308.8
25889.6
25349.2
24690.3
23916.8
23034
22048.9
20971.1
19813.1
18589.8
17318.2
16014.5
14692.8
13363.2
12033.7
10713.6
9418.83
8177.63
7036.37
6065.4
5356.11
4921.74
26764.6
26694
26522.9
26227.2
25808.5
25269
24611.7
23840.5
22960.8
21979.9
20907.4
19755.8
18539.9
17276.1
15980
14665.1
13341.2
12016.4
10700.4
9409.66
8172.51
7035.15
6067.2
5358.9
4922.99
26864.5
26794.1
26623.7
26328.1
25908.9
25368.3
24709.1
23935.1
23051.6
22065.6
20986.6
19827
18601.9
17328.4
16022.8
14699.4
13368.4
12037.7
10716.6
9420.85
8178.63
7036.36
6064.6
5355.04
4921.24
26778.3
26708
26536.9
26241.3
25822.5
25282.8
24625.2
23853.6
22973.3
21991.7
20918.3
19765.5
18548.4
17283.3
15986
14669.9
13345.1
12019.6
10703
9411.62
8173.88
7035.97
6067.61
5359.16
4923.14
26845.4
26775
26604.4
26308.8
25889.6
25349.2
24690.3
23916.8
23034
22048.9
20971.1
19813.1
18589.8
17318.2
16014.5
14692.8
13363.2
12033.7
10713.6
9418.83
8177.63
7036.37
6065.4
5356.11
4921.74
26764.6
26694
26522.8
26227.2
25808.5
25269
24611.7
23840.5
22960.8
21979.9
20907.4
19755.8
18539.9
17276.1
15980
14665.1
13341.2
12016.4
10700.4
9409.66
8172.51
7035.16
6067.21
5358.91
4922.99
26764.6
26694
26522.9
26227.2
25808.5
25269
24611.7
23840.5
22960.8
21979.9
20907.4
19755.8
18539.9
17276.1
15980
14665.1
13341.2
12016.4
10700.4
9409.66
8172.51
7035.15
6067.2
5358.9
4922.99
26845.4
26775
26604.4
26308.8
25889.6
25349.2
24690.3
23916.8
23034
22048.9
20971.1
19813.1
18589.8
17318.2
16014.5
14692.8
13363.2
12033.7
10713.6
9418.83
8177.63
7036.37
6065.4
5356.11
4921.74
)
;

boundaryField
{
    outletCentralUnloaded
    {
        type            zeroGradient;
    }
    inletCentralUnloaded
    {
        type            zeroGradient;
    }
    outletFuelElement
    {
        type            zeroGradient;
    }
    inletFuelElement
    {
        type            zeroGradient;
    }
    defaultFaces
    {
        type            zeroGradient;
    }
    baffle_master
    {
        type            zeroGradient;
    }
    baffle_slave
    {
        type            zeroGradient;
    }
}


// ************************************************************************* //
