/*--------------------------------*- C++ -*----------------------------------*\
| =========                 |                                                 |
| \\      /  F ield         | OpenFOAM: The Open Source CFD Toolbox           |
|  \\    /   O peration     | Version:  2212                                  |
|   \\  /    A nd           | Website:  www.openfoam.com                      |
|    \\/     M anipulation  |                                                 |
\*---------------------------------------------------------------------------*/
FoamFile
{
    version     2.0;
    format      ascii;
    arch        "LSB;label=32;scalar=64";
    class       volTensorField;
    location    "31/fluidRegion";
    object      Kd;
}
// * * * * * * * * * * * * * * * * * * * * * * * * * * * * * * * * * * * * * //

dimensions      [1 -3 -1 0 0 0 0];

internalField   nonuniform List<tensor> 
350
(
(84.7325 0 0 0 84.7325 0 0 0 84.7325)
(84.7328 0 0 0 84.7328 0 0 0 84.7328)
(84.7333 0 0 0 84.7333 0 0 0 84.7333)
(84.7341 0 0 0 84.7341 0 0 0 84.7341)
(84.7349 0 0 0 84.7349 0 0 0 84.7349)
(84.7358 0 0 0 84.7358 0 0 0 84.7358)
(84.7367 0 0 0 84.7367 0 0 0 84.7367)
(84.7373 0 0 0 84.7373 0 0 0 84.7373)
(84.7378 0 0 0 84.7378 0 0 0 84.7378)
(84.738 0 0 0 84.738 0 0 0 84.738)
(84.738 0 0 0 84.738 0 0 0 84.738)
(84.7376 0 0 0 84.7376 0 0 0 84.7376)
(84.7371 0 0 0 84.7371 0 0 0 84.7371)
(84.7363 0 0 0 84.7363 0 0 0 84.7363)
(84.7355 0 0 0 84.7355 0 0 0 84.7355)
(84.7347 0 0 0 84.7347 0 0 0 84.7347)
(84.7339 0 0 0 84.7339 0 0 0 84.7339)
(84.7333 0 0 0 84.7333 0 0 0 84.7333)
(84.7329 0 0 0 84.7329 0 0 0 84.7329)
(84.7327 0 0 0 84.7327 0 0 0 84.7327)
(84.7327 0 0 0 84.7327 0 0 0 84.7327)
(84.733 0 0 0 84.733 0 0 0 84.733)
(84.7334 0 0 0 84.7334 0 0 0 84.7334)
(84.7341 0 0 0 84.7341 0 0 0 84.7341)
(84.87 0 0 0 84.87 0 0 0 84.87)
(84.7325 0 0 0 84.7325 0 0 0 84.7325)
(84.7328 0 0 0 84.7328 0 0 0 84.7328)
(84.7333 0 0 0 84.7333 0 0 0 84.7333)
(84.7341 0 0 0 84.7341 0 0 0 84.7341)
(84.7349 0 0 0 84.7349 0 0 0 84.7349)
(84.7358 0 0 0 84.7358 0 0 0 84.7358)
(84.7367 0 0 0 84.7367 0 0 0 84.7367)
(84.7373 0 0 0 84.7373 0 0 0 84.7373)
(84.7378 0 0 0 84.7378 0 0 0 84.7378)
(84.738 0 0 0 84.738 0 0 0 84.738)
(84.738 0 0 0 84.738 0 0 0 84.738)
(84.7376 0 0 0 84.7376 0 0 0 84.7376)
(84.7371 0 0 0 84.7371 0 0 0 84.7371)
(84.7363 0 0 0 84.7363 0 0 0 84.7363)
(84.7355 0 0 0 84.7355 0 0 0 84.7355)
(84.7347 0 0 0 84.7347 0 0 0 84.7347)
(84.7339 0 0 0 84.7339 0 0 0 84.7339)
(84.7333 0 0 0 84.7333 0 0 0 84.7333)
(84.7329 0 0 0 84.7329 0 0 0 84.7329)
(84.7327 0 0 0 84.7327 0 0 0 84.7327)
(84.7327 0 0 0 84.7327 0 0 0 84.7327)
(84.733 0 0 0 84.733 0 0 0 84.733)
(84.7334 0 0 0 84.7334 0 0 0 84.7334)
(84.7341 0 0 0 84.7341 0 0 0 84.7341)
(84.87 0 0 0 84.87 0 0 0 84.87)
(680.355 0 0 0 680.355 0 0 0 680.355)
(679.788 0 0 0 679.788 0 0 0 679.788)
(679.802 0 0 0 679.802 0 0 0 679.802)
(679.806 0 0 0 679.806 0 0 0 679.806)
(679.799 0 0 0 679.799 0 0 0 679.799)
(679.779 0 0 0 679.779 0 0 0 679.779)
(679.744 0 0 0 679.744 0 0 0 679.744)
(679.694 0 0 0 679.694 0 0 0 679.694)
(679.627 0 0 0 679.627 0 0 0 679.627)
(679.54 0 0 0 679.54 0 0 0 679.54)
(679.432 0 0 0 679.432 0 0 0 679.432)
(679.304 0 0 0 679.304 0 0 0 679.304)
(679.154 0 0 0 679.154 0 0 0 679.154)
(678.985 0 0 0 678.985 0 0 0 678.985)
(678.792 0 0 0 678.792 0 0 0 678.792)
(678.565 0 0 0 678.565 0 0 0 678.565)
(678.289 0 0 0 678.289 0 0 0 678.289)
(677.947 0 0 0 677.947 0 0 0 677.947)
(677.536 0 0 0 677.536 0 0 0 677.536)
(677.112 0 0 0 677.112 0 0 0 677.112)
(676.859 0 0 0 676.859 0 0 0 676.859)
(677.322 0 0 0 677.322 0 0 0 677.322)
(679.782 0 0 0 679.782 0 0 0 679.782)
(686.45 0 0 0 686.45 0 0 0 686.45)
(690.479 0 0 0 690.479 0 0 0 690.479)
(675.888 0 0 0 675.888 0 0 0 675.888)
(675.249 0 0 0 675.249 0 0 0 675.249)
(675.222 0 0 0 675.222 0 0 0 675.222)
(675.186 0 0 0 675.186 0 0 0 675.186)
(675.141 0 0 0 675.141 0 0 0 675.141)
(675.086 0 0 0 675.086 0 0 0 675.086)
(675.02 0 0 0 675.02 0 0 0 675.02)
(674.94 0 0 0 674.94 0 0 0 674.94)
(674.844 0 0 0 674.844 0 0 0 674.844)
(674.733 0 0 0 674.733 0 0 0 674.733)
(674.605 0 0 0 674.605 0 0 0 674.605)
(674.466 0 0 0 674.466 0 0 0 674.466)
(674.321 0 0 0 674.321 0 0 0 674.321)
(674.18 0 0 0 674.18 0 0 0 674.18)
(674.048 0 0 0 674.048 0 0 0 674.048)
(673.925 0 0 0 673.925 0 0 0 673.925)
(673.8 0 0 0 673.8 0 0 0 673.8)
(673.659 0 0 0 673.659 0 0 0 673.659)
(673.497 0 0 0 673.497 0 0 0 673.497)
(673.376 0 0 0 673.376 0 0 0 673.376)
(673.494 0 0 0 673.494 0 0 0 673.494)
(674.427 0 0 0 674.427 0 0 0 674.427)
(677.511 0 0 0 677.511 0 0 0 677.511)
(685.005 0 0 0 685.005 0 0 0 685.005)
(690.011 0 0 0 690.011 0 0 0 690.011)
(681.101 0 0 0 681.101 0 0 0 681.101)
(680.532 0 0 0 680.532 0 0 0 680.532)
(680.55 0 0 0 680.55 0 0 0 680.55)
(680.558 0 0 0 680.558 0 0 0 680.558)
(680.553 0 0 0 680.553 0 0 0 680.553)
(680.535 0 0 0 680.535 0 0 0 680.535)
(680.502 0 0 0 680.502 0 0 0 680.502)
(680.453 0 0 0 680.453 0 0 0 680.453)
(680.386 0 0 0 680.386 0 0 0 680.386)
(680.299 0 0 0 680.299 0 0 0 680.299)
(680.19 0 0 0 680.19 0 0 0 680.19)
(680.058 0 0 0 680.058 0 0 0 680.058)
(679.903 0 0 0 679.903 0 0 0 679.903)
(679.722 0 0 0 679.722 0 0 0 679.722)
(679.512 0 0 0 679.512 0 0 0 679.512)
(679.262 0 0 0 679.262 0 0 0 679.262)
(678.954 0 0 0 678.954 0 0 0 678.954)
(678.572 0 0 0 678.572 0 0 0 678.572)
(678.112 0 0 0 678.112 0 0 0 678.112)
(677.629 0 0 0 677.629 0 0 0 677.629)
(677.304 0 0 0 677.304 0 0 0 677.304)
(677.676 0 0 0 677.676 0 0 0 677.676)
(680.023 0 0 0 680.023 0 0 0 680.023)
(686.559 0 0 0 686.559 0 0 0 686.559)
(690.495 0 0 0 690.495 0 0 0 690.495)
(676.887 0 0 0 676.887 0 0 0 676.887)
(676.269 0 0 0 676.269 0 0 0 676.269)
(676.253 0 0 0 676.253 0 0 0 676.253)
(676.228 0 0 0 676.228 0 0 0 676.228)
(676.194 0 0 0 676.194 0 0 0 676.194)
(676.149 0 0 0 676.149 0 0 0 676.149)
(676.091 0 0 0 676.091 0 0 0 676.091)
(676.02 0 0 0 676.02 0 0 0 676.02)
(675.933 0 0 0 675.933 0 0 0 675.933)
(675.828 0 0 0 675.828 0 0 0 675.828)
(675.707 0 0 0 675.707 0 0 0 675.707)
(675.572 0 0 0 675.572 0 0 0 675.572)
(675.428 0 0 0 675.428 0 0 0 675.428)
(675.282 0 0 0 675.282 0 0 0 675.282)
(675.138 0 0 0 675.138 0 0 0 675.138)
(674.993 0 0 0 674.993 0 0 0 674.993)
(674.835 0 0 0 674.835 0 0 0 674.835)
(674.65 0 0 0 674.65 0 0 0 674.65)
(674.432 0 0 0 674.432 0 0 0 674.432)
(674.243 0 0 0 674.243 0 0 0 674.243)
(674.278 0 0 0 674.278 0 0 0 674.278)
(675.105 0 0 0 675.105 0 0 0 675.105)
(678.047 0 0 0 678.047 0 0 0 678.047)
(685.353 0 0 0 685.353 0 0 0 685.353)
(690.127 0 0 0 690.127 0 0 0 690.127)
(676.887 0 0 0 676.887 0 0 0 676.887)
(676.269 0 0 0 676.269 0 0 0 676.269)
(676.253 0 0 0 676.253 0 0 0 676.253)
(676.228 0 0 0 676.228 0 0 0 676.228)
(676.194 0 0 0 676.194 0 0 0 676.194)
(676.149 0 0 0 676.149 0 0 0 676.149)
(676.091 0 0 0 676.091 0 0 0 676.091)
(676.02 0 0 0 676.02 0 0 0 676.02)
(675.933 0 0 0 675.933 0 0 0 675.933)
(675.828 0 0 0 675.828 0 0 0 675.828)
(675.707 0 0 0 675.707 0 0 0 675.707)
(675.572 0 0 0 675.572 0 0 0 675.572)
(675.428 0 0 0 675.428 0 0 0 675.428)
(675.282 0 0 0 675.282 0 0 0 675.282)
(675.138 0 0 0 675.138 0 0 0 675.138)
(674.993 0 0 0 674.993 0 0 0 674.993)
(674.835 0 0 0 674.835 0 0 0 674.835)
(674.65 0 0 0 674.65 0 0 0 674.65)
(674.432 0 0 0 674.432 0 0 0 674.432)
(674.243 0 0 0 674.243 0 0 0 674.243)
(674.278 0 0 0 674.278 0 0 0 674.278)
(675.105 0 0 0 675.105 0 0 0 675.105)
(678.047 0 0 0 678.047 0 0 0 678.047)
(685.353 0 0 0 685.353 0 0 0 685.353)
(690.127 0 0 0 690.127 0 0 0 690.127)
(681.101 0 0 0 681.101 0 0 0 681.101)
(680.532 0 0 0 680.532 0 0 0 680.532)
(680.55 0 0 0 680.55 0 0 0 680.55)
(680.558 0 0 0 680.558 0 0 0 680.558)
(680.553 0 0 0 680.553 0 0 0 680.553)
(680.534 0 0 0 680.534 0 0 0 680.534)
(680.502 0 0 0 680.502 0 0 0 680.502)
(680.453 0 0 0 680.453 0 0 0 680.453)
(680.386 0 0 0 680.386 0 0 0 680.386)
(680.299 0 0 0 680.299 0 0 0 680.299)
(680.19 0 0 0 680.19 0 0 0 680.19)
(680.058 0 0 0 680.058 0 0 0 680.058)
(679.902 0 0 0 679.902 0 0 0 679.902)
(679.722 0 0 0 679.722 0 0 0 679.722)
(679.512 0 0 0 679.512 0 0 0 679.512)
(679.261 0 0 0 679.261 0 0 0 679.261)
(678.954 0 0 0 678.954 0 0 0 678.954)
(678.572 0 0 0 678.572 0 0 0 678.572)
(678.111 0 0 0 678.111 0 0 0 678.111)
(677.628 0 0 0 677.628 0 0 0 677.628)
(677.303 0 0 0 677.303 0 0 0 677.303)
(677.675 0 0 0 677.675 0 0 0 677.675)
(680.022 0 0 0 680.022 0 0 0 680.022)
(686.557 0 0 0 686.557 0 0 0 686.557)
(690.495 0 0 0 690.495 0 0 0 690.495)
(675.888 0 0 0 675.888 0 0 0 675.888)
(675.249 0 0 0 675.249 0 0 0 675.249)
(675.222 0 0 0 675.222 0 0 0 675.222)
(675.186 0 0 0 675.186 0 0 0 675.186)
(675.141 0 0 0 675.141 0 0 0 675.141)
(675.086 0 0 0 675.086 0 0 0 675.086)
(675.02 0 0 0 675.02 0 0 0 675.02)
(674.94 0 0 0 674.94 0 0 0 674.94)
(674.844 0 0 0 674.844 0 0 0 674.844)
(674.733 0 0 0 674.733 0 0 0 674.733)
(674.605 0 0 0 674.605 0 0 0 674.605)
(674.466 0 0 0 674.466 0 0 0 674.466)
(674.321 0 0 0 674.321 0 0 0 674.321)
(674.18 0 0 0 674.18 0 0 0 674.18)
(674.048 0 0 0 674.048 0 0 0 674.048)
(673.925 0 0 0 673.925 0 0 0 673.925)
(673.8 0 0 0 673.8 0 0 0 673.8)
(673.659 0 0 0 673.659 0 0 0 673.659)
(673.497 0 0 0 673.497 0 0 0 673.497)
(673.376 0 0 0 673.376 0 0 0 673.376)
(673.494 0 0 0 673.494 0 0 0 673.494)
(674.427 0 0 0 674.427 0 0 0 674.427)
(677.511 0 0 0 677.511 0 0 0 677.511)
(685.005 0 0 0 685.005 0 0 0 685.005)
(690.011 0 0 0 690.011 0 0 0 690.011)
(680.355 0 0 0 680.355 0 0 0 680.355)
(679.788 0 0 0 679.788 0 0 0 679.788)
(679.802 0 0 0 679.802 0 0 0 679.802)
(679.806 0 0 0 679.806 0 0 0 679.806)
(679.799 0 0 0 679.799 0 0 0 679.799)
(679.779 0 0 0 679.779 0 0 0 679.779)
(679.744 0 0 0 679.744 0 0 0 679.744)
(679.694 0 0 0 679.694 0 0 0 679.694)
(679.627 0 0 0 679.627 0 0 0 679.627)
(679.54 0 0 0 679.54 0 0 0 679.54)
(679.432 0 0 0 679.432 0 0 0 679.432)
(679.304 0 0 0 679.304 0 0 0 679.304)
(679.154 0 0 0 679.154 0 0 0 679.154)
(678.985 0 0 0 678.985 0 0 0 678.985)
(678.792 0 0 0 678.792 0 0 0 678.792)
(678.565 0 0 0 678.565 0 0 0 678.565)
(678.289 0 0 0 678.289 0 0 0 678.289)
(677.947 0 0 0 677.947 0 0 0 677.947)
(677.536 0 0 0 677.536 0 0 0 677.536)
(677.112 0 0 0 677.112 0 0 0 677.112)
(676.859 0 0 0 676.859 0 0 0 676.859)
(677.322 0 0 0 677.322 0 0 0 677.322)
(679.782 0 0 0 679.782 0 0 0 679.782)
(686.45 0 0 0 686.45 0 0 0 686.45)
(690.479 0 0 0 690.479 0 0 0 690.479)
(676.887 0 0 0 676.887 0 0 0 676.887)
(676.269 0 0 0 676.269 0 0 0 676.269)
(676.253 0 0 0 676.253 0 0 0 676.253)
(676.228 0 0 0 676.228 0 0 0 676.228)
(676.194 0 0 0 676.194 0 0 0 676.194)
(676.149 0 0 0 676.149 0 0 0 676.149)
(676.091 0 0 0 676.091 0 0 0 676.091)
(676.02 0 0 0 676.02 0 0 0 676.02)
(675.933 0 0 0 675.933 0 0 0 675.933)
(675.828 0 0 0 675.828 0 0 0 675.828)
(675.707 0 0 0 675.707 0 0 0 675.707)
(675.572 0 0 0 675.572 0 0 0 675.572)
(675.428 0 0 0 675.428 0 0 0 675.428)
(675.282 0 0 0 675.282 0 0 0 675.282)
(675.138 0 0 0 675.138 0 0 0 675.138)
(674.993 0 0 0 674.993 0 0 0 674.993)
(674.835 0 0 0 674.835 0 0 0 674.835)
(674.65 0 0 0 674.65 0 0 0 674.65)
(674.432 0 0 0 674.432 0 0 0 674.432)
(674.243 0 0 0 674.243 0 0 0 674.243)
(674.278 0 0 0 674.278 0 0 0 674.278)
(675.105 0 0 0 675.105 0 0 0 675.105)
(678.047 0 0 0 678.047 0 0 0 678.047)
(685.353 0 0 0 685.353 0 0 0 685.353)
(690.127 0 0 0 690.127 0 0 0 690.127)
(681.101 0 0 0 681.101 0 0 0 681.101)
(680.532 0 0 0 680.532 0 0 0 680.532)
(680.55 0 0 0 680.55 0 0 0 680.55)
(680.558 0 0 0 680.558 0 0 0 680.558)
(680.553 0 0 0 680.553 0 0 0 680.553)
(680.535 0 0 0 680.535 0 0 0 680.535)
(680.502 0 0 0 680.502 0 0 0 680.502)
(680.453 0 0 0 680.453 0 0 0 680.453)
(680.386 0 0 0 680.386 0 0 0 680.386)
(680.299 0 0 0 680.299 0 0 0 680.299)
(680.19 0 0 0 680.19 0 0 0 680.19)
(680.058 0 0 0 680.058 0 0 0 680.058)
(679.903 0 0 0 679.903 0 0 0 679.903)
(679.722 0 0 0 679.722 0 0 0 679.722)
(679.512 0 0 0 679.512 0 0 0 679.512)
(679.262 0 0 0 679.262 0 0 0 679.262)
(678.954 0 0 0 678.954 0 0 0 678.954)
(678.572 0 0 0 678.572 0 0 0 678.572)
(678.112 0 0 0 678.112 0 0 0 678.112)
(677.629 0 0 0 677.629 0 0 0 677.629)
(677.304 0 0 0 677.304 0 0 0 677.304)
(677.676 0 0 0 677.676 0 0 0 677.676)
(680.023 0 0 0 680.023 0 0 0 680.023)
(686.559 0 0 0 686.559 0 0 0 686.559)
(690.496 0 0 0 690.496 0 0 0 690.496)
(681.101 0 0 0 681.101 0 0 0 681.101)
(680.532 0 0 0 680.532 0 0 0 680.532)
(680.55 0 0 0 680.55 0 0 0 680.55)
(680.558 0 0 0 680.558 0 0 0 680.558)
(680.553 0 0 0 680.553 0 0 0 680.553)
(680.535 0 0 0 680.535 0 0 0 680.535)
(680.502 0 0 0 680.502 0 0 0 680.502)
(680.453 0 0 0 680.453 0 0 0 680.453)
(680.386 0 0 0 680.386 0 0 0 680.386)
(680.299 0 0 0 680.299 0 0 0 680.299)
(680.19 0 0 0 680.19 0 0 0 680.19)
(680.058 0 0 0 680.058 0 0 0 680.058)
(679.902 0 0 0 679.902 0 0 0 679.902)
(679.722 0 0 0 679.722 0 0 0 679.722)
(679.512 0 0 0 679.512 0 0 0 679.512)
(679.262 0 0 0 679.262 0 0 0 679.262)
(678.954 0 0 0 678.954 0 0 0 678.954)
(678.572 0 0 0 678.572 0 0 0 678.572)
(678.111 0 0 0 678.111 0 0 0 678.111)
(677.628 0 0 0 677.628 0 0 0 677.628)
(677.303 0 0 0 677.303 0 0 0 677.303)
(677.675 0 0 0 677.675 0 0 0 677.675)
(680.022 0 0 0 680.022 0 0 0 680.022)
(686.557 0 0 0 686.557 0 0 0 686.557)
(690.495 0 0 0 690.495 0 0 0 690.495)
(676.887 0 0 0 676.887 0 0 0 676.887)
(676.269 0 0 0 676.269 0 0 0 676.269)
(676.253 0 0 0 676.253 0 0 0 676.253)
(676.228 0 0 0 676.228 0 0 0 676.228)
(676.194 0 0 0 676.194 0 0 0 676.194)
(676.149 0 0 0 676.149 0 0 0 676.149)
(676.091 0 0 0 676.091 0 0 0 676.091)
(676.02 0 0 0 676.02 0 0 0 676.02)
(675.933 0 0 0 675.933 0 0 0 675.933)
(675.828 0 0 0 675.828 0 0 0 675.828)
(675.707 0 0 0 675.707 0 0 0 675.707)
(675.572 0 0 0 675.572 0 0 0 675.572)
(675.428 0 0 0 675.428 0 0 0 675.428)
(675.282 0 0 0 675.282 0 0 0 675.282)
(675.138 0 0 0 675.138 0 0 0 675.138)
(674.993 0 0 0 674.993 0 0 0 674.993)
(674.835 0 0 0 674.835 0 0 0 674.835)
(674.65 0 0 0 674.65 0 0 0 674.65)
(674.432 0 0 0 674.432 0 0 0 674.432)
(674.243 0 0 0 674.243 0 0 0 674.243)
(674.278 0 0 0 674.278 0 0 0 674.278)
(675.105 0 0 0 675.105 0 0 0 675.105)
(678.047 0 0 0 678.047 0 0 0 678.047)
(685.354 0 0 0 685.354 0 0 0 685.354)
(690.127 0 0 0 690.127 0 0 0 690.127)
)
;

boundaryField
{
    outletCentralUnloaded
    {
        type            zeroGradient;
    }
    inletCentralUnloaded
    {
        type            zeroGradient;
    }
    outletFuelElement
    {
        type            zeroGradient;
    }
    inletFuelElement
    {
        type            zeroGradient;
    }
    defaultFaces
    {
        type            zeroGradient;
    }
    baffle_master
    {
        type            zeroGradient;
    }
    baffle_slave
    {
        type            zeroGradient;
    }
}


// ************************************************************************* //
