/*--------------------------------*- C++ -*----------------------------------*\
| =========                 |                                                 |
| \\      /  F ield         | OpenFOAM: The Open Source CFD Toolbox           |
|  \\    /   O peration     | Version:  2212                                  |
|   \\  /    A nd           | Website:  www.openfoam.com                      |
|    \\/     M anipulation  |                                                 |
\*---------------------------------------------------------------------------*/
FoamFile
{
    version     2.0;
    format      ascii;
    arch        "LSB;label=32;scalar=64";
    class       volScalarField;
    location    "31/fluidRegion";
    object      p_rgh;
}
// * * * * * * * * * * * * * * * * * * * * * * * * * * * * * * * * * * * * * //

dimensions      [1 -1 -2 0 0 0 0];

internalField   nonuniform List<scalar> 
350
(
3.44743e+06
3.44772e+06
3.44802e+06
3.44831e+06
3.44861e+06
3.4489e+06
3.4492e+06
3.4495e+06
3.44979e+06
3.45009e+06
3.45038e+06
3.45068e+06
3.45098e+06
3.45127e+06
3.45157e+06
3.45186e+06
3.45216e+06
3.45245e+06
3.45275e+06
3.45304e+06
3.45334e+06
3.45363e+06
3.45393e+06
3.45422e+06
3.4545e+06
3.44743e+06
3.44772e+06
3.44802e+06
3.44831e+06
3.44861e+06
3.4489e+06
3.4492e+06
3.4495e+06
3.44979e+06
3.45009e+06
3.45038e+06
3.45068e+06
3.45098e+06
3.45127e+06
3.45157e+06
3.45186e+06
3.45216e+06
3.45245e+06
3.45275e+06
3.45304e+06
3.45334e+06
3.45363e+06
3.45393e+06
3.45422e+06
3.4545e+06
3.47303e+06
3.52335e+06
3.57313e+06
3.62209e+06
3.6699e+06
3.71629e+06
3.761e+06
3.80379e+06
3.84445e+06
3.88279e+06
3.91864e+06
3.95187e+06
3.98237e+06
4.01005e+06
4.03487e+06
4.05682e+06
4.07594e+06
4.09233e+06
4.10612e+06
4.11748e+06
4.12659e+06
4.13368e+06
4.13899e+06
4.14281e+06
4.14548e+06
3.47303e+06
3.52335e+06
3.57313e+06
3.62209e+06
3.6699e+06
3.71629e+06
3.761e+06
3.80379e+06
3.84445e+06
3.88279e+06
3.91864e+06
3.95187e+06
3.98237e+06
4.01005e+06
4.03487e+06
4.05682e+06
4.07594e+06
4.09233e+06
4.10612e+06
4.11748e+06
4.12659e+06
4.13368e+06
4.13899e+06
4.14281e+06
4.14548e+06
3.47303e+06
3.52335e+06
3.57313e+06
3.62209e+06
3.6699e+06
3.71629e+06
3.761e+06
3.80379e+06
3.84445e+06
3.88279e+06
3.91864e+06
3.95187e+06
3.98237e+06
4.01005e+06
4.03487e+06
4.05682e+06
4.07594e+06
4.09233e+06
4.10612e+06
4.11748e+06
4.12659e+06
4.13368e+06
4.13899e+06
4.14281e+06
4.14548e+06
3.47303e+06
3.52335e+06
3.57313e+06
3.62209e+06
3.6699e+06
3.71629e+06
3.761e+06
3.80379e+06
3.84445e+06
3.88279e+06
3.91864e+06
3.95187e+06
3.98237e+06
4.01005e+06
4.03487e+06
4.05682e+06
4.07594e+06
4.09233e+06
4.10612e+06
4.11748e+06
4.12659e+06
4.13368e+06
4.13899e+06
4.14281e+06
4.14548e+06
3.47303e+06
3.52335e+06
3.57313e+06
3.62209e+06
3.6699e+06
3.71629e+06
3.761e+06
3.80379e+06
3.84445e+06
3.88279e+06
3.91864e+06
3.95187e+06
3.98237e+06
4.01005e+06
4.03487e+06
4.05682e+06
4.07594e+06
4.09233e+06
4.10612e+06
4.11748e+06
4.12659e+06
4.13368e+06
4.13899e+06
4.14281e+06
4.14548e+06
3.47303e+06
3.52335e+06
3.57313e+06
3.62209e+06
3.6699e+06
3.71629e+06
3.761e+06
3.80379e+06
3.84445e+06
3.88279e+06
3.91864e+06
3.95187e+06
3.98237e+06
4.01005e+06
4.03487e+06
4.05682e+06
4.07594e+06
4.09233e+06
4.10612e+06
4.11748e+06
4.12659e+06
4.13368e+06
4.13899e+06
4.14281e+06
4.14548e+06
3.47303e+06
3.52335e+06
3.57313e+06
3.62209e+06
3.6699e+06
3.71629e+06
3.761e+06
3.80379e+06
3.84445e+06
3.88279e+06
3.91864e+06
3.95187e+06
3.98237e+06
4.01005e+06
4.03487e+06
4.05682e+06
4.07594e+06
4.09233e+06
4.10612e+06
4.11748e+06
4.12659e+06
4.13368e+06
4.13899e+06
4.14281e+06
4.14548e+06
3.47303e+06
3.52335e+06
3.57313e+06
3.62209e+06
3.6699e+06
3.71629e+06
3.761e+06
3.80379e+06
3.84445e+06
3.88279e+06
3.91864e+06
3.95187e+06
3.98237e+06
4.01005e+06
4.03487e+06
4.05682e+06
4.07594e+06
4.09233e+06
4.10612e+06
4.11748e+06
4.12659e+06
4.13368e+06
4.13899e+06
4.14281e+06
4.14548e+06
3.47303e+06
3.52335e+06
3.57313e+06
3.62209e+06
3.6699e+06
3.71629e+06
3.761e+06
3.80379e+06
3.84445e+06
3.88279e+06
3.91864e+06
3.95187e+06
3.98237e+06
4.01005e+06
4.03487e+06
4.05682e+06
4.07594e+06
4.09233e+06
4.10612e+06
4.11748e+06
4.12659e+06
4.13368e+06
4.13899e+06
4.14281e+06
4.14548e+06
3.47303e+06
3.52335e+06
3.57313e+06
3.62209e+06
3.6699e+06
3.71629e+06
3.761e+06
3.80379e+06
3.84445e+06
3.88279e+06
3.91864e+06
3.95187e+06
3.98237e+06
4.01005e+06
4.03487e+06
4.05682e+06
4.07594e+06
4.09233e+06
4.10612e+06
4.11748e+06
4.12659e+06
4.13368e+06
4.13899e+06
4.14281e+06
4.14548e+06
3.47303e+06
3.52335e+06
3.57313e+06
3.62209e+06
3.6699e+06
3.71629e+06
3.761e+06
3.80379e+06
3.84445e+06
3.88279e+06
3.91864e+06
3.95187e+06
3.98237e+06
4.01005e+06
4.03487e+06
4.05682e+06
4.07594e+06
4.09233e+06
4.10612e+06
4.11748e+06
4.12659e+06
4.13368e+06
4.13899e+06
4.14281e+06
4.14548e+06
3.47303e+06
3.52335e+06
3.57313e+06
3.62209e+06
3.6699e+06
3.71629e+06
3.761e+06
3.80379e+06
3.84445e+06
3.88279e+06
3.91864e+06
3.95187e+06
3.98237e+06
4.01005e+06
4.03487e+06
4.05682e+06
4.07594e+06
4.09233e+06
4.10612e+06
4.11748e+06
4.12659e+06
4.13368e+06
4.13899e+06
4.14281e+06
4.14548e+06
)
;

boundaryField
{
    outletCentralUnloaded
    {
        type            fixedValue;
        value           uniform 3.44728e+06;
    }
    inletCentralUnloaded
    {
        type            zeroGradient;
    }
    outletFuelElement
    {
        type            fixedValue;
        value           uniform 3.44728e+06;
    }
    inletFuelElement
    {
        type            zeroGradient;
    }
    defaultFaces
    {
        type            zeroGradient;
    }
    baffle_master
    {
        type            zeroGradient;
    }
    baffle_slave
    {
        type            zeroGradient;
    }
}


// ************************************************************************* //
