/*--------------------------------*- C++ -*----------------------------------*\
| =========                 |                                                 |
| \\      /  F ield         | OpenFOAM: The Open Source CFD Toolbox           |
|  \\    /   O peration     | Version:  2212                                  |
|   \\  /    A nd           | Website:  www.openfoam.com                      |
|    \\/     M anipulation  |                                                 |
\*---------------------------------------------------------------------------*/
FoamFile
{
    version     2.0;
    format      ascii;
    arch        "LSB;label=32;scalar=64";
    class       volScalarField;
    location    "31/fluidRegion";
    object      Tci.nuclearFuelPin;
}
// * * * * * * * * * * * * * * * * * * * * * * * * * * * * * * * * * * * * * //

dimensions      [0 0 0 1 0 0 0];

internalField   nonuniform List<scalar> 
350
(
0
0
0
0
0
0
0
0
0
0
0
0
0
0
0
0
0
0
0
0
0
0
0
0
0
0
0
0
0
0
0
0
0
0
0
0
0
0
0
0
0
0
0
0
0
0
0
0
0
0
1806.93
1858.51
1896.92
1921.97
1933.62
1931.98
1917.3
1890.01
1850.69
1800.09
1739.08
1668.7
1590.13
1504.68
1413.79
1318.93
1221.5
1122.63
1022.74
921.111
814.971
698.343
561.173
392.545
194.608
1834.37
1886.73
1925.7
1951.08
1962.83
1961.05
1946
1918.13
1878.03
1826.44
1764.26
1692.55
1612.49
1525.42
1432.8
1336.13
1236.88
1136.2
1034.6
931.381
823.771
705.708
566.936
396.263
195.865
1802.47
1853.94
1892.28
1917.3
1928.95
1927.34
1912.74
1885.56
1846.38
1795.95
1735.13
1664.98
1586.65
1501.46
1410.85
1316.27
1219.14
1120.54
1020.92
919.545
813.638
697.237
560.319
391.999
194.416
1828.2
1880.37
1919.19
1944.48
1956.19
1954.43
1939.46
1911.71
1871.78
1820.4
1758.48
1687.07
1607.34
1520.64
1428.41
1332.16
1233.33
1133.07
1031.86
929.007
821.736
704.004
565.601
395.401
195.574
1828.2
1880.37
1919.19
1944.48
1956.19
1954.43
1939.46
1911.71
1871.78
1820.4
1758.48
1687.07
1607.34
1520.64
1428.41
1332.16
1233.33
1133.07
1031.86
929.007
821.736
704.004
565.601
395.401
195.574
1802.47
1853.94
1892.28
1917.3
1928.95
1927.35
1912.74
1885.56
1846.38
1795.95
1735.14
1664.98
1586.65
1501.47
1410.85
1316.27
1219.14
1120.54
1020.93
919.545
813.638
697.238
560.32
392
194.416
1834.37
1886.73
1925.7
1951.08
1962.83
1961.05
1946
1918.13
1878.03
1826.44
1764.26
1692.55
1612.49
1525.42
1432.8
1336.13
1236.88
1136.2
1034.6
931.381
823.771
705.709
566.937
396.263
195.865
1806.93
1858.51
1896.92
1921.97
1933.62
1931.98
1917.3
1890.01
1850.69
1800.09
1739.08
1668.7
1590.13
1504.68
1413.79
1318.93
1221.5
1122.63
1022.74
921.111
814.971
698.343
561.173
392.545
194.608
1828.2
1880.37
1919.19
1944.48
1956.19
1954.43
1939.46
1911.71
1871.78
1820.4
1758.48
1687.07
1607.34
1520.64
1428.41
1332.16
1233.33
1133.07
1031.86
929.007
821.736
704.004
565.601
395.401
195.574
1802.47
1853.94
1892.28
1917.3
1928.95
1927.34
1912.74
1885.56
1846.38
1795.95
1735.13
1664.98
1586.65
1501.46
1410.85
1316.27
1219.14
1120.54
1020.93
919.545
813.638
697.237
560.319
391.999
194.416
1802.47
1853.94
1892.28
1917.3
1928.95
1927.35
1912.74
1885.56
1846.38
1795.95
1735.14
1664.98
1586.65
1501.47
1410.85
1316.27
1219.14
1120.54
1020.93
919.545
813.638
697.238
560.32
392
194.416
1828.2
1880.37
1919.19
1944.48
1956.19
1954.43
1939.46
1911.71
1871.78
1820.4
1758.48
1687.07
1607.34
1520.64
1428.41
1332.16
1233.33
1133.07
1031.86
929.007
821.736
704.004
565.601
395.401
195.574
)
;

boundaryField
{
    outletCentralUnloaded
    {
        type            zeroGradient;
    }
    inletCentralUnloaded
    {
        type            zeroGradient;
    }
    outletFuelElement
    {
        type            zeroGradient;
    }
    inletFuelElement
    {
        type            zeroGradient;
    }
    defaultFaces
    {
        type            zeroGradient;
    }
    baffle_master
    {
        type            zeroGradient;
    }
    baffle_slave
    {
        type            zeroGradient;
    }
}


// ************************************************************************* //
