/*--------------------------------*- C++ -*----------------------------------*\
| =========                 |                                                 |
| \\      /  F ield         | OpenFOAM: The Open Source CFD Toolbox           |
|  \\    /   O peration     | Version:  2212                                  |
|   \\  /    A nd           | Website:  www.openfoam.com                      |
|    \\/     M anipulation  |                                                 |
\*---------------------------------------------------------------------------*/
FoamFile
{
    version     2.0;
    format      ascii;
    arch        "LSB;label=32;scalar=64";
    class       volScalarField;
    location    "31/fluidRegion";
    object      Tco.nuclearFuelPin;
}
// * * * * * * * * * * * * * * * * * * * * * * * * * * * * * * * * * * * * * //

dimensions      [0 0 0 1 0 0 0];

internalField   nonuniform List<scalar> 
350
(
0
0
0
0
0
0
0
0
0
0
0
0
0
0
0
0
0
0
0
0
0
0
0
0
0
0
0
0
0
0
0
0
0
0
0
0
0
0
0
0
0
0
0
0
0
0
0
0
0
0
1798.16
1826.6
1842.41
1845.76
1836.93
1816.36
1784.6
1742.36
1690.45
1629.8
1561.45
1486.56
1406.38
1322.24
1235.55
1147.74
1060.08
973.542
888.37
803.596
716.182
619.837
504.157
357.838
182.664
1825.52
1854.49
1870.6
1874.03
1865.06
1844.13
1811.82
1768.82
1715.97
1654.22
1584.62
1508.34
1426.65
1340.9
1252.54
1163
1073.62
985.42
898.702
812.528
723.857
626.31
509.274
361.165
183.789
1793.71
1822.09
1837.87
1841.22
1832.43
1811.93
1780.28
1738.18
1686.42
1625.96
1557.83
1483.17
1403.23
1319.35
1232.94
1145.39
1058.01
971.729
886.799
802.243
715.028
618.874
503.407
357.355
182.493
1819.37
1848.2
1864.23
1867.62
1858.67
1837.81
1805.62
1762.78
1710.13
1648.62
1579.31
1503.34
1421.99
1336.61
1248.62
1159.47
1070.49
982.674
896.312
810.462
722.081
624.811
508.088
360.393
183.529
1819.37
1848.2
1864.23
1867.62
1858.67
1837.81
1805.62
1762.78
1710.13
1648.62
1579.3
1503.34
1421.99
1336.61
1248.62
1159.47
1070.49
982.674
896.312
810.462
722.081
624.811
508.088
360.393
183.529
1793.71
1822.09
1837.87
1841.22
1832.44
1811.94
1780.29
1738.18
1686.43
1625.96
1557.83
1483.17
1403.23
1319.35
1232.94
1145.39
1058.01
971.729
886.8
802.244
715.029
618.875
503.407
357.355
182.493
1825.52
1854.49
1870.6
1874.03
1865.06
1844.13
1811.82
1768.82
1715.97
1654.22
1584.62
1508.34
1426.65
1340.9
1252.54
1163
1073.62
985.42
898.702
812.528
723.857
626.31
509.275
361.165
183.789
1798.16
1826.6
1842.41
1845.76
1836.93
1816.36
1784.6
1742.36
1690.45
1629.8
1561.45
1486.56
1406.38
1322.24
1235.55
1147.74
1060.08
973.542
888.37
803.596
716.182
619.837
504.157
357.838
182.664
1819.37
1848.2
1864.23
1867.62
1858.67
1837.81
1805.62
1762.78
1710.13
1648.62
1579.31
1503.34
1421.99
1336.61
1248.62
1159.47
1070.49
982.674
896.313
810.462
722.081
624.811
508.088
360.393
183.529
1793.71
1822.09
1837.87
1841.22
1832.43
1811.93
1780.28
1738.18
1686.42
1625.96
1557.83
1483.17
1403.23
1319.35
1232.94
1145.39
1058.01
971.729
886.799
802.243
715.028
618.874
503.407
357.355
182.493
1793.71
1822.09
1837.87
1841.22
1832.43
1811.94
1780.29
1738.18
1686.43
1625.96
1557.83
1483.17
1403.23
1319.35
1232.94
1145.39
1058.01
971.729
886.8
802.244
715.029
618.875
503.407
357.355
182.493
1819.37
1848.2
1864.23
1867.62
1858.67
1837.81
1805.62
1762.78
1710.13
1648.62
1579.3
1503.34
1421.99
1336.61
1248.62
1159.47
1070.49
982.674
896.312
810.462
722.081
624.811
508.088
360.393
183.529
)
;

boundaryField
{
    outletCentralUnloaded
    {
        type            zeroGradient;
    }
    inletCentralUnloaded
    {
        type            zeroGradient;
    }
    outletFuelElement
    {
        type            zeroGradient;
    }
    inletFuelElement
    {
        type            zeroGradient;
    }
    defaultFaces
    {
        type            zeroGradient;
    }
    baffle_master
    {
        type            zeroGradient;
    }
    baffle_slave
    {
        type            zeroGradient;
    }
}


// ************************************************************************* //
