/*--------------------------------*- C++ -*----------------------------------*\
| =========                 |                                                 |
| \\      /  F ield         | OpenFOAM: The Open Source CFD Toolbox           |
|  \\    /   O peration     | Version:  2212                                  |
|   \\  /    A nd           | Website:  www.openfoam.com                      |
|    \\/     M anipulation  |                                                 |
\*---------------------------------------------------------------------------*/
FoamFile
{
    version     2.0;
    format      ascii;
    arch        "LSB;label=32;scalar=64";
    class       volScalarField;
    location    "31/fluidRegion";
    object      Tfi.nuclearFuelPin;
}
// * * * * * * * * * * * * * * * * * * * * * * * * * * * * * * * * * * * * * //

dimensions      [0 0 0 1 0 0 0];

internalField   nonuniform List<scalar> 
350
(
0
0
0
0
0
0
0
0
0
0
0
0
0
0
0
0
0
0
0
0
0
0
0
0
0
0
0
0
0
0
0
0
0
0
0
0
0
0
0
0
0
0
0
0
0
0
0
0
0
0
2218.64
3388.65
4519.89
5594.93
6597.17
7511.11
8322.6
9019.04
9589.64
10025.5
10320
10468.4
10468.7
10320.7
10027.1
9592.38
9023.38
8328.57
7517.78
6601.69
5590.63
4493.84
3318.37
2072.18
774.994
2249.19
3432.81
4577.15
5664.57
6678.28
7602.62
8423.26
9127.47
9704.33
10144.9
10442.3
10592
10591.7
10441.5
10143.9
9703.59
9127.45
8424.11
7603.55
6676.61
5653.77
4544.33
3355.36
2094.79
782.581
2213.68
3381.55
4510.71
5583.79
6584.23
7496.53
8306.57
9001.79
9571.41
10006.6
10300.6
10448.8
10449.1
10301.6
10008.5
9574.75
9006.88
8313.42
7504.18
6589.81
5580.64
4485.86
3312.53
2068.62
773.793
2242.28
3422.77
4564.07
5648.63
6659.69
7581.62
8400.14
9102.55
9677.96
10117.4
10414.2
10563.6
10563.4
10413.7
10117
9677.98
9103.48
8402.11
7583.8
6659.35
5639.22
4532.7
3346.84
2089.58
780.833
2242.28
3422.77
4564.07
5648.63
6659.69
7581.62
8400.14
9102.55
9677.96
10117.4
10414.2
10563.6
10563.4
10413.7
10117
9677.98
9103.48
8402.11
7583.8
6659.35
5639.22
4532.7
3346.84
2089.58
780.833
2213.68
3381.55
4510.72
5583.8
6584.23
7496.53
8306.57
9001.8
9571.41
10006.6
10300.6
10448.8
10449.1
10301.6
10008.5
9574.75
9006.88
8313.42
7504.18
6589.81
5580.64
4485.86
3312.54
2068.62
773.793
2249.19
3432.81
4577.15
5664.57
6678.28
7602.62
8423.26
9127.47
9704.33
10144.9
10442.3
10592
10591.7
10441.5
10143.9
9703.59
9127.45
8424.11
7603.55
6676.61
5653.77
4544.33
3355.36
2094.79
782.581
2218.64
3388.65
4519.89
5594.93
6597.17
7511.11
8322.6
9019.04
9589.64
10025.5
10320
10468.4
10468.6
10320.7
10027.1
9592.38
9023.38
8328.57
7517.78
6601.69
5590.63
4493.85
3318.37
2072.18
774.994
2242.28
3422.77
4564.07
5648.63
6659.69
7581.62
8400.14
9102.55
9677.96
10117.4
10414.2
10563.6
10563.4
10413.7
10117
9677.98
9103.48
8402.11
7583.8
6659.35
5639.22
4532.7
3346.84
2089.58
780.833
2213.68
3381.55
4510.71
5583.8
6584.22
7496.53
8306.57
9001.79
9571.41
10006.6
10300.6
10448.8
10449.1
10301.6
10008.5
9574.75
9006.87
8313.42
7504.18
6589.81
5580.64
4485.86
3312.54
2068.62
773.793
2213.68
3381.55
4510.71
5583.8
6584.23
7496.53
8306.57
9001.8
9571.41
10006.6
10300.6
10448.8
10449.1
10301.6
10008.5
9574.75
9006.88
8313.42
7504.18
6589.81
5580.64
4485.86
3312.54
2068.62
773.793
2242.28
3422.77
4564.07
5648.63
6659.69
7581.62
8400.14
9102.55
9677.96
10117.4
10414.2
10563.6
10563.4
10413.7
10117
9677.98
9103.48
8402.11
7583.8
6659.35
5639.22
4532.7
3346.84
2089.58
780.833
)
;

boundaryField
{
    outletCentralUnloaded
    {
        type            zeroGradient;
    }
    inletCentralUnloaded
    {
        type            zeroGradient;
    }
    outletFuelElement
    {
        type            zeroGradient;
    }
    inletFuelElement
    {
        type            zeroGradient;
    }
    defaultFaces
    {
        type            zeroGradient;
    }
    baffle_master
    {
        type            zeroGradient;
    }
    baffle_slave
    {
        type            zeroGradient;
    }
}


// ************************************************************************* //
