/*--------------------------------*- C++ -*----------------------------------*\
| =========                 |                                                 |
| \\      /  F ield         | OpenFOAM: The Open Source CFD Toolbox           |
|  \\    /   O peration     | Version:  2212                                  |
|   \\  /    A nd           | Website:  www.openfoam.com                      |
|    \\/     M anipulation  |                                                 |
\*---------------------------------------------------------------------------*/
FoamFile
{
    version     2.0;
    format      ascii;
    arch        "LSB;label=32;scalar=64";
    class       volScalarField;
    location    "31/fluidRegion";
    object      Tfo.nuclearFuelPin;
}
// * * * * * * * * * * * * * * * * * * * * * * * * * * * * * * * * * * * * * //

dimensions      [0 0 0 1 0 0 0];

internalField   nonuniform List<scalar> 
350
(
0
0
0
0
0
0
0
0
0
0
0
0
0
0
0
0
0
0
0
0
0
0
0
0
0
0
0
0
0
0
0
0
0
0
0
0
0
0
0
0
0
0
0
0
0
0
0
0
0
0
1935.41
2321.28
2686.29
3025.1
3332.71
3604.58
3836.65
4025.47
4168.21
4262.75
4307.7
4302.42
4247.09
4142.65
3990.83
3794.08
3555.4
3278.12
2965.48
2620.16
2243.3
1833.43
1385.56
894.348
367.197
1963.89
2354.38
2723.7
3066.44
3377.55
3652.42
3886.97
4077.7
4221.75
4316.99
4362
4356.15
4299.61
4193.36
4039.14
3839.44
3597.34
3316.23
2999.47
2649.78
2268.36
1853.71
1400.67
903.725
370.35
1930.78
2315.93
2680.28
3018.48
3325.55
3596.96
3828.65
4017.17
4159.72
4254.17
4299.11
4293.94
4238.8
4134.65
3983.22
3786.94
3548.81
3272.12
2960.14
2615.51
2239.37
1830.27
1383.21
892.899
366.703
1957.47
2346.89
2715.2
3057.02
3367.31
3641.48
3875.45
4065.72
4209.46
4304.53
4349.52
4343.8
4287.53
4181.68
4028.01
3828.99
3587.68
3307.45
2991.63
2642.95
2262.58
1849.03
1397.19
901.56
369.623
1957.47
2346.89
2715.2
3057.02
3367.31
3641.48
3875.45
4065.72
4209.46
4304.53
4349.52
4343.79
4287.53
4181.68
4028.01
3828.99
3587.68
3307.45
2991.63
2642.95
2262.58
1849.03
1397.19
901.56
369.623
1930.78
2315.94
2680.28
3018.48
3325.55
3596.96
3828.65
4017.17
4159.72
4254.17
4299.11
4293.94
4238.8
4134.65
3983.22
3786.94
3548.81
3272.12
2960.14
2615.51
2239.37
1830.27
1383.21
892.899
366.703
1963.89
2354.38
2723.7
3066.44
3377.55
3652.42
3886.97
4077.69
4221.75
4316.99
4362
4356.15
4299.61
4193.36
4039.14
3839.44
3597.34
3316.23
2999.47
2649.78
2268.36
1853.71
1400.67
903.725
370.35
1935.41
2321.28
2686.29
3025.1
3332.71
3604.58
3836.65
4025.46
4168.21
4262.75
4307.7
4302.42
4247.09
4142.65
3990.83
3794.08
3555.4
3278.12
2965.48
2620.16
2243.3
1833.43
1385.56
894.348
367.197
1957.47
2346.89
2715.2
3057.02
3367.31
3641.48
3875.45
4065.72
4209.46
4304.53
4349.52
4343.79
4287.53
4181.68
4028.01
3828.99
3587.68
3307.45
2991.63
2642.95
2262.58
1849.03
1397.19
901.561
369.623
1930.78
2315.93
2680.28
3018.48
3325.55
3596.96
3828.65
4017.17
4159.72
4254.17
4299.11
4293.94
4238.8
4134.65
3983.22
3786.94
3548.81
3272.12
2960.14
2615.51
2239.37
1830.27
1383.21
892.899
366.703
1930.78
2315.94
2680.28
3018.48
3325.55
3596.96
3828.65
4017.17
4159.72
4254.17
4299.11
4293.94
4238.8
4134.65
3983.22
3786.94
3548.81
3272.12
2960.14
2615.51
2239.37
1830.27
1383.21
892.9
366.703
1957.47
2346.89
2715.2
3057.02
3367.31
3641.48
3875.45
4065.72
4209.46
4304.53
4349.52
4343.79
4287.53
4181.68
4028.01
3828.99
3587.68
3307.45
2991.63
2642.95
2262.58
1849.03
1397.19
901.56
369.623
)
;

boundaryField
{
    outletCentralUnloaded
    {
        type            zeroGradient;
    }
    inletCentralUnloaded
    {
        type            zeroGradient;
    }
    outletFuelElement
    {
        type            zeroGradient;
    }
    inletFuelElement
    {
        type            zeroGradient;
    }
    defaultFaces
    {
        type            zeroGradient;
    }
    baffle_master
    {
        type            zeroGradient;
    }
    baffle_slave
    {
        type            zeroGradient;
    }
}


// ************************************************************************* //
