/*--------------------------------*- C++ -*----------------------------------*\
| =========                 |                                                 |
| \\      /  F ield         | OpenFOAM: The Open Source CFD Toolbox           |
|  \\    /   O peration     | Version:  2212                                  |
|   \\  /    A nd           | Website:  www.openfoam.com                      |
|    \\/     M anipulation  |                                                 |
\*---------------------------------------------------------------------------*/
FoamFile
{
    version     2.0;
    format      ascii;
    arch        "LSB;label=32;scalar=64";
    class       scalarFieldField;
    location    "31/fluidRegion";
    object      Trad.nuclearFuelPin;
}
// * * * * * * * * * * * * * * * * * * * * * * * * * * * * * * * * * * * * * //


350
(
0()
0()
0()
0()
0()
0()
0()
0()
0()
0()
0()
0()
0()
0()
0()
0()
0()
0()
0()
0()
0()
0()
0()
0()
0()
0()
0()
0()
0()
0()
0()
0()
0()
0()
0()
0()
0()
0()
0()
0()
0()
0()
0()
0()
0()
0()
0()
0()
0()
0()

20
(
2218.64
2217.47
2213.96
2208.1
2199.86
2189.2
2176.08
2160.44
2142.22
2121.34
2097.73
2071.3
2041.96
2009.6
1974.11
1935.41
1806.93
1803.91
1800.99
1798.16
)


20
(
3388.65
3384.02
3370.12
3346.92
3314.4
3272.52
3221.21
3160.42
3090.06
3010.04
2920.28
2820.66
2711.07
2591.39
2461.5
2321.28
1858.51
1847.52
1836.89
1826.6
)


20
(
4519.89
4511.87
4487.8
4447.67
4391.42
4319.02
4230.4
4125.48
4004.16
3866.36
3711.94
3540.81
3352.81
3147.82
2925.69
2686.29
1896.92
1878.15
1859.99
1842.41
)


20
(
5594.93
5583.65
5549.82
5493.4
5414.36
5312.63
5188.15
5040.82
4870.54
4677.2
4460.67
4220.81
3957.48
3670.53
3359.79
3025.1
1921.97
1895.73
1870.34
1845.76
)


20
(
6597.17
6582.82
6539.77
6467.99
6367.43
6238.03
6079.71
5892.36
5675.89
5430.15
5155
4850.31
4515.91
4151.62
3757.28
3332.71
1933.62
1900.33
1868.12
1836.93
)


20
(
7511.11
7493.92
7442.35
7356.37
7235.92
7080.93
6891.32
6666.98
6407.79
6113.61
5784.29
5419.67
5019.57
4583.81
4112.21
3604.58
1931.98
1892.16
1853.65
1816.36
)


20
(
8322.6
8302.84
8243.58
8144.77
8006.37
7828.29
7610.44
7352.71
7054.97
6717.08
6338.86
5920.16
5460.78
4960.53
4419.22
3836.65
1917.3
1871.61
1827.41
1784.6
)


20
(
9019.04
8997.04
8931.04
8820.99
8666.85
8468.53
8225.94
7938.95
7607.43
7231.23
6810.18
6344.09
5832.78
5276.04
4673.67
4025.47
1890.01
1839.17
1789.99
1742.36
)


20
(
9589.64
9565.75
9494.06
9374.54
9207.13
8991.74
8728.28
8416.63
8056.63
7648.14
7190.98
6684.95
6129.87
5525.53
4871.72
4168.21
1850.69
1795.52
1742.14
1690.45
)


20
(
10025.5
10000.1
9923.91
9796.82
9618.82
9389.81
9109.69
8778.35
8395.62
7961.36
7475.38
6937.5
6347.51
5705.19
5010.35
4262.75
1800.09
1741.45
1684.73
1629.8
)


20
(
10320
10293.5
10213.9
10081.3
9895.54
9656.57
9364.27
9018.52
8619.17
8166.07
7659.02
7097.85
6482.35
5812.3
5087.49
4307.7
1739.08
1677.92
1618.75
1561.45
)


20
(
10468.4
10441.2
10359.6
10223.6
10033
9787.91
9488.09
9133.45
8723.85
8259.12
7739.1
7163.57
6532.36
5845.24
5102
4302.42
1668.7
1605.99
1545.32
1486.56
)


20
(
10468.7
10441.2
10358.8
10221.6
10029.3
9781.88
9479.31
9121.43
8708.1
8239.16
7714.43
7133.72
6496.84
5803.59
5053.74
4247.09
1590.13
1526.86
1465.65
1406.38
)


20
(
10320.7
10293.5
10211.7
10075.3
9884.33
9638.64
9338.15
8982.74
8572.27
8106.57
7585.5
7008.85
6376.44
5688.08
4943.55
4142.65
1504.68
1441.86
1381.09
1322.24
)


20
(
10027.1
10000.4
9920.51
9787.27
9600.64
9360.57
9066.95
8719.66
8318.58
7863.56
7354.43
6791.02
6173.15
5500.62
4773.25
3990.83
1413.79
1352.42
1293.05
1235.55
)


20
(
9592.38
9566.79
9490.01
9362
9182.71
8952.07
8670
8336.38
7951.08
7513.98
7024.9
6483.71
5890.21
5244.22
4545.58
3794.08
1318.93
1259.98
1202.96
1147.74
)


20
(
9023.38
8999.24
8926.82
8806.09
8637
8419.48
8153.46
7838.82
7475.46
7063.23
6602.02
6091.65
5531.97
4922.82
4264.02
3555.4
1221.5
1165.92
1112.15
1060.08
)


20
(
8328.57
8306.27
8239.38
8127.85
7971.66
7770.74
7525.01
7234.38
6898.74
6517.99
6091.98
5620.58
5103.65
4541.03
3932.57
3278.12
1122.63
1071.29
1021.63
973.542
)


20
(
7517.78
7497.68
7437.38
7336.85
7196.05
7014.93
6793.42
6531.45
6228.91
5885.7
5501.7
5076.8
4610.87
4103.76
3555.34
2965.48
1022.74
976.474
931.715
888.37
)


20
(
6601.69
6584.11
6531.36
6443.43
6320.28
6161.86
5968.12
5738.98
5474.36
5174.18
4838.32
4466.7
4059.19
3615.67
3136.04
2620.16
921.111
880.648
841.504
803.596
)


20
(
5590.63
5575.85
5531.51
5457.57
5354.03
5220.84
5057.95
4865.3
4642.82
4390.45
4108.09
3795.66
3453.06
3080.2
2676.98
2243.3
814.971
780.956
748.05
716.182
)


20
(
4493.84
4482.1
4446.84
4388.08
4305.78
4199.9
4070.43
3917.3
3740.47
3539.88
3315.46
3067.14
2794.86
2498.53
2178.08
1833.43
698.343
671.311
645.161
619.837
)


20
(
3318.37
3309.83
3284.21
3241.5
3181.69
3104.75
3010.66
2899.39
2770.9
2625.15
2462.1
2281.7
2083.9
1868.64
1635.88
1385.56
561.173
541.541
522.549
504.157
)


20
(
2072.18
2066.97
2051.34
2025.29
1988.8
1941.86
1884.48
1816.62
1738.27
1649.42
1550.04
1440.1
1319.59
1188.48
1046.74
894.348
392.545
380.595
369.034
357.838
)


20
(
774.994
773.177
767.727
758.644
745.93
729.587
709.616
686.02
658.803
627.967
593.516
555.455
513.788
468.52
419.654
367.197
194.608
190.495
186.517
182.664
)


20
(
2249.19
2248.01
2244.48
2238.59
2230.29
2219.56
2206.36
2190.61
2172.27
2151.25
2127.47
2100.85
2071.28
2038.67
2002.91
1963.89
1834.37
1831.32
1828.37
1825.52
)


20
(
3432.81
3428.13
3414.09
3390.66
3357.81
3315.5
3263.67
3202.25
3131.17
3050.33
2959.64
2858.99
2748.26
2627.33
2496.08
2354.38
1886.73
1875.63
1864.89
1854.49
)


20
(
4577.15
4569.04
4544.72
4504.15
4447.3
4374.13
4284.55
4178.5
4055.88
3916.59
3760.51
3587.51
3397.48
3190.26
2965.72
2723.7
1925.7
1906.72
1888.37
1870.6
)


20
(
5664.57
5653.17
5618.96
5561.93
5482.02
5379.18
5253.34
5104.39
4932.25
4736.78
4517.87
4275.37
4009.13
3719.01
3404.83
3066.44
1951.08
1924.55
1898.88
1874.03
)


20
(
6678.28
6663.78
6620.25
6547.68
6446.01
6315.18
6155.1
5965.68
5746.8
5498.34
5220.14
4912.06
4573.93
4205.59
3806.86
3377.55
1962.83
1929.16
1896.59
1865.06
)


20
(
7602.62
7585.24
7533.1
7446.15
7324.36
7167.65
6975.93
6749.09
6487.01
6189.55
5856.55
5487.85
5083.27
4642.64
4165.75
3652.42
1961.05
1920.79
1881.84
1844.13
)


20
(
8423.26
8403.28
8343.36
8243.45
8103.49
7923.42
7703.14
7442.52
7141.45
6799.76
6417.31
5993.9
5529.37
5023.5
4476.1
3886.97
1946
1899.8
1855.1
1811.82
)


20
(
9127.47
9105.22
9038.48
8927.2
8771.33
8570.78
8325.46
8035.25
7700.01
7319.58
6893.79
6422.46
5905.39
5342.38
4733.22
4077.7
1918.13
1866.72
1816.98
1768.82
)


20
(
9704.33
9680.16
9607.67
9486.8
9317.51
9099.7
8833.28
8518.11
8154.06
7740.97
7278.65
6766.92
6205.58
5594.41
4933.21
4221.75
1878.03
1822.23
1768.25
1715.97
)


20
(
10144.9
10119.2
10042.1
9913.58
9733.57
9501.98
9218.7
8883.62
8496.58
8057.41
7565.95
7021.99
6425.33
5775.75
5073.05
4316.99
1826.44
1767.14
1709.77
1654.22
)


20
(
10442.3
10415.5
10335
10200.9
10013.1
9771.38
9475.78
9126.13
8722.27
8264.04
7751.27
7183.75
6561.28
5883.64
5150.62
4362
1764.26
1702.41
1642.57
1584.62
)


20
(
10592
10564.5
10482
10344.4
10151.7
9903.77
9600.55
9241.9
8827.67
8357.69
7831.77
7249.74
6611.37
5916.46
5164.8
4356.15
1692.55
1629.12
1567.76
1508.34
)


20
(
10591.7
10563.9
10480.6
10341.8
10147.3
9897.14
9591.15
9229.22
8811.21
8336.96
7806.28
7218.99
6574.9
5873.78
5115.42
4299.61
1612.49
1548.5
1486.6
1426.65
)


20
(
10441.5
10413.9
10331.2
10193.3
10000.2
9751.7
9447.8
9088.37
8673.24
8202.27
7675.28
7092.1
6452.51
5756.34
5003.35
4193.36
1525.42
1461.89
1400.42
1340.9
)


20
(
10143.9
10116.9
10036.1
9901.36
9712.62
9469.83
9172.88
8821.65
8416.02
7955.84
7440.93
6871.13
6246.25
5566.08
4830.45
4039.14
1432.8
1370.73
1310.68
1252.54
)


20
(
9703.59
9677.71
9600.05
9470.59
9289.27
9056.02
8770.74
8433.34
8043.67
7601.6
7106.98
6559.63
5959.39
5306.07
4599.48
3839.44
1336.13
1276.52
1218.85
1163
)


20
(
9127.45
9103.04
9029.8
8907.7
8736.69
8516.7
8247.66
7929.45
7561.96
7145.05
6678.6
6162.43
5596.39
4980.31
4314.02
3597.34
1236.88
1180.67
1126.28
1073.62
)


20
(
8424.11
8401.56
8333.91
8221.12
8063.15
7859.95
7611.42
7317.49
6978.04
6592.96
6162.11
5685.35
5162.54
4593.53
3978.14
3316.23
1136.2
1084.28
1034.06
985.42
)


20
(
7603.55
7583.22
7522.24
7420.56
7278.17
7094.99
6870.97
6606.01
6300.03
5952.92
5564.56
5134.83
4663.59
4150.71
3596.05
2999.47
1034.6
987.808
942.54
898.702
)


20
(
6676.61
6658.83
6605.49
6516.56
6392
6231.79
6035.84
5804.1
5536.47
5232.87
4893.2
4517.35
4105.2
3656.64
3171.54
2649.78
931.381
890.457
850.867
812.528
)


20
(
5653.77
5638.82
5593.97
5519.2
5414.48
5279.77
5115.03
4920.19
4695.19
4439.94
4154.38
3838.39
3491.9
3114.8
2706.99
2268.36
823.771
789.368
756.087
723.857
)


20
(
4544.33
4532.45
4496.8
4437.37
4354.13
4247.06
4116.11
3961.25
3782.41
3579.55
3352.58
3101.44
2826.07
2526.37
2202.28
1853.71
705.708
678.37
651.922
626.31
)


20
(
3355.36
3346.72
3320.81
3277.62
3217.13
3139.33
3044.18
2931.65
2801.71
2654.31
2489.41
2306.97
2106.93
1889.23
1653.83
1400.67
566.936
547.082
527.875
509.274
)


20
(
2094.79
2089.52
2073.72
2047.37
2010.47
1963.01
1904.98
1836.36
1757.14
1667.29
1566.79
1455.62
1333.76
1201.17
1057.83
903.725
396.263
384.178
372.487
361.165
)


20
(
782.581
780.744
775.236
766.055
753.204
736.685
716.498
692.648
665.136
633.966
599.142
560.667
518.546
472.783
423.383
370.35
195.865
191.707
187.685
183.789
)


20
(
2213.68
2212.51
2209.01
2203.15
2194.92
2184.27
2171.16
2155.54
2137.34
2116.49
2092.91
2066.51
2037.2
2004.87
1969.44
1930.78
1802.47
1799.45
1796.53
1793.71
)


20
(
3381.55
3376.92
3363.04
3339.88
3307.42
3265.6
3214.38
3153.68
3083.44
3003.55
2913.94
2814.48
2705.07
2585.59
2455.92
2315.93
1853.94
1842.97
1832.36
1822.09
)


20
(
4510.71
4502.71
4478.68
4438.61
4382.47
4310.19
4221.72
4116.98
3995.87
3858.3
3704.15
3533.31
3345.64
3141
2919.26
2680.28
1892.28
1873.54
1855.42
1837.87
)


20
(
5583.79
5572.54
5538.77
5482.45
5403.54
5301.99
5177.73
5030.66
4860.68
4667.67
4451.52
4212.09
3949.22
3662.77
3352.57
3018.48
1917.3
1891.1
1865.76
1841.22
)


20
(
6584.23
6569.9
6526.93
6455.28
6354.89
6225.72
6067.68
5880.67
5664.57
5419.26
5144.61
4840.45
4506.64
4143
3749.37
3325.55
1928.95
1895.72
1863.57
1832.43
)


20
(
7496.53
7479.37
7427.89
7342.06
7221.82
7067.11
6877.84
6653.9
6395.17
6101.51
5772.78
5408.8
5009.42
4574.44
4103.68
3596.96
1927.34
1887.6
1849.16
1811.93
)


20
(
8306.57
8286.85
8227.7
8129.07
7990.91
7813.14
7595.69
7338.42
7041.21
6703.92
6326.38
5908.42
5449.86
4950.51
4410.18
3828.65
1912.74
1867.13
1823.01
1780.28
)


20
(
9001.79
8979.84
8913.95
8804.1
8650.23
8452.27
8210.11
7923.64
7592.71
7217.18
6796.89
6331.63
5821.24
5265.5
4664.22
4017.17
1885.56
1834.81
1785.72
1738.18
)


20
(
9571.41
9547.56
9476
9356.69
9189.58
8974.58
8711.6
8400.5
8041.15
7633.39
7177.05
6671.94
6117.86
5514.6
4861.96
4159.72
1846.38
1791.3
1738.02
1686.42
)


20
(
10006.6
9981.22
9905.13
9778.27
9600.59
9371.99
9092.38
8761.63
8379.59
7946.11
7461.01
6924.09
6335.16
5694.01
5000.42
4254.17
1795.95
1737.42
1680.79
1625.96
)


20
(
10300.6
10274.1
10194.7
10062.3
9876.88
9638.33
9346.56
9001.43
8602.81
8150.52
7644.39
7084.23
6469.84
5801
5077.5
4299.11
1735.13
1674.08
1615.02
1557.83
)


20
(
10448.8
10421.7
10340.2
10204.4
10014.2
9769.53
9470.24
9116.24
8707.38
8243.49
7724.4
7149.92
6519.85
5833.97
5092.07
4293.94
1664.98
1602.38
1541.81
1483.17
)


20
(
10449.1
10421.7
10339.5
10202.5
10010.5
9763.59
9461.57
9104.33
8691.75
8223.65
7699.87
7120.21
6484.49
5792.48
5043.99
4238.8
1586.65
1523.49
1462.4
1403.23
)


20
(
10301.6
10274.3
10192.7
10056.6
9865.95
9620.71
9320.77
8965.99
8556.26
8091.41
7571.27
6995.67
6364.41
5677.29
4934.1
4134.65
1501.46
1438.76
1378.1
1319.35
)


20
(
10008.5
9981.96
9902.18
9769.17
9582.88
9343.24
9050.15
8703.49
8303.14
7848.94
7340.73
6778.34
6161.59
5490.28
4764.22
3983.22
1410.85
1349.59
1290.33
1232.94
)


20
(
9574.75
9549.2
9472.56
9344.78
9165.81
8935.59
8654.03
8321.01
7936.41
7500.1
7011.91
6471.69
5879.27
5234.46
4537.08
3786.94
1316.27
1257.43
1200.51
1145.39
)


20
(
9006.88
8982.78
8910.49
8789.98
8621.2
8404.07
8138.53
7824.46
7461.75
7050.28
6589.9
6080.45
5521.79
4913.74
4256.14
3548.81
1219.14
1163.66
1109.99
1058.01
)


20
(
8313.42
8291.16
8224.39
8113.07
7957.16
7756.6
7511.31
7221.21
6886.18
6506.12
6080.88
5610.34
5094.34
4532.75
3925.39
3272.12
1120.54
1069.3
1019.73
971.729
)


20
(
7504.18
7484.12
7423.93
7323.58
7183.04
7002.25
6781.14
6519.64
6217.65
5875.06
5491.76
5067.63
4602.54
4096.35
3548.93
2960.14
1020.92
974.742
930.065
886.799
)


20
(
6589.81
6572.27
6519.62
6431.84
6308.92
6150.78
5957.39
5728.67
5464.53
5164.89
4829.65
4458.7
4051.92
3609.22
3130.45
2615.51
919.545
879.155
840.082
802.243
)


20
(
5580.64
5565.88
5521.62
5447.82
5344.47
5211.51
5048.92
4856.62
4634.54
4382.63
4100.78
3788.91
3446.94
3074.76
2672.27
2239.37
813.638
779.684
746.837
715.028
)


20
(
4485.86
4474.13
4438.95
4380.29
4298.13
4192.45
4063.21
3910.36
3733.85
3533.62
3309.61
3061.74
2789.95
2494.16
2174.29
1830.27
697.237
670.255
644.152
618.874
)


20
(
3312.53
3304.01
3278.44
3235.81
3176.1
3099.3
3005.38
2894.31
2766.05
2620.57
2457.81
2277.73
2080.29
1865.42
1633.08
1383.21
560.319
540.723
521.765
503.407
)


20
(
2068.62
2063.42
2047.82
2021.81
1985.38
1938.54
1881.25
1813.51
1735.31
1646.61
1547.41
1437.67
1317.38
1186.5
1045.02
892.899
391.999
380.07
368.53
357.355
)


20
(
773.793
771.979
766.539
757.472
744.779
728.464
708.527
684.972
657.801
627.019
592.628
554.633
513.039
467.849
419.069
366.703
194.416
190.311
186.339
182.493
)


20
(
2242.28
2241.11
2237.59
2231.7
2223.42
2212.7
2199.52
2183.8
2165.48
2144.5
2120.76
2094.18
2064.67
2032.12
1996.42
1957.47
1828.2
1825.16
1822.22
1819.37
)


20
(
3422.77
3418.1
3404.08
3380.71
3347.93
3305.72
3254.02
3192.74
3121.83
3041.18
2950.7
2850.29
2739.82
2619.18
2488.25
2346.89
1880.37
1869.29
1858.58
1848.2
)


20
(
4564.07
4555.98
4531.72
4491.25
4434.55
4361.55
4272.19
4166.4
4044.08
3905.13
3749.44
3576.87
3387.31
3180.6
2956.62
2715.2
1919.19
1900.26
1881.96
1864.23
)


20
(
5648.63
5637.26
5603.14
5546.25
5466.54
5363.96
5238.42
5089.85
4918.14
4723.16
4504.8
4262.91
3997.34
3707.95
3394.56
3057.02
1944.48
1918.02
1892.41
1867.62
)


20
(
6659.69
6645.22
6601.81
6529.41
6428
6297.5
6137.83
5948.88
5730.56
5482.72
5205.23
4897.93
4560.66
4193.25
3795.53
3367.31
1956.19
1922.61
1890.13
1858.67
)


20
(
7581.62
7564.29
7512.28
7425.55
7304.07
7147.76
6956.52
6730.26
6468.84
6172.14
5839.98
5472.22
5068.68
4629.17
4153.5
3641.48
1954.43
1914.27
1875.43
1837.81
)


20
(
8400.14
8380.22
8320.45
8220.79
8081.19
7901.58
7681.85
7421.91
7121.6
6780.79
6399.31
5976.99
5513.64
5009.06
4463.07
3875.45
1939.46
1893.37
1848.79
1805.62
)


20
(
9102.55
9080.37
9013.79
8902.8
8747.32
8547.29
8302.6
8013.13
7678.75
7299.29
6874.59
6404.47
5888.72
5327.16
4719.56
4065.72
1911.71
1860.43
1810.82
1762.78
)


20
(
9677.96
9653.86
9581.55
9461
9292.13
9074.88
8809.14
8494.79
8131.67
7719.63
7258.5
6748.09
6188.19
5578.59
4919.09
4209.46
1871.78
1816.12
1762.28
1710.13
)


20
(
10117.4
10091.8
10014.9
9886.73
9707.18
9476.18
9193.64
8859.41
8473.36
8035.33
7545.13
7002.57
6407.44
5759.54
5058.64
4304.53
1820.4
1761.25
1704.03
1648.62
)


20
(
10414.2
10387.4
10307.2
10173.4
9986.02
9744.97
9450.13
9101.37
8698.55
8241.51
7730.05
7163.99
6543.13
5867.24
5136.11
4349.52
1758.48
1696.79
1637.1
1579.31
)


20
(
10563.6
10536.1
10453.8
10316.6
10124.4
9877.11
9574.68
9216.95
8803.78
8335.01
7810.45
7229.91
6593.19
5900.08
5150.35
4343.8
1687.07
1623.8
1562.6
1503.34
)


20
(
10563.4
10535.7
10452.6
10314.1
10120.1
9870.61
9565.41
9204.41
8787.48
8314.45
7785.14
7199.37
6556.93
5857.62
5101.23
4287.53
1607.34
1543.52
1481.78
1421.99
)


20
(
10413.7
10386.2
10303.7
10166.1
9973.5
9725.67
9422.56
9064.05
8649.99
8180.24
7654.61
7072.93
6435
5740.62
4989.59
4181.68
1520.64
1457.28
1395.97
1336.61
)


20
(
10117
10090.1
10009.5
9875.09
9686.84
9444.67
9148.49
8798.17
8393.59
7934.59
7421.01
6852.68
6229.41
5551.01
4817.28
4028.01
1428.41
1366.51
1306.62
1248.62
)


20
(
9677.98
9652.17
9574.71
9445.59
9264.73
9032.08
8747.55
8411.01
8022.35
7581.42
7088.08
6542.15
5943.46
5291.83
4587.07
3828.99
1332.16
1272.7
1215.18
1159.47
)


20
(
9103.48
9079.14
9006.08
8884.3
8713.73
8494.31
8225.96
7908.58
7542.03
7126.21
6660.96
6146.13
5581.55
4967.07
4302.5
3587.68
1233.33
1177.26
1123.02
1070.49
)


20
(
8402.11
8379.62
8312.14
8199.64
8042.08
7839.4
7591.52
7298.35
6959.78
6575.69
6145.96
5670.43
5148.98
4581.43
3967.64
3307.45
1133.07
1081.28
1031.19
982.674
)


20
(
7583.8
7563.52
7502.69
7401.28
7259.25
7076.55
6853.11
6588.84
6283.65
5937.44
5550.08
5121.46
4651.44
4139.89
3586.67
2991.63
1031.86
985.188
940.037
896.312
)


20
(
6659.35
6641.62
6588.41
6499.71
6375.48
6215.68
6020.24
5789.1
5522.16
5219.35
4880.56
4505.68
4094.6
3647.2
3163.36
2642.95
929.007
888.189
848.702
810.462
)


20
(
5639.22
5624.31
5579.58
5505
5400.56
5266.2
5101.88
4907.55
4683.13
4428.54
4143.71
3828.55
3482.95
3106.82
2700.07
2262.58
821.736
787.422
754.227
722.081
)


20
(
4532.7
4520.85
4485.29
4426.01
4342.99
4236.2
4105.59
3951.13
3772.75
3570.41
3344.03
3093.54
2818.87
2519.95
2196.7
1849.03
704.004
676.736
650.357
624.811
)


20
(
3346.84
3338.22
3312.38
3269.3
3208.97
3131.36
3036.45
2924.22
2794.61
2647.59
2483.12
2301.14
2101.62
1884.49
1649.69
1397.19
565.601
545.798
526.641
508.088
)


20
(
2089.58
2084.33
2068.56
2042.28
2005.48
1958.14
1900.26
1831.81
1752.79
1663.17
1562.93
1452.04
1330.49
1198.24
1055.28
901.56
395.401
383.347
371.686
360.393
)


20
(
780.833
779.001
773.506
764.348
751.529
735.05
714.913
691.121
663.677
632.584
597.846
559.466
517.45
471.801
422.524
369.623
195.574
191.427
187.415
183.529
)


20
(
2242.28
2241.11
2237.59
2231.7
2223.42
2212.7
2199.52
2183.8
2165.48
2144.5
2120.76
2094.18
2064.67
2032.12
1996.42
1957.47
1828.2
1825.16
1822.22
1819.37
)


20
(
3422.77
3418.1
3404.08
3380.71
3347.93
3305.72
3254.02
3192.74
3121.83
3041.18
2950.7
2850.29
2739.82
2619.18
2488.25
2346.89
1880.37
1869.29
1858.58
1848.2
)


20
(
4564.07
4555.98
4531.72
4491.25
4434.55
4361.55
4272.19
4166.4
4044.08
3905.13
3749.44
3576.87
3387.31
3180.6
2956.62
2715.2
1919.19
1900.26
1881.96
1864.23
)


20
(
5648.63
5637.26
5603.14
5546.25
5466.54
5363.96
5238.42
5089.85
4918.14
4723.16
4504.8
4262.91
3997.34
3707.95
3394.56
3057.02
1944.48
1918.02
1892.41
1867.62
)


20
(
6659.69
6645.22
6601.81
6529.41
6428
6297.5
6137.83
5948.88
5730.56
5482.72
5205.23
4897.93
4560.66
4193.25
3795.53
3367.31
1956.19
1922.61
1890.13
1858.67
)


20
(
7581.62
7564.29
7512.27
7425.55
7304.07
7147.76
6956.52
6730.26
6468.84
6172.14
5839.98
5472.22
5068.68
4629.17
4153.5
3641.48
1954.43
1914.27
1875.43
1837.81
)


20
(
8400.14
8380.22
8320.45
8220.79
8081.19
7901.58
7681.85
7421.91
7121.6
6780.79
6399.31
5976.99
5513.64
5009.06
4463.07
3875.45
1939.46
1893.37
1848.79
1805.62
)


20
(
9102.55
9080.37
9013.79
8902.8
8747.32
8547.29
8302.6
8013.13
7678.75
7299.29
6874.59
6404.47
5888.72
5327.16
4719.56
4065.72
1911.71
1860.43
1810.82
1762.78
)


20
(
9677.96
9653.86
9581.55
9461
9292.13
9074.88
8809.14
8494.79
8131.67
7719.63
7258.5
6748.09
6188.19
5578.59
4919.09
4209.46
1871.78
1816.12
1762.28
1710.13
)


20
(
10117.4
10091.8
10014.9
9886.73
9707.18
9476.18
9193.64
8859.41
8473.36
8035.33
7545.13
7002.57
6407.44
5759.54
5058.64
4304.53
1820.4
1761.25
1704.03
1648.62
)


20
(
10414.2
10387.4
10307.2
10173.4
9986.02
9744.97
9450.13
9101.37
8698.55
8241.51
7730.05
7163.99
6543.13
5867.24
5136.11
4349.52
1758.48
1696.79
1637.1
1579.3
)


20
(
10563.6
10536.1
10453.8
10316.6
10124.4
9877.11
9574.68
9216.95
8803.78
8335.01
7810.45
7229.91
6593.19
5900.08
5150.35
4343.79
1687.07
1623.8
1562.6
1503.34
)


20
(
10563.4
10535.7
10452.6
10314.1
10120.1
9870.61
9565.41
9204.41
8787.48
8314.45
7785.14
7199.37
6556.93
5857.62
5101.23
4287.53
1607.34
1543.52
1481.78
1421.99
)


20
(
10413.7
10386.2
10303.7
10166.1
9973.5
9725.67
9422.56
9064.05
8649.99
8180.24
7654.61
7072.93
6435
5740.62
4989.59
4181.68
1520.64
1457.28
1395.97
1336.61
)


20
(
10117
10090.1
10009.5
9875.09
9686.84
9444.67
9148.48
8798.17
8393.59
7934.59
7421.01
6852.68
6229.41
5551.01
4817.28
4028.01
1428.41
1366.51
1306.62
1248.62
)


20
(
9677.98
9652.17
9574.71
9445.59
9264.73
9032.08
8747.55
8411.01
8022.35
7581.42
7088.08
6542.15
5943.46
5291.83
4587.07
3828.99
1332.16
1272.7
1215.18
1159.47
)


20
(
9103.48
9079.14
9006.08
8884.3
8713.73
8494.31
8225.96
7908.58
7542.03
7126.21
6660.96
6146.13
5581.55
4967.07
4302.5
3587.68
1233.33
1177.26
1123.02
1070.49
)


20
(
8402.11
8379.62
8312.14
8199.64
8042.08
7839.4
7591.52
7298.35
6959.78
6575.69
6145.96
5670.43
5148.98
4581.43
3967.64
3307.45
1133.07
1081.28
1031.19
982.674
)


20
(
7583.8
7563.52
7502.69
7401.28
7259.25
7076.55
6853.11
6588.84
6283.65
5937.44
5550.08
5121.46
4651.44
4139.89
3586.67
2991.63
1031.86
985.188
940.037
896.312
)


20
(
6659.35
6641.62
6588.41
6499.71
6375.48
6215.68
6020.24
5789.1
5522.16
5219.35
4880.56
4505.68
4094.6
3647.2
3163.36
2642.95
929.007
888.189
848.702
810.462
)


20
(
5639.22
5624.31
5579.58
5505
5400.56
5266.2
5101.88
4907.55
4683.13
4428.54
4143.71
3828.54
3482.95
3106.82
2700.07
2262.58
821.736
787.422
754.227
722.081
)


20
(
4532.7
4520.85
4485.29
4426.01
4342.99
4236.2
4105.59
3951.13
3772.75
3570.41
3344.03
3093.54
2818.88
2519.95
2196.7
1849.03
704.004
676.736
650.357
624.811
)


20
(
3346.84
3338.22
3312.38
3269.3
3208.97
3131.36
3036.46
2924.22
2794.61
2647.59
2483.12
2301.14
2101.62
1884.49
1649.69
1397.19
565.601
545.798
526.641
508.088
)


20
(
2089.58
2084.33
2068.56
2042.28
2005.48
1958.14
1900.26
1831.81
1752.79
1663.17
1562.93
1452.04
1330.49
1198.24
1055.27
901.56
395.401
383.347
371.686
360.393
)


20
(
780.833
779.001
773.506
764.348
751.529
735.05
714.913
691.121
663.677
632.584
597.846
559.467
517.45
471.801
422.524
369.623
195.574
191.427
187.415
183.529
)


20
(
2213.68
2212.51
2209.01
2203.16
2194.92
2184.27
2171.17
2155.54
2137.34
2116.49
2092.91
2066.51
2037.2
2004.87
1969.44
1930.78
1802.47
1799.45
1796.53
1793.71
)


20
(
3381.55
3376.92
3363.04
3339.88
3307.42
3265.6
3214.38
3153.68
3083.44
3003.56
2913.94
2814.48
2705.07
2585.59
2455.92
2315.94
1853.94
1842.97
1832.36
1822.09
)


20
(
4510.72
4502.71
4478.68
4438.62
4382.47
4310.19
4221.72
4116.98
3995.87
3858.3
3704.16
3533.31
3345.64
3141
2919.27
2680.28
1892.28
1873.54
1855.42
1837.87
)


20
(
5583.8
5572.54
5538.77
5482.45
5403.54
5302
5177.73
5030.66
4860.68
4667.68
4451.52
4212.09
3949.22
3662.77
3352.57
3018.48
1917.3
1891.1
1865.76
1841.22
)


20
(
6584.23
6569.9
6526.93
6455.28
6354.89
6225.72
6067.68
5880.67
5664.57
5419.26
5144.61
4840.45
4506.64
4143
3749.37
3325.55
1928.95
1895.72
1863.57
1832.44
)


20
(
7496.53
7479.37
7427.89
7342.06
7221.82
7067.11
6877.84
6653.9
6395.17
6101.51
5772.78
5408.8
5009.42
4574.44
4103.68
3596.96
1927.35
1887.61
1849.16
1811.94
)


20
(
8306.57
8286.86
8227.7
8129.07
7990.91
7813.15
7595.69
7338.42
7041.21
6703.92
6326.38
5908.42
5449.87
4950.52
4410.18
3828.65
1912.74
1867.13
1823.01
1780.29
)


20
(
9001.8
8979.84
8913.95
8804.1
8650.23
8452.27
8210.11
7923.64
7592.71
7217.19
6796.89
6331.64
5821.24
5265.5
4664.22
4017.17
1885.56
1834.81
1785.72
1738.18
)


20
(
9571.41
9547.56
9476
9356.7
9189.58
8974.58
8711.6
8400.5
8041.15
7633.39
7177.05
6671.94
6117.86
5514.6
4861.96
4159.72
1846.38
1791.31
1738.02
1686.43
)


20
(
10006.6
9981.22
9905.13
9778.27
9600.59
9371.99
9092.38
8761.63
8379.59
7946.11
7461.01
6924.09
6335.16
5694.01
5000.42
4254.17
1795.95
1737.42
1680.8
1625.96
)


20
(
10300.6
10274.1
10194.7
10062.3
9876.88
9638.34
9346.56
9001.43
8602.81
8150.52
7644.39
7084.23
6469.84
5801
5077.5
4299.11
1735.14
1674.08
1615.02
1557.83
)


20
(
10448.8
10421.7
10340.2
10204.4
10014.2
9769.53
9470.24
9116.24
8707.38
8243.49
7724.4
7149.92
6519.85
5833.97
5092.07
4293.94
1664.98
1602.38
1541.82
1483.17
)


20
(
10449.1
10421.7
10339.5
10202.5
10010.5
9763.59
9461.57
9104.33
8691.75
8223.65
7699.87
7120.21
6484.49
5792.48
5043.99
4238.8
1586.65
1523.49
1462.4
1403.23
)


20
(
10301.6
10274.3
10192.7
10056.6
9865.96
9620.71
9320.77
8965.99
8556.26
8091.41
7571.27
6995.67
6364.41
5677.29
4934.11
4134.65
1501.47
1438.76
1378.1
1319.35
)


20
(
10008.5
9981.96
9902.18
9769.17
9582.88
9343.24
9050.15
8703.49
8303.14
7848.94
7340.73
6778.34
6161.59
5490.28
4764.23
3983.22
1410.85
1349.59
1290.33
1232.94
)


20
(
9574.75
9549.2
9472.56
9344.78
9165.81
8935.6
8654.03
8321.01
7936.41
7500.1
7011.91
6471.69
5879.27
5234.46
4537.08
3786.94
1316.27
1257.44
1200.52
1145.39
)


20
(
9006.88
8982.78
8910.5
8789.98
8621.2
8404.08
8138.53
7824.46
7461.75
7050.28
6589.9
6080.45
5521.79
4913.74
4256.14
3548.81
1219.14
1163.66
1109.99
1058.01
)


20
(
8313.42
8291.16
8224.39
8113.07
7957.16
7756.6
7511.31
7221.21
6886.18
6506.12
6080.88
5610.34
5094.35
4532.75
3925.39
3272.12
1120.54
1069.3
1019.73
971.729
)


20
(
7504.18
7484.12
7423.93
7323.58
7183.04
7002.25
6781.14
6519.64
6217.65
5875.06
5491.76
5067.63
4602.54
4096.35
3548.93
2960.14
1020.93
974.743
930.066
886.8
)


20
(
6589.81
6572.27
6519.62
6431.84
6308.92
6150.78
5957.39
5728.67
5464.53
5164.89
4829.65
4458.7
4051.92
3609.22
3130.45
2615.51
919.545
879.156
840.083
802.244
)


20
(
5580.64
5565.88
5521.62
5447.82
5344.47
5211.51
5048.92
4856.62
4634.54
4382.63
4100.78
3788.91
3446.94
3074.76
2672.27
2239.37
813.638
779.685
746.838
715.029
)


20
(
4485.86
4474.14
4438.95
4380.29
4298.13
4192.46
4063.21
3910.36
3733.85
3533.62
3309.61
3061.75
2789.95
2494.16
2174.29
1830.27
697.238
670.256
644.153
618.875
)


20
(
3312.54
3304.01
3278.44
3235.81
3176.1
3099.3
3005.38
2894.31
2766.05
2620.57
2457.81
2277.74
2080.29
1865.42
1633.08
1383.21
560.32
540.723
521.766
503.407
)


20
(
2068.62
2063.42
2047.82
2021.81
1985.38
1938.54
1881.25
1813.51
1735.31
1646.61
1547.41
1437.67
1317.38
1186.5
1045.02
892.899
392
380.071
368.531
357.355
)


20
(
773.793
771.98
766.539
757.472
744.78
728.464
708.527
684.972
657.802
627.019
592.628
554.633
513.039
467.849
419.069
366.703
194.416
190.311
186.339
182.493
)


20
(
2249.19
2248.01
2244.48
2238.59
2230.29
2219.56
2206.36
2190.61
2172.27
2151.25
2127.47
2100.85
2071.28
2038.67
2002.91
1963.89
1834.37
1831.32
1828.37
1825.52
)


20
(
3432.81
3428.13
3414.09
3390.66
3357.81
3315.5
3263.67
3202.25
3131.17
3050.33
2959.64
2858.99
2748.26
2627.33
2496.08
2354.38
1886.73
1875.63
1864.89
1854.49
)


20
(
4577.15
4569.04
4544.72
4504.15
4447.3
4374.13
4284.55
4178.5
4055.88
3916.59
3760.51
3587.51
3397.48
3190.26
2965.72
2723.7
1925.7
1906.72
1888.37
1870.6
)


20
(
5664.57
5653.17
5618.96
5561.93
5482.02
5379.18
5253.34
5104.39
4932.25
4736.78
4517.87
4275.37
4009.13
3719.01
3404.83
3066.44
1951.08
1924.55
1898.88
1874.03
)


20
(
6678.28
6663.78
6620.25
6547.68
6446.01
6315.18
6155.1
5965.68
5746.8
5498.34
5220.14
4912.06
4573.93
4205.59
3806.86
3377.55
1962.83
1929.16
1896.59
1865.06
)


20
(
7602.62
7585.24
7533.1
7446.15
7324.36
7167.65
6975.93
6749.09
6487.01
6189.55
5856.55
5487.85
5083.27
4642.64
4165.75
3652.42
1961.05
1920.79
1881.84
1844.13
)


20
(
8423.26
8403.28
8343.36
8243.45
8103.49
7923.42
7703.14
7442.52
7141.45
6799.76
6417.31
5993.9
5529.37
5023.5
4476.1
3886.97
1946
1899.8
1855.1
1811.82
)


20
(
9127.47
9105.22
9038.48
8927.2
8771.32
8570.78
8325.46
8035.25
7700.01
7319.58
6893.79
6422.46
5905.39
5342.38
4733.22
4077.69
1918.13
1866.72
1816.98
1768.82
)


20
(
9704.33
9680.16
9607.67
9486.8
9317.51
9099.7
8833.28
8518.11
8154.06
7740.97
7278.65
6766.92
6205.58
5594.41
4933.21
4221.75
1878.03
1822.23
1768.25
1715.97
)


20
(
10144.9
10119.2
10042.1
9913.58
9733.57
9501.98
9218.7
8883.62
8496.58
8057.41
7565.95
7021.99
6425.33
5775.75
5073.05
4316.99
1826.44
1767.14
1709.77
1654.22
)


20
(
10442.3
10415.5
10335
10200.9
10013.1
9771.38
9475.78
9126.13
8722.27
8264.04
7751.27
7183.75
6561.28
5883.64
5150.62
4362
1764.26
1702.4
1642.57
1584.62
)


20
(
10592
10564.5
10482
10344.4
10151.7
9903.77
9600.55
9241.9
8827.67
8357.69
7831.77
7249.73
6611.37
5916.46
5164.8
4356.15
1692.55
1629.12
1567.76
1508.34
)


20
(
10591.7
10563.9
10480.6
10341.8
10147.3
9897.14
9591.15
9229.22
8811.21
8336.95
7806.28
7218.99
6574.89
5873.78
5115.42
4299.61
1612.49
1548.5
1486.6
1426.65
)


20
(
10441.5
10413.9
10331.2
10193.3
10000.2
9751.7
9447.8
9088.36
8673.24
8202.27
7675.28
7092.1
6452.51
5756.34
5003.35
4193.36
1525.42
1461.89
1400.42
1340.9
)


20
(
10143.9
10116.9
10036.1
9901.36
9712.62
9469.83
9172.87
8821.65
8416.02
7955.84
7440.93
6871.13
6246.24
5566.08
4830.45
4039.14
1432.8
1370.73
1310.68
1252.54
)


20
(
9703.59
9677.71
9600.05
9470.59
9289.27
9056.02
8770.75
8433.34
8043.67
7601.6
7106.98
6559.63
5959.39
5306.07
4599.48
3839.44
1336.13
1276.52
1218.85
1163
)


20
(
9127.45
9103.04
9029.8
8907.7
8736.69
8516.7
8247.66
7929.45
7561.96
7145.05
6678.6
6162.43
5596.39
4980.31
4314.02
3597.34
1236.88
1180.67
1126.29
1073.62
)


20
(
8424.11
8401.56
8333.9
8221.12
8063.15
7859.94
7611.42
7317.49
6978.04
6592.96
6162.11
5685.35
5162.54
4593.52
3978.14
3316.23
1136.2
1084.28
1034.06
985.42
)


20
(
7603.55
7583.22
7522.24
7420.56
7278.17
7094.99
6870.97
6606.01
6300.03
5952.92
5564.56
5134.83
4663.59
4150.71
3596.05
2999.47
1034.6
987.808
942.54
898.702
)


20
(
6676.61
6658.83
6605.49
6516.56
6392
6231.79
6035.84
5804.1
5536.47
5232.87
4893.2
4517.35
4105.2
3656.64
3171.54
2649.78
931.381
890.457
850.867
812.528
)


20
(
5653.77
5638.82
5593.97
5519.2
5414.48
5279.77
5115.03
4920.19
4695.19
4439.94
4154.37
3838.39
3491.9
3114.8
2706.99
2268.36
823.771
789.368
756.087
723.857
)


20
(
4544.33
4532.45
4496.8
4437.37
4354.13
4247.06
4116.12
3961.25
3782.42
3579.55
3352.58
3101.44
2826.07
2526.37
2202.28
1853.71
705.709
678.37
651.922
626.31
)


20
(
3355.36
3346.72
3320.81
3277.62
3217.14
3139.33
3044.18
2931.65
2801.71
2654.31
2489.41
2306.97
2106.93
1889.23
1653.83
1400.67
566.937
547.082
527.875
509.275
)


20
(
2094.79
2089.52
2073.72
2047.37
2010.47
1963.01
1904.98
1836.36
1757.14
1667.29
1566.79
1455.62
1333.76
1201.17