/*--------------------------------*- C++ -*----------------------------------*\
| =========                 |                                                 |
| \\      /  F ield         | OpenFOAM: The Open Source CFD Toolbox           |
|  \\    /   O peration     | Version:  2212                                  |
|   \\  /    A nd           | Website:  www.openfoam.com                      |
|    \\/     M anipulation  |                                                 |
\*---------------------------------------------------------------------------*/
FoamFile
{
    version     2.0;
    format      ascii;
    arch        "LSB;label=32;scalar=64";
    class       volScalarField;
    location    "80/fluidRegion";
    object      heatFlux.structure;
}
// * * * * * * * * * * * * * * * * * * * * * * * * * * * * * * * * * * * * * //

dimensions      [1 0 -3 0 0 0 0];

internalField   nonuniform List<scalar> 
350
(
-258320
-258323
-258325
-258328
-258330
-258332
-258333
-258334
-258334
-258334
-258334
-258335
-258336
-258338
-258341
-258345
-258348
-258350
-258353
-258355
-258358
-258361
-258366
-258371
-258806
-258320
-258323
-258325
-258328
-258330
-258332
-258333
-258334
-258334
-258334
-258334
-258335
-258336
-258338
-258341
-258345
-258348
-258350
-258353
-258355
-258358
-258361
-258366
-258371
-258806
450386
1.34417e+06
2.21676e+06
3.05439e+06
3.84384e+06
4.57267e+06
5.22939e+06
5.80364e+06
6.28635e+06
6.66993e+06
6.94832e+06
7.11713e+06
7.1737e+06
7.11713e+06
6.94833e+06
6.66994e+06
6.28637e+06
5.80366e+06
5.22939e+06
4.57271e+06
3.84388e+06
3.05445e+06
2.2168e+06
1.34419e+06
450447
455545
1.35957e+06
2.24215e+06
3.08937e+06
3.88787e+06
4.62505e+06
5.28929e+06
5.87012e+06
6.35836e+06
6.74633e+06
7.02791e+06
7.19866e+06
7.25587e+06
7.19866e+06
7.02792e+06
6.74635e+06
6.35838e+06
5.87014e+06
5.2893e+06
4.62509e+06
3.88791e+06
3.08944e+06
2.24219e+06
1.35959e+06
455607
449565
1.34172e+06
2.21272e+06
3.04881e+06
3.83683e+06
4.56433e+06
5.21985e+06
5.79305e+06
6.27489e+06
6.65776e+06
6.93564e+06
7.10415e+06
7.16061e+06
7.10415e+06
6.93565e+06
6.65778e+06
6.27491e+06
5.79307e+06
5.21985e+06
4.56436e+06
3.83686e+06
3.04888e+06
2.21276e+06
1.34174e+06
449625
454357
1.35603e+06
2.23631e+06
3.08132e+06
3.87774e+06
4.613e+06
5.2755e+06
5.85481e+06
6.34179e+06
6.72875e+06
7.00959e+06
7.17989e+06
7.23696e+06
7.17989e+06
7.0096e+06
6.72876e+06
6.34181e+06
5.85484e+06
5.27551e+06
4.61303e+06
3.87777e+06
3.08139e+06
2.23635e+06
1.35604e+06
454419
454357
1.35603e+06
2.23631e+06
3.08132e+06
3.87773e+06
4.613e+06
5.2755e+06
5.85481e+06
6.34179e+06
6.72875e+06
7.00959e+06
7.17989e+06
7.23696e+06
7.17989e+06
7.0096e+06
6.72876e+06
6.34181e+06
5.85484e+06
5.27551e+06
4.61303e+06
3.87777e+06
3.08139e+06
2.23635e+06
1.35604e+06
454419
449565
1.34172e+06
2.21272e+06
3.04881e+06
3.83683e+06
4.56433e+06
5.21985e+06
5.79305e+06
6.27489e+06
6.65776e+06
6.93564e+06
7.10415e+06
7.16061e+06
7.10415e+06
6.93565e+06
6.65778e+06
6.27491e+06
5.79307e+06
5.21986e+06
4.56436e+06
3.83686e+06
3.04888e+06
2.21276e+06
1.34174e+06
449626
455545
1.35957e+06
2.24215e+06
3.08937e+06
3.88787e+06
4.62505e+06
5.28929e+06
5.87011e+06
6.35836e+06
6.74633e+06
7.02791e+06
7.19866e+06
7.25587e+06
7.19866e+06
7.02792e+06
6.74635e+06
6.35838e+06
5.87014e+06
5.2893e+06
4.62509e+06
3.88791e+06
3.08944e+06
2.2422e+06
1.35959e+06
455607
450386
1.34417e+06
2.21676e+06
3.05439e+06
3.84384e+06
4.57267e+06
5.22939e+06
5.80363e+06
6.28635e+06
6.66993e+06
6.94832e+06
7.11713e+06
7.1737e+06
7.11713e+06
6.94833e+06
6.66994e+06
6.28637e+06
5.80366e+06
5.22939e+06
4.57271e+06
3.84388e+06
3.05446e+06
2.2168e+06
1.34419e+06
450447
454357
1.35603e+06
2.23631e+06
3.08132e+06
3.87773e+06
4.613e+06
5.2755e+06
5.85481e+06
6.34179e+06
6.72875e+06
7.00959e+06
7.17989e+06
7.23696e+06
7.17989e+06
7.0096e+06
6.72876e+06
6.34181e+06
5.85484e+06
5.27551e+06
4.61303e+06
3.87777e+06
3.08139e+06
2.23635e+06
1.35604e+06
454419
449565
1.34172e+06
2.21272e+06
3.04881e+06
3.83683e+06
4.56433e+06
5.21985e+06
5.79305e+06
6.27489e+06
6.65776e+06
6.93564e+06
7.10415e+06
7.16061e+06
7.10415e+06
6.93565e+06
6.65778e+06
6.27491e+06
5.79307e+06
5.21985e+06
4.56436e+06
3.83686e+06
3.04888e+06
2.21276e+06
1.34174e+06
449625
449565
1.34172e+06
2.21272e+06
3.04881e+06
3.83683e+06
4.56433e+06
5.21985e+06
5.79305e+06
6.27489e+06
6.65776e+06
6.93564e+06
7.10415e+06
7.16061e+06
7.10415e+06
6.93565e+06
6.65778e+06
6.27491e+06
5.79307e+06
5.21986e+06
4.56437e+06
3.83686e+06
3.04888e+06
2.21276e+06
1.34174e+06
449625
454357
1.35603e+06
2.23631e+06
3.08132e+06
3.87773e+06
4.613e+06
5.2755e+06
5.85481e+06
6.34179e+06
6.72875e+06
7.00959e+06
7.17989e+06
7.23696e+06
7.17989e+06
7.0096e+06
6.72876e+06
6.34181e+06
5.85484e+06
5.27551e+06
4.61303e+06
3.87777e+06
3.08139e+06
2.23635e+06
1.35604e+06
454419
)
;

boundaryField
{
    outletCentralUnloaded
    {
        type            zeroGradient;
    }
    inletCentralUnloaded
    {
        type            zeroGradient;
    }
    outletFuelElement
    {
        type            zeroGradient;
    }
    inletFuelElement
    {
        type            zeroGradient;
    }
    defaultFaces
    {
        type            zeroGradient;
    }
    baffle_master
    {
        type            zeroGradient;
    }
    baffle_slave
    {
        type            zeroGradient;
    }
}


// ************************************************************************* //
