/*--------------------------------*- C++ -*----------------------------------*\
| =========                 |                                                 |
| \\      /  F ield         | OpenFOAM: The Open Source CFD Toolbox           |
|  \\    /   O peration     | Version:  2212                                  |
|   \\  /    A nd           | Website:  www.openfoam.com                      |
|    \\/     M anipulation  |                                                 |
\*---------------------------------------------------------------------------*/
FoamFile
{
    version     2.0;
    format      ascii;
    arch        "LSB;label=32;scalar=64";
    class       volScalarField;
    location    "80/fluidRegion";
    object      Tfav.nuclearFuelPin;
}
// * * * * * * * * * * * * * * * * * * * * * * * * * * * * * * * * * * * * * //

dimensions      [0 0 0 1 0 0 0];

internalField   nonuniform List<scalar> 
350
(
0
0
0
0
0
0
0
0
0
0
0
0
0
0
0
0
0
0
0
0
0
0
0
0
0
0
0
0
0
0
0
0
0
0
0
0
0
0
0
0
0
0
0
0
0
0
0
0
0
0
2223.28
3010.31
3766.64
4480.72
5141.62
5739.17
6264.17
6708.51
7065.3
7329.02
7495.57
7562.38
7528.43
7394.33
7162.24
6835.88
6420.29
5921.63
5346.63
4702.14
3993.85
3225.14
2395.62
1504.3
564.351
2256.06
3052.29
3817.37
4539.66
5208.06
5812.32
6343.11
6792.24
7152.75
7419.06
7587.02
7654.04
7619.1
7482.79
7247.33
6916.48
6495.39
5990.32
5408.14
4755.81
4039.14
3261.52
2422.47
1520.82
569.898
2217.97
3003.56
3758.51
4471.31
5131.03
5727.53
6251.62
6695.21
7051.42
7314.74
7481.08
7547.86
7514.08
7380.33
7148.79
6823.13
6408.42
5910.77
5336.92
4693.67
3986.71
3219.42
2391.42
1501.71
563.476
2248.67
3042.76
3805.82
4526.2
5192.86
5795.56
6325
6773.02
7132.66
7398.36
7565.99
7632.95
7598.23
7462.42
7227.74
6897.92
6478.09
5974.49
5393.97
4743.45
4028.7
3253.14
2416.28
1517.01
568.62
2248.67
3042.76
3805.82
4526.2
5192.86
5795.56
6325
6773.02
7132.66
7398.36
7565.99
7632.95
7598.23
7462.42
7227.74
6897.92
6478.09
5974.49
5393.97
4743.45
4028.7
3253.14
2416.28
1517.01
568.62
2217.97
3003.56
3758.51
4471.31
5131.03
5727.53
6251.62
6695.21
7051.42
7314.74
7481.08
7547.86
7514.09
7380.34
7148.79
6823.13
6408.42
5910.77
5336.92
4693.67
3986.71
3219.42
2391.42
1501.71
563.477
2256.06
3052.29
3817.37
4539.66
5208.06
5812.32
6343.11
6792.24
7152.75
7419.06
7587.02
7654.04
7619.1
7482.79
7247.33
6916.48
6495.39
5990.32
5408.14
4755.81
4039.14
3261.52
2422.47
1520.82
569.898
2223.28
3010.31
3766.64
4480.72
5141.62
5739.17
6264.17
6708.5
7065.3
7329.02
7495.57
7562.38
7528.43
7394.33
7162.24
6835.88
6420.29
5921.63
5346.63
4702.14
3993.85
3225.14
2395.62
1504.3
564.351
2248.67
3042.76
3805.82
4526.2
5192.86
5795.56
6325
6773.02
7132.66
7398.36
7565.99
7632.95
7598.23
7462.42
7227.74
6897.92
6478.09
5974.49
5393.97
4743.45
4028.7
3253.14
2416.28
1517.01
568.62
2217.97
3003.56
3758.51
4471.31
5131.03
5727.53
6251.62
6695.21
7051.42
7314.74
7481.08
7547.86
7514.08
7380.33
7148.79
6823.13
6408.42
5910.77
5336.92
4693.67
3986.71
3219.42
2391.42
1501.71
563.476
2217.97
3003.56
3758.51
4471.31
5131.03
5727.53
6251.62
6695.21
7051.42
7314.74
7481.08
7547.86
7514.09
7380.34
7148.79
6823.13
6408.42
5910.77
5336.92
4693.67
3986.71
3219.42
2391.42
1501.71
563.477
2248.67
3042.76
3805.82
4526.2
5192.86
5795.56
6325
6773.02
7132.66
7398.36
7565.99
7632.95
7598.23
7462.42
7227.74
6897.92
6478.09
5974.49
5393.97
4743.45
4028.7
3253.14
2416.28
1517.01
568.62
)
;

boundaryField
{
    outletCentralUnloaded
    {
        type            zeroGradient;
    }
    inletCentralUnloaded
    {
        type            zeroGradient;
    }
    outletFuelElement
    {
        type            zeroGradient;
    }
    inletFuelElement
    {
        type            zeroGradient;
    }
    defaultFaces
    {
        type            zeroGradient;
    }
    baffle_master
    {
        type            zeroGradient;
    }
    baffle_slave
    {
        type            zeroGradient;
    }
}


// ************************************************************************* //
