/*--------------------------------*- C++ -*----------------------------------*\
| =========                 |                                                 |
| \\      /  F ield         | OpenFOAM: The Open Source CFD Toolbox           |
|  \\    /   O peration     | Version:  2212                                  |
|   \\  /    A nd           | Website:  www.openfoam.com                      |
|    \\/     M anipulation  |                                                 |
\*---------------------------------------------------------------------------*/
FoamFile
{
    version     2.0;
    format      ascii;
    arch        "LSB;label=32;scalar=64";
    class       volScalarField;
    location    "80/fluidRegion";
    object      Tfo.nuclearFuelPin;
}
// * * * * * * * * * * * * * * * * * * * * * * * * * * * * * * * * * * * * * //

dimensions      [0 0 0 1 0 0 0];

internalField   nonuniform List<scalar> 
350
(
0
0
0
0
0
0
0
0
0
0
0
0
0
0
0
0
0
0
0
0
0
0
0
0
0
0
0
0
0
0
0
0
0
0
0
0
0
0
0
0
0
0
0
0
0
0
0
0
0
0
2022.82
2412.03
2779.97
3121.23
3430.75
3703.9
3936.59
4125.33
4267.27
4360.26
4402.9
4394.57
4335.45
4226.52
4069.57
3867.11
3622.25
3338.44
3019.05
2666.85
2282.96
1865.62
1408.93
906.002
363.859
2053.3
2447.15
2819.41
3164.59
3477.59
3753.73
3988.87
4179.48
4322.67
4416.3
4458.93
4449.95
4389.54
4278.69
4119.23
3913.71
3665.3
3377.54
3053.89
2697.2
2308.64
1886.42
1424.48
915.67
367.109
2017.88
2406.37
2773.64
3114.29
3423.27
3695.97
3928.29
4116.75
4258.5
4351.4
4394.05
4385.84
4326.92
4218.3
4061.75
3859.78
3615.49
3332.3
3013.58
2662.09
2278.94
1862.38
1406.53
904.512
363.35
2046.44
2439.2
2810.45
3154.72
3466.9
3742.34
3976.9
4167.06
4309.96
4403.42
4446.05
4437.21
4377.09
4266.68
4107.79
3902.97
3655.38
3368.53
3045.86
2690.21
2302.72
1881.62
1420.89
913.438
366.359
2046.44
2439.2
2810.45
3154.72
3466.9
3742.34
3976.9
4167.06
4309.96
4403.42
4446.05
4437.21
4377.09
4266.68
4107.79
3902.97
3655.38
3368.53
3045.86
2690.21
2302.72
1881.62
1420.89
913.438
366.359
2017.88
2406.37
2773.64
3114.3
3423.27
3695.97
3928.29
4116.75
4258.5
4351.4
4394.05
4385.84
4326.93
4218.31
4061.76
3859.78
3615.49
3332.3
3013.58
2662.09
2278.94
1862.38
1406.53
904.512
363.35
2053.3
2447.15
2819.41
3164.59
3477.59
3753.73
3988.87
4179.48
4322.67
4416.3
4458.93
4449.95
4389.54
4278.69
4119.23
3913.71
3665.3
3377.54
3053.89
2697.2
2308.64
1886.42
1424.48
915.67
367.109
2022.82
2412.03
2779.97
3121.23
3430.75
3703.9
3936.59
4125.33
4267.27
4360.26
4402.9
4394.57
4335.45
4226.52
4069.57
3867.11
3622.25
3338.44
3019.05
2666.85
2282.96
1865.62
1408.93
906.002
363.859
2046.44
2439.2
2810.45
3154.72
3466.9
3742.34
3976.9
4167.06
4309.96
4403.42
4446.05
4437.21
4377.09
4266.68
4107.79
3902.97
3655.38
3368.53
3045.86
2690.21
2302.72
1881.62
1420.89
913.438
366.359
2017.88
2406.37
2773.64
3114.29
3423.27
3695.97
3928.29
4116.75
4258.5
4351.4
4394.05
4385.84
4326.92
4218.3
4061.75
3859.78
3615.49
3332.3
3013.58
2662.09
2278.94
1862.38
1406.53
904.512
363.35
2017.88
2406.37
2773.64
3114.3
3423.27
3695.97
3928.29
4116.75
4258.5
4351.4
4394.05
4385.84
4326.93
4218.31
4061.76
3859.78
3615.49
3332.3
3013.58
2662.09
2278.94
1862.38
1406.53
904.512
363.35
2046.44
2439.2
2810.45
3154.72
3466.9
3742.34
3976.9
4167.06
4309.96
4403.42
4446.05
4437.21
4377.09
4266.68
4107.79
3902.97
3655.38
3368.53
3045.86
2690.21
2302.72
1881.62
1420.89
913.438
366.359
)
;

boundaryField
{
    outletCentralUnloaded
    {
        type            zeroGradient;
    }
    inletCentralUnloaded
    {
        type            zeroGradient;
    }
    outletFuelElement
    {
        type            zeroGradient;
    }
    inletFuelElement
    {
        type            zeroGradient;
    }
    defaultFaces
    {
        type            zeroGradient;
    }
    baffle_master
    {
        type            zeroGradient;
    }
    baffle_slave
    {
        type            zeroGradient;
    }
}


// ************************************************************************* //
