/*--------------------------------*- C++ -*----------------------------------*\
| =========                 |                                                 |
| \\      /  F ield         | OpenFOAM: The Open Source CFD Toolbox           |
|  \\    /   O peration     | Version:  2212                                  |
|   \\  /    A nd           | Website:  www.openfoam.com                      |
|    \\/     M anipulation  |                                                 |
\*---------------------------------------------------------------------------*/
FoamFile
{
    version     2.0;
    format      ascii;
    arch        "LSB;label=32;scalar=64";
    class       volScalarField;
    location    "28/neutroRegion";
    object      TClad;
}
// * * * * * * * * * * * * * * * * * * * * * * * * * * * * * * * * * * * * * //

dimensions      [0 0 0 1 0 0 0];

internalField   nonuniform List<scalar> 
350
(
0
0
0
0
0
0
0
0
0
0
0
0
0
0
0
0
0
0
0
0
0
0
0
0
0
0
0
0
0
0
0
0
0
0
0
0
0
0
0
0
0
0
0
0
0
0
0
0
0
0
1774.72
1814.96
1842.39
1857
1858.92
1848.42
1825.92
1791.96
1747.26
1692.63
1629.05
1557.59
1479.47
1396
1308.58
1218.65
1127.53
1036.21
945.015
853.063
757.454
652.176
527.336
372.363
189.342
1801.49
1842.4
1870.27
1885.1
1887.01
1876.29
1853.34
1818.74
1773.2
1717.56
1652.79
1579.99
1500.4
1415.35
1326.26
1234.6
1141.74
1048.72
955.925
862.506
765.557
658.978
532.675
375.814
190.51
1770.36
1810.52
1837.89
1852.49
1854.43
1843.98
1821.56
1787.72
1743.16
1688.71
1625.33
1554.09
1476.21
1393
1305.85
1216.2
1125.35
1034.3
943.349
851.626
756.229
651.158
526.548
371.858
189.165
1795.47
1836.21
1863.96
1878.73
1880.63
1869.95
1847.09
1812.63
1767.27
1711.85
1647.34
1574.85
1495.59
1410.89
1322.18
1230.92
1138.46
1045.83
953.403
860.323
763.682
657.403
531.438
375.013
190.24
1795.47
1836.21
1863.96
1878.73
1880.63
1869.95
1847.09
1812.63
1767.27
1711.85
1647.34
1574.85
1495.59
1410.89
1322.18
1230.92
1138.46
1045.83
953.403
860.323
763.682
657.403
531.438
375.013
190.24
1770.36
1810.52
1837.89
1852.49
1854.43
1843.98
1821.56
1787.72
1743.17
1688.72
1625.33
1554.09
1476.21
1393
1305.85
1216.2
1125.35
1034.3
943.35
851.627
756.23
651.159
526.549
371.858
189.165
1801.49
1842.4
1870.27
1885.1
1887.01
1876.29
1853.34
1818.74
1773.2
1717.56
1652.79
1579.99
1500.4
1415.35
1326.26
1234.6
1141.74
1048.72
955.925
862.506
765.557
658.978
532.675
375.814
190.51
1774.72
1814.96
1842.39
1857
1858.92
1848.42
1825.92
1791.96
1747.26
1692.63
1629.05
1557.59
1479.47
1396
1308.58
1218.65
1127.53
1036.21
945.015
853.063
757.454
652.176
527.336
372.363
189.343
1795.47
1836.21
1863.96
1878.73
1880.63
1869.95
1847.09
1812.63
1767.27
1711.85
1647.34
1574.85
1495.59
1410.89
1322.18
1230.92
1138.46
1045.83
953.403
860.323
763.682
657.403
531.438
375.013
190.24
1770.36
1810.52
1837.89
1852.49
1854.43
1843.98
1821.56
1787.72
1743.16
1688.71
1625.33
1554.09
1476.21
1393
1305.85
1216.2
1125.35
1034.3
943.349
851.626
756.229
651.158
526.548
371.858
189.165
1770.36
1810.52
1837.89
1852.49
1854.43
1843.98
1821.56
1787.72
1743.17
1688.72
1625.33
1554.09
1476.21
1393
1305.85
1216.2
1125.35
1034.3
943.35
851.627
756.23
651.159
526.549
371.858
189.165
1795.47
1836.21
1863.96
1878.73
1880.63
1869.95
1847.09
1812.63
1767.27
1711.85
1647.34
1574.85
1495.59
1410.89
1322.18
1230.92
1138.46
1045.83
953.403
860.323
763.682
657.403
531.438
375.013
190.24
)
;

boundaryField
{
    outletCentralUnloaded
    {
        type            zeroGradient;
    }
    inletCentralUnloaded
    {
        type            zeroGradient;
    }
    outletFuelElement
    {
        type            zeroGradient;
    }
    inletFuelElement
    {
        type            zeroGradient;
    }
    defaultFaces
    {
        type            zeroGradient;
    }
}


// ************************************************************************* //
