/*--------------------------------*- C++ -*----------------------------------*\
| =========                 |                                                 |
| \\      /  F ield         | OpenFOAM: The Open Source CFD Toolbox           |
|  \\    /   O peration     | Version:  2212                                  |
|   \\  /    A nd           | Website:  www.openfoam.com                      |
|    \\/     M anipulation  |                                                 |
\*---------------------------------------------------------------------------*/
FoamFile
{
    version     2.0;
    format      ascii;
    arch        "LSB;label=32;scalar=64";
    class       volScalarField;
    location    "38/neutroRegion";
    object      TClad;
}
// * * * * * * * * * * * * * * * * * * * * * * * * * * * * * * * * * * * * * //

dimensions      [0 0 0 1 0 0 0];

internalField   nonuniform List<scalar> 
350
(
0
0
0
0
0
0
0
0
0
0
0
0
0
0
0
0
0
0
0
0
0
0
0
0
0
0
0
0
0
0
0
0
0
0
0
0
0
0
0
0
0
0
0
0
0
0
0
0
0
0
1832.14
1870.85
1896.61
1909.42
1909.4
1896.85
1872.16
1835.92
1788.84
1731.75
1665.63
1591.59
1510.83
1424.71
1334.65
1242.11
1148.47
1054.78
961.426
867.575
770.295
663.347
536.153
376.934
187.423
1860.25
1899.58
1925.74
1938.72
1938.66
1925.82
1900.65
1863.71
1815.73
1757.56
1690.2
1614.76
1532.47
1444.71
1352.91
1258.57
1163.13
1067.68
972.662
877.292
778.632
670.357
541.678
380.519
188.635
1827.58
1866.2
1891.91
1904.71
1904.73
1892.23
1867.64
1831.53
1784.6
1727.7
1661.79
1587.97
1507.47
1421.62
1331.83
1239.58
1146.22
1052.81
959.713
866.099
769.038
662.3
535.339
376.41
187.238
1853.93
1893.1
1919.15
1932.08
1932.02
1919.23
1894.15
1857.36
1809.57
1751.65
1684.56
1609.43
1527.5
1440.1
1348.7
1254.78
1159.74
1064.69
970.064
875.045
776.703
668.734
540.397
379.687
188.355
1853.93
1893.1
1919.15
1932.08
1932.02
1919.23
1894.15
1857.36
1809.57
1751.65
1684.56
1609.43
1527.5
1440.1
1348.7
1254.78
1159.74
1064.69
970.064
875.045
776.703
668.734
540.397
379.687
188.355
1827.58
1866.2
1891.91
1904.72
1904.73
1892.23
1867.65
1831.53
1784.6
1727.7
1661.79
1587.97
1507.47
1421.62
1331.83
1239.58
1146.22
1052.81
959.713
866.1
769.038
662.301
535.34
376.411
187.238
1860.25
1899.58
1925.74
1938.72
1938.66
1925.82
1900.65
1863.71
1815.73
1757.56
1690.2
1614.76
1532.47
1444.71
1352.91
1258.57
1163.13
1067.67
972.662
877.292
778.632
670.357
541.678
380.519
188.635
1832.14
1870.85
1896.61
1909.42
1909.4
1896.85
1872.16
1835.92
1788.84
1731.75
1665.63
1591.59
1510.83
1424.71
1334.65
1242.11
1148.47
1054.78
961.426
867.575
770.295
663.347
536.153
376.934
187.423
1853.93
1893.1
1919.15
1932.08
1932.02
1919.23
1894.15
1857.36
1809.57
1751.65
1684.56
1609.43
1527.5
1440.1
1348.7
1254.78
1159.74
1064.69
970.064
875.045
776.703
668.734
540.397
379.687
188.355
1827.58
1866.2
1891.91
1904.71
1904.73
1892.23
1867.64
1831.53
1784.6
1727.7
1661.79
1587.97
1507.47
1421.62
1331.83
1239.58
1146.22
1052.81
959.713
866.099
769.038
662.3
535.34
376.41
187.238
1827.58
1866.2
1891.91
1904.72
1904.73
1892.23
1867.65
1831.53
1784.6
1727.7
1661.79
1587.97
1507.47
1421.62
1331.83
1239.58
1146.22
1052.81
959.713
866.1
769.038
662.301
535.34
376.411
187.238
1853.93
1893.1
1919.15
1932.08
1932.02
1919.23
1894.15
1857.36
1809.57
1751.65
1684.56
1609.43
1527.5
1440.1
1348.7
1254.77
1159.74
1064.69
970.064
875.045
776.703
668.734
540.397
379.687
188.355
)
;

boundaryField
{
    outletCentralUnloaded
    {
        type            zeroGradient;
    }
    inletCentralUnloaded
    {
        type            zeroGradient;
    }
    outletFuelElement
    {
        type            zeroGradient;
    }
    inletFuelElement
    {
        type            zeroGradient;
    }
    defaultFaces
    {
        type            zeroGradient;
    }
}


// ************************************************************************* //
