/*--------------------------------*- C++ -*----------------------------------*\
| =========                 |                                                 |
| \\      /  F ield         | OpenFOAM: The Open Source CFD Toolbox           |
|  \\    /   O peration     | Version:  2212                                  |
|   \\  /    A nd           | Website:  www.openfoam.com                      |
|    \\/     M anipulation  |                                                 |
\*---------------------------------------------------------------------------*/
FoamFile
{
    version     2.0;
    format      ascii;
    arch        "LSB;label=32;scalar=64";
    class       volScalarField;
    location    "38/neutroRegion";
    object      TCool;
}
// * * * * * * * * * * * * * * * * * * * * * * * * * * * * * * * * * * * * * //

dimensions      [0 0 0 1 0 0 0];

internalField   nonuniform List<scalar> 
350
(
83.2889
83.2894
83.2899
83.2904
83.2909
83.2914
83.2919
83.2924
83.2928
83.2933
83.2938
83.2943
83.2947
83.295
83.2954
83.2958
83.2962
83.2966
83.2971
83.2977
83.2982
83.2987
83.2992
83.2997
83.3001
83.2889
83.2894
83.2899
83.2904
83.2909
83.2914
83.2919
83.2924
83.2928
83.2933
83.2938
83.2943
83.2947
83.295
83.2954
83.2958
83.2962
83.2966
83.2971
83.2977
83.2982
83.2987
83.2992
83.2997
83.3001
1812
1806.4
1788.4
1758.22
1716.2
1662.84
1598.74
1524.67
1441.49
1350.22
1252
1148.17
1040.23
929.939
819.25
710.253
605.045
505.579
413.559
330.422
257.415
195.736
146.606
111.175
90.1202
1839.94
1834.58
1816.59
1786.2
1743.76
1689.76
1624.84
1549.74
1465.36
1372.7
1272.94
1167.4
1057.62
945.368
832.634
721.563
614.322
512.933
419.16
334.482
260.169
197.431
147.501
111.536
90.197
1807.46
1801.84
1783.86
1753.73
1711.8
1658.55
1594.61
1520.71
1437.74
1346.7
1248.74
1145.18
1037.55
927.571
817.208
708.538
603.647
504.478
412.727
329.824
257.013
195.49
146.477
111.122
90.108
1833.66
1828.23
1810.22
1779.87
1737.51
1683.64
1618.9
1544.02
1459.91
1367.56
1268.14
1162.99
1053.62
941.817
829.549
718.953
612.178
511.232
417.863
333.541
259.53
197.037
147.293
111.452
90.1793
1833.66
1828.23
1810.22
1779.87
1737.51
1683.64
1618.9
1544.02
1459.91
1367.56
1268.14
1162.99
1053.62
941.817
829.549
718.953
612.178
511.232
417.863
333.541
259.53
197.038
147.293
111.452
90.1793
1807.46
1801.85
1783.86
1753.73
1711.8
1658.55
1594.61
1520.71
1437.74
1346.7
1248.74
1145.18
1037.55
927.573
817.21
708.539
603.648
504.479
412.727
329.824
257.013
195.491
146.477
111.122
90.108
1839.94
1834.58
1816.59
1786.2
1743.76
1689.76
1624.84
1549.74
1465.36
1372.7
1272.94
1167.4
1057.62
945.368
832.634
721.563
614.322
512.933
419.16
334.482
260.169
197.431
147.501
111.536
90.197
1812
1806.4
1788.4
1758.22
1716.2
1662.84
1598.74
1524.67
1441.49
1350.22
1252
1148.17
1040.23
929.939
819.251
710.253
605.045
505.579
413.559
330.422
257.415
195.736
146.606
111.175
90.1202
1833.66
1828.23
1810.22
1779.87
1737.51
1683.64
1618.9
1544.02
1459.91
1367.56
1268.14
1162.99
1053.62
941.817
829.549
718.953
612.178
511.232
417.863
333.541
259.53
197.038
147.293
111.452
90.1793
1807.46
1801.84
1783.86
1753.73
1711.8
1658.55
1594.61
1520.71
1437.74
1346.7
1248.74
1145.18
1037.55
927.571
817.208
708.538
603.647
504.478
412.727
329.824
257.013
195.49
146.477
111.122
90.108
1807.46
1801.85
1783.86
1753.73
1711.8
1658.55
1594.61
1520.71
1437.74
1346.7
1248.74
1145.18
1037.55
927.573
817.21
708.539
603.648
504.479
412.727
329.824
257.013
195.491
146.477
111.122
90.108
1833.66
1828.23
1810.22
1779.87
1737.51
1683.64
1618.9
1544.02
1459.91
1367.56
1268.14
1162.99
1053.62
941.817
829.549
718.953
612.178
511.232
417.863
333.541
259.53
197.037
147.293
111.452
90.1793
)
;

boundaryField
{
    outletCentralUnloaded
    {
        type            zeroGradient;
    }
    inletCentralUnloaded
    {
        type            zeroGradient;
    }
    outletFuelElement
    {
        type            zeroGradient;
    }
    inletFuelElement
    {
        type            zeroGradient;
    }
    defaultFaces
    {
        type            zeroGradient;
    }
}


// ************************************************************************* //
