/*--------------------------------*- C++ -*----------------------------------*\
| =========                 |                                                 |
| \\      /  F ield         | OpenFOAM: The Open Source CFD Toolbox           |
|  \\    /   O peration     | Version:  2212                                  |
|   \\  /    A nd           | Website:  www.openfoam.com                      |
|    \\/     M anipulation  |                                                 |
\*---------------------------------------------------------------------------*/
FoamFile
{
    version     2.0;
    format      ascii;
    arch        "LSB;label=32;scalar=64";
    class       volScalarField;
    location    "23/neutroRegion";
    object      TClad;
}
// * * * * * * * * * * * * * * * * * * * * * * * * * * * * * * * * * * * * * //

dimensions      [0 0 0 1 0 0 0];

internalField   nonuniform List<scalar> 
350
(
0
0
0
0
0
0
0
0
0
0
0
0
0
0
0
0
0
0
0
0
0
0
0
0
0
0
0
0
0
0
0
0
0
0
0
0
0
0
0
0
0
0
0
0
0
0
0
0
0
0
1683.96
1725.51
1754.6
1771.21
1775.48
1767.65
1748.13
1717.45
1676.29
1625.44
1565.84
1498.54
1424.72
1345.66
1262.71
1177.22
1090.43
1003.22
915.81
827.275
734.801
632.788
512.407
364.74
192.192
1708.76
1751
1780.57
1797.45
1801.77
1793.78
1773.89
1742.64
1700.72
1648.94
1588.24
1519.7
1444.5
1363.95
1279.42
1192.31
1103.88
1015.08
926.174
836.259
742.51
639.243
517.446
367.978
193.288
1679.92
1721.37
1750.4
1766.99
1771.26
1763.48
1744.03
1713.46
1672.43
1621.74
1562.32
1495.23
1421.64
1342.82
1260.12
1174.89
1088.36
1001.4
914.224
825.905
733.633
631.819
511.661
364.264
192.024
1703.19
1745.26
1774.7
1791.51
1795.8
1787.84
1768.02
1736.89
1695.13
1643.56
1583.1
1514.84
1439.96
1359.74
1275.57
1188.83
1100.78
1012.34
923.779
834.182
740.727
637.749
516.279
367.227
193.035
1703.19
1745.26
1774.7
1791.51
1795.8
1787.84
1768.02
1736.89
1695.13
1643.56
1583.1
1514.84
1439.95
1359.74
1275.57
1188.83
1100.78
1012.34
923.779
834.182
740.727
637.749
516.279
367.227
193.035
1679.92
1721.37
1750.4
1766.99
1771.27
1763.48
1744.03
1713.46
1672.43
1621.74
1562.32
1495.23
1421.64
1342.82
1260.12
1174.9
1088.36
1001.4
914.224
825.906
733.633
631.82
511.661
364.264
192.024
1708.76
1751
1780.57
1797.45
1801.77
1793.78
1773.89
1742.64
1700.72
1648.94
1588.24
1519.7
1444.5
1363.95
1279.42
1192.31
1103.88
1015.08
926.174
836.259
742.51
639.243
517.446
367.978
193.288
1683.96
1725.51
1754.6
1771.21
1775.48
1767.65
1748.13
1717.45
1676.29
1625.44
1565.84
1498.54
1424.72
1345.66
1262.71
1177.22
1090.43
1003.22
915.81
827.275
734.801
632.788
512.407
364.74
192.192
1703.19
1745.26
1774.7
1791.51
1795.8
1787.84
1768.02
1736.89
1695.13
1643.56
1583.1
1514.84
1439.95
1359.74
1275.57
1188.83
1100.78
1012.34
923.779
834.182
740.727
637.749
516.279
367.227
193.035
1679.92
1721.37
1750.4
1766.99
1771.26
1763.48
1744.03
1713.46
1672.43
1621.74
1562.32
1495.23
1421.64
1342.82
1260.12
1174.89
1088.36
1001.4
914.224
825.905
733.633
631.819
511.661
364.264
192.024
1679.92
1721.37
1750.4
1766.99
1771.27
1763.48
1744.03
1713.46
1672.43
1621.74
1562.32
1495.23
1421.64
1342.82
1260.12
1174.9
1088.36
1001.4
914.224
825.906
733.633
631.82
511.661
364.264
192.024
1703.19
1745.26
1774.7
1791.51
1795.8
1787.84
1768.02
1736.89
1695.13
1643.56
1583.1
1514.84
1439.95
1359.74
1275.57
1188.83
1100.78
1012.34
923.779
834.182
740.727
637.749
516.279
367.227
193.035
)
;

boundaryField
{
    outletCentralUnloaded
    {
        type            zeroGradient;
    }
    inletCentralUnloaded
    {
        type            zeroGradient;
    }
    outletFuelElement
    {
        type            zeroGradient;
    }
    inletFuelElement
    {
        type            zeroGradient;
    }
    defaultFaces
    {
        type            zeroGradient;
    }
}


// ************************************************************************* //
