/*--------------------------------*- C++ -*----------------------------------*\
| =========                 |                                                 |
| \\      /  F ield         | OpenFOAM: The Open Source CFD Toolbox           |
|  \\    /   O peration     | Version:  2212                                  |
|   \\  /    A nd           | Website:  www.openfoam.com                      |
|    \\/     M anipulation  |                                                 |
\*---------------------------------------------------------------------------*/
FoamFile
{
    version     2.0;
    format      ascii;
    arch        "LSB;label=32;scalar=64";
    class       volScalarField;
    location    "23/neutroRegion";
    object      TCool;
}
// * * * * * * * * * * * * * * * * * * * * * * * * * * * * * * * * * * * * * //

dimensions      [0 0 0 1 0 0 0];

internalField   nonuniform List<scalar> 
350
(
83.2885
83.289
83.2895
83.29
83.2905
83.291
83.2914
83.2919
83.2924
83.2929
83.2934
83.2939
83.2944
83.2949
83.2953
83.2958
83.2963
83.2968
83.2973
83.2977
83.2982
83.2987
83.2991
83.2996
83.3
83.2885
83.289
83.2895
83.29
83.2905
83.291
83.2914
83.2919
83.2924
83.2929
83.2934
83.2939
83.2944
83.2949
83.2953
83.2958
83.2963
83.2968
83.2973
83.2977
83.2982
83.2987
83.2991
83.2996
83.3
1677.65
1675.97
1662.36
1637.02
1600.28
1552.6
1494.54
1426.84
1350.31
1265.94
1174.85
1078.35
977.907
875.223
772.148
670.632
572.6
479.839
393.918
316.19
247.859
190.082
144.003
110.624
90.4488
1702.56
1701.17
1687.66
1662.21
1625.16
1576.96
1518.2
1449.6
1372
1286.39
1193.9
1095.84
993.708
889.221
784.273
680.866
580.989
486.487
398.981
319.858
250.344
191.609
144.809
110.949
90.5183
1673.59
1671.87
1658.26
1632.96
1596.29
1548.7
1490.78
1423.23
1346.89
1262.73
1171.87
1075.62
975.46
873.066
770.29
669.072
571.33
478.839
393.161
315.646
247.493
189.859
143.886
110.576
90.4376
1696.96
1695.49
1681.94
1656.51
1619.52
1571.43
1512.82
1444.41
1367.05
1281.72
1189.54
1091.83
990.077
886
781.479
678.505
579.052
484.95
397.809
319.009
249.768
191.255
144.622
110.874
90.5023
1696.96
1695.49
1681.94
1656.51
1619.52
1571.43
1512.82
1444.41
1367.05
1281.72
1189.54
1091.83
990.077
886
781.479
678.505
579.052
484.95
397.809
319.009
249.768
191.255
144.622
110.874
90.5023
1673.59
1671.88
1658.27
1632.96
1596.29
1548.7
1490.78
1423.23
1346.89
1262.73
1171.88
1075.63
975.461
873.067
770.291
669.073
571.331
478.839
393.162
315.647
247.494
189.859
143.886
110.576
90.4376
1702.56
1701.17
1687.66
1662.21
1625.16
1576.96
1518.2
1449.6
1372
1286.39
1193.9
1095.84
993.708
889.221
784.273
680.866
580.989
486.487
398.981
319.858
250.344
191.609
144.809
110.949
90.5183
1677.65
1675.97
1662.36
1637.02
1600.28
1552.6
1494.54
1426.84
1350.31
1265.94
1174.85
1078.35
977.907
875.223
772.148
670.632
572.6
479.839
393.918
316.19
247.859
190.082
144.003
110.624
90.4488
1696.96
1695.49
1681.94
1656.51
1619.52
1571.43
1512.82
1444.41
1367.05
1281.72
1189.54
1091.83
990.077
886
781.479
678.505
579.052
484.95
397.809
319.009
249.768
191.255
144.622
110.874
90.5023
1673.59
1671.87
1658.26
1632.96
1596.29
1548.7
1490.78
1423.23
1346.89
1262.73
1171.87
1075.62
975.46
873.066
770.29
669.072
571.33
478.839
393.161
315.646
247.493
189.859
143.886
110.576
90.4376
1673.59
1671.88
1658.27
1632.96
1596.29
1548.7
1490.78
1423.23
1346.89
1262.73
1171.88
1075.63
975.461
873.067
770.291
669.073
571.331
478.839
393.162
315.647
247.494
189.859
143.886
110.576
90.4376
1696.96
1695.49
1681.94
1656.51
1619.52
1571.43
1512.82
1444.41
1367.05
1281.72
1189.54
1091.83
990.077
886
781.479
678.505
579.052
484.95
397.809
319.009
249.768
191.255
144.622
110.874
90.5023
)
;

boundaryField
{
    outletCentralUnloaded
    {
        type            zeroGradient;
    }
    inletCentralUnloaded
    {
        type            zeroGradient;
    }
    outletFuelElement
    {
        type            zeroGradient;
    }
    inletFuelElement
    {
        type            zeroGradient;
    }
    defaultFaces
    {
        type            zeroGradient;
    }
}


// ************************************************************************* //
