/*--------------------------------*- C++ -*----------------------------------*\
| =========                 |                                                 |
| \\      /  F ield         | OpenFOAM: The Open Source CFD Toolbox           |
|  \\    /   O peration     | Version:  2212                                  |
|   \\  /    A nd           | Website:  www.openfoam.com                      |
|    \\/     M anipulation  |                                                 |
\*---------------------------------------------------------------------------*/
FoamFile
{
    version     2.0;
    format      ascii;
    arch        "LSB;label=32;scalar=64";
    class       volScalarField;
    location    "37/fluidRegion";
    object      heatFlux.structure;
}
// * * * * * * * * * * * * * * * * * * * * * * * * * * * * * * * * * * * * * //

dimensions      [1 0 -3 0 0 0 0];

internalField   nonuniform List<scalar> 
350
(
-258287
-258292
-258298
-258306
-258314
-258322
-258330
-258337
-258342
-258346
-258348
-258348
-258347
-258344
-258341
-258338
-258335
-258333
-258332
-258333
-258337
-258342
-258349
-258358
-258800
-258287
-258292
-258298
-258306
-258314
-258322
-258330
-258337
-258342
-258346
-258348
-258348
-258347
-258344
-258341
-258338
-258335
-258333
-258332
-258333
-258337
-258342
-258349
-258358
-258800
399480
1.29001e+06
2.15964e+06
2.99467e+06
3.78194e+06
4.50905e+06
5.16455e+06
5.73812e+06
6.22071e+06
6.60474e+06
6.88416e+06
7.05459e+06
7.11335e+06
7.05952e+06
6.89397e+06
6.61931e+06
6.23986e+06
5.76159e+06
5.192e+06
4.54018e+06
3.81642e+06
3.03242e+06
2.20106e+06
1.33641e+06
452427
403506
1.30424e+06
2.18385e+06
3.02845e+06
3.82476e+06
4.56022e+06
5.22325e+06
5.80341e+06
6.29155e+06
6.68e+06
6.96265e+06
7.13506e+06
7.19451e+06
7.1401e+06
6.97268e+06
6.6949e+06
6.31113e+06
5.82741e+06
5.25133e+06
4.59207e+06
3.86003e+06
3.06706e+06
2.22617e+06
1.35162e+06
457525
398839
1.28774e+06
2.15578e+06
2.98928e+06
3.77512e+06
4.5009e+06
5.1552e+06
5.72771e+06
6.20942e+06
6.59275e+06
6.87166e+06
7.04177e+06
7.10042e+06
7.04669e+06
6.88144e+06
6.60727e+06
6.2285e+06
5.7511e+06
5.18255e+06
4.53192e+06
3.80947e+06
3.0269e+06
2.19705e+06
1.33398e+06
451615
402574
1.30096e+06
2.17827e+06
3.02067e+06
3.8149e+06
4.54844e+06
5.20974e+06
5.78838e+06
6.27524e+06
6.66268e+06
6.94458e+06
7.11653e+06
7.17583e+06
7.12155e+06
6.95456e+06
6.6775e+06
6.29473e+06
5.81226e+06
5.23768e+06
4.58013e+06
3.84999e+06
3.05909e+06
2.22039e+06
1.34812e+06
456351
402574
1.30096e+06
2.17827e+06
3.02067e+06
3.8149e+06
4.54844e+06
5.20974e+06
5.78838e+06
6.27524e+06
6.66268e+06
6.94458e+06
7.11653e+06
7.17583e+06
7.12155e+06
6.95456e+06
6.6775e+06
6.29473e+06
5.81226e+06
5.23768e+06
4.58013e+06
3.84999e+06
3.05909e+06
2.22039e+06
1.34812e+06
456351
398839
1.28774e+06
2.15578e+06
2.98928e+06
3.77512e+06
4.5009e+06
5.1552e+06
5.72771e+06
6.20942e+06
6.59275e+06
6.87166e+06
7.04177e+06
7.10042e+06
7.04669e+06
6.88144e+06
6.60727e+06
6.2285e+06
5.7511e+06
5.18255e+06
4.53192e+06
3.80947e+06
3.0269e+06
2.19705e+06
1.33398e+06
451615
403506
1.30424e+06
2.18385e+06
3.02845e+06
3.82476e+06
4.56022e+06
5.22325e+06
5.80341e+06
6.29155e+06
6.68e+06
6.96265e+06
7.13505e+06
7.19451e+06
7.1401e+06
6.97268e+06
6.6949e+06
6.31113e+06
5.82741e+06
5.25133e+06
4.59207e+06
3.86003e+06
3.06706e+06
2.22617e+06
1.35162e+06
457525
399480
1.29001e+06
2.15964e+06
2.99467e+06
3.78194e+06
4.50905e+06
5.16455e+06
5.73812e+06
6.22071e+06
6.60474e+06
6.88416e+06
7.05459e+06
7.11335e+06
7.05952e+06
6.89397e+06
6.61931e+06
6.23986e+06
5.76158e+06
5.192e+06
4.54018e+06
3.81642e+06
3.03242e+06
2.20106e+06
1.33641e+06
452427
402574
1.30096e+06
2.17827e+06
3.02067e+06
3.8149e+06
4.54844e+06
5.20974e+06
5.78837e+06
6.27524e+06
6.66268e+06
6.94458e+06
7.11653e+06
7.17583e+06
7.12155e+06
6.95456e+06
6.6775e+06
6.29473e+06
5.81226e+06
5.23768e+06
4.58013e+06
3.84999e+06
3.05909e+06
2.22039e+06
1.34812e+06
456351
398839
1.28774e+06
2.15578e+06
2.98928e+06
3.77512e+06
4.5009e+06
5.1552e+06
5.72771e+06
6.20942e+06
6.59275e+06
6.87166e+06
7.04177e+06
7.10042e+06
7.04669e+06
6.88143e+06
6.60727e+06
6.2285e+06
5.7511e+06
5.18255e+06
4.53192e+06
3.80947e+06
3.0269e+06
2.19705e+06
1.33398e+06
451615
398839
1.28774e+06
2.15578e+06
2.98928e+06
3.77512e+06
4.5009e+06
5.1552e+06
5.72771e+06
6.20942e+06
6.59275e+06
6.87166e+06
7.04177e+06
7.10042e+06
7.04669e+06
6.88144e+06
6.60727e+06
6.2285e+06
5.7511e+06
5.18255e+06
4.53192e+06
3.80947e+06
3.0269e+06
2.19705e+06
1.33398e+06
451615
402574
1.30096e+06
2.17827e+06
3.02067e+06
3.8149e+06
4.54844e+06
5.20974e+06
5.78838e+06
6.27524e+06
6.66268e+06
6.94458e+06
7.11653e+06
7.17583e+06
7.12155e+06
6.95456e+06
6.6775e+06
6.29473e+06
5.81226e+06
5.23768e+06
4.58013e+06
3.84999e+06
3.05909e+06
2.22039e+06
1.34812e+06
456351
)
;

boundaryField
{
    outletCentralUnloaded
    {
        type            zeroGradient;
    }
    inletCentralUnloaded
    {
        type            zeroGradient;
    }
    outletFuelElement
    {
        type            zeroGradient;
    }
    inletFuelElement
    {
        type            zeroGradient;
    }
    defaultFaces
    {
        type            zeroGradient;
    }
    baffle_master
    {
        type            zeroGradient;
    }
    baffle_slave
    {
        type            zeroGradient;
    }
}


// ************************************************************************* //
