/*--------------------------------*- C++ -*----------------------------------*\
| =========                 |                                                 |
| \\      /  F ield         | OpenFOAM: The Open Source CFD Toolbox           |
|  \\    /   O peration     | Version:  2212                                  |
|   \\  /    A nd           | Website:  www.openfoam.com                      |
|    \\/     M anipulation  |                                                 |
\*---------------------------------------------------------------------------*/
FoamFile
{
    version     2.0;
    format      ascii;
    arch        "LSB;label=32;scalar=64";
    class       volScalarField;
    location    "37/fluidRegion";
    object      k;
}
// * * * * * * * * * * * * * * * * * * * * * * * * * * * * * * * * * * * * * //

dimensions      [0 2 -2 0 0 0 0];

internalField   nonuniform List<scalar> 
350
(
0.421063
0.420993
0.420923
0.420854
0.420785
0.420717
0.42065
0.420583
0.420516
0.420451
0.420386
0.420324
0.420265
0.420211
0.420166
0.420135
0.420123
0.420143
0.420209
0.420346
0.420593
0.421007
0.421677
0.422737
0.424394
0.421063
0.420993
0.420923
0.420854
0.420785
0.420717
0.42065
0.420583
0.420516
0.420451
0.420386
0.420324
0.420265
0.420211
0.420166
0.420135
0.420123
0.420143
0.420209
0.420346
0.420593
0.421007
0.421677
0.422737
0.424394
400.254
378.309
353.268
325.61
296.112
265.547
234.658
204.144
174.641
146.712
120.833
97.3867
76.6472
58.7728
43.7974
31.6318
22.0749
14.8377
9.57617
5.92562
3.53037
2.06467
1.24781
0.853241
0.713786
405.857
383.657
358.323
330.321
300.441
269.467
238.153
207.208
177.279
148.936
122.667
98.8591
77.795
59.6377
44.4247
32.0675
22.3629
15.0174
9.68096
5.98168
3.5572
2.07572
1.25154
0.85426
0.714172
399.327
377.421
352.433
324.834
295.402
264.906
234.089
203.647
174.215
146.354
120.539
97.1512
76.4642
58.6351
43.6977
31.5625
22.029
14.8089
9.55919
5.91633
3.52571
2.06255
1.24695
0.852908
0.71366
404.627
382.481
357.208
329.279
299.481
268.596
237.375
206.524
176.688
148.437
122.254
98.5273
77.5357
59.4419
44.2824
31.9685
22.2973
14.9765
9.65707
5.96891
3.5511
2.07322
1.25071
0.854046
0.714095
404.627
382.481
357.208
329.279
299.481
268.596
237.375
206.524
176.688
148.437
122.254
98.5273
77.5357
59.4419
44.2824
31.9685
22.2973
14.9765
9.65707
5.96891
3.5511
2.07322
1.25071
0.854046
0.714096
399.327
377.422
352.433
324.835
295.402
264.907
234.09
203.647
174.215
146.354
120.539
97.1513
76.4643
58.6351
43.6977
31.5626
22.029
14.8089
9.55918
5.91632
3.5257
2.06254
1.24694
0.852901
0.713655
405.857
383.657
358.323
330.321
300.441
269.467
238.153
207.208
177.279
148.936
122.667
98.8591
77.795
59.6377
44.4247
32.0675
22.3629
15.0175
9.68096
5.98168
3.5572
2.07572
1.25154
0.854261
0.714173
400.254
378.309
353.268
325.61
296.112
265.547
234.658
204.144
174.641
146.712
120.833
97.3867
76.6473
58.7728
43.7974
31.6318
22.0749
14.8377
9.57616
5.92561
3.53036
2.06465
1.2478
0.853227
0.713772
404.627
382.481
357.208
329.279
299.481
268.596
237.375
206.524
176.688
148.437
122.254
98.5273
77.5357
59.4418
44.2824
31.9685
22.2973
14.9765
9.65707
5.96891
3.5511
2.07322
1.2507
0.854041
0.71409
399.327
377.421
352.433
324.835
295.402
264.906
234.089
203.647
174.215
146.353
120.539
97.1512
76.4642
58.6351
43.6977
31.5626
22.029
14.8089
9.5592
5.91635
3.52574
2.06258
1.24697
0.852935
0.713687
399.327
377.422
352.433
324.835
295.403
264.907
234.09
203.647
174.215
146.354
120.539
97.1513
76.4643
58.6351
43.6977
31.5625
22.029
14.8088
9.55917
5.91631
3.5257
2.06254
1.24694
0.852905
0.713661
404.627
382.481
357.208
329.279
299.482
268.596
237.375
206.524
176.688
148.437
122.254
98.5273
77.5357
59.4418
44.2824
31.9685
22.2973
14.9765
9.65706
5.96889
3.55108
2.0732
1.25069
0.854025
0.714074
)
;

boundaryField
{
    outletCentralUnloaded
    {
        type            zeroGradient;
    }
    inletCentralUnloaded
    {
        type            zeroGradient;
    }
    outletFuelElement
    {
        type            zeroGradient;
    }
    inletFuelElement
    {
        type            zeroGradient;
    }
    defaultFaces
    {
        type            zeroGradient;
    }
    baffle_master
    {
        type            zeroGradient;
    }
    baffle_slave
    {
        type            zeroGradient;
    }
}


// ************************************************************************* //
