/*--------------------------------*- C++ -*----------------------------------*\
| =========                 |                                                 |
| \\      /  F ield         | OpenFOAM: The Open Source CFD Toolbox           |
|  \\    /   O peration     | Version:  2212                                  |
|   \\  /    A nd           | Website:  www.openfoam.com                      |
|    \\/     M anipulation  |                                                 |
\*---------------------------------------------------------------------------*/
FoamFile
{
    version     2.0;
    format      ascii;
    arch        "LSB;label=32;scalar=64";
    class       volScalarField;
    location    "37/fluidRegion";
    object      nut;
}
// * * * * * * * * * * * * * * * * * * * * * * * * * * * * * * * * * * * * * //

dimensions      [0 2 -1 0 0 0 0];

internalField   nonuniform List<scalar> 
350
(
0.000537565
0.000537524
0.000537485
0.000537448
0.000537412
0.000537378
0.000537342
0.000537306
0.000537267
0.000537225
0.000537181
0.000537135
0.000537088
0.000537042
0.000536999
0.000536963
0.000536938
0.000536928
0.000536943
0.000536994
0.0005371
0.000537287
0.000537598
0.000538095
0.0005395
0.000537565
0.000537524
0.000537485
0.000537448
0.000537412
0.000537378
0.000537342
0.000537306
0.000537267
0.000537225
0.000537181
0.000537135
0.000537088
0.000537042
0.000536999
0.000536963
0.000536938
0.000536928
0.000536943
0.000536994
0.0005371
0.000537287
0.000537598
0.000538095
0.0005395
0.0103306
0.0101171
0.00985198
0.00953072
0.00915826
0.00873978
0.00828062
0.00778627
0.00726239
0.00671484
0.0061498
0.00557386
0.00499417
0.00441846
0.00385502
0.00331228
0.0027984
0.0023207
0.00188542
0.00149776
0.00116234
0.00088361
0.00066581
0.000511479
0.000416392
0.0103971
0.0101825
0.00991647
0.00959379
0.0092195
0.00879879
0.00833703
0.00783975
0.00731262
0.00676153
0.00619268
0.00561268
0.00502872
0.00444863
0.00388075
0.00333365
0.0028156
0.00233406
0.00189533
0.00150469
0.0011668
0.000886142
0.000666985
0.000511857
0.000416458
0.0103199
0.0101064
0.00984144
0.00952044
0.00914832
0.00873023
0.00827152
0.00777767
0.00725434
0.00670738
0.00614297
0.0055677
0.00498869
0.00441369
0.00385095
0.0033089
0.00279567
0.00231857
0.00188382
0.00149661
0.00116157
0.000883125
0.000665531
0.000511333
0.000416345
0.0103824
0.010168
0.00990215
0.00957976
0.00920584
0.00878561
0.0083244
0.00782775
0.00730133
0.00675101
0.006183
0.0056039
0.00502089
0.00444178
0.0038749
0.00332878
0.00281168
0.00233101
0.00189307
0.00150312
0.00116579
0.000885571
0.000666726
0.000511781
0.000416449
0.0103824
0.010168
0.00990215
0.00957976
0.00920584
0.00878561
0.0083244
0.00782775
0.00730133
0.00675101
0.006183
0.0056039
0.00502089
0.00444178
0.0038749
0.00332878
0.00281168
0.00233101
0.00189307
0.00150312
0.00116579
0.000885571
0.000666726
0.000511781
0.000416449
0.0103199
0.0101064
0.00984145
0.00952045
0.00914832
0.00873024
0.00827152
0.00777767
0.00725434
0.00670739
0.00614298
0.0055677
0.00498869
0.00441369
0.00385095
0.0033089
0.00279567
0.00231857
0.00188382
0.00149661
0.00116156
0.000883123
0.000665529
0.000511331
0.000416343
0.0103971
0.0101825
0.00991647
0.00959379
0.0092195
0.00879879
0.00833703
0.00783975
0.00731262
0.00676153
0.00619268
0.00561268
0.00502872
0.00444863
0.00388075
0.00333365
0.0028156
0.00233406
0.00189533
0.00150469
0.0011668
0.000886142
0.000666985
0.000511857
0.000416459
0.0103306
0.0101171
0.00985198
0.00953072
0.00915826
0.00873978
0.00828062
0.00778627
0.00726239
0.00671484
0.0061498
0.00557386
0.00499417
0.00441846
0.00385502
0.00331228
0.0027984
0.0023207
0.00188542
0.00149776
0.00116234
0.000883608
0.000665807
0.000511476
0.000416389
0.0103824
0.010168
0.00990215
0.00957976
0.00920584
0.00878561
0.0083244
0.00782775
0.00730133
0.00675101
0.006183
0.0056039
0.00502089
0.00444178
0.0038749
0.00332878
0.00281168
0.00233101
0.00189307
0.00150312
0.00116579
0.000885571
0.000666725
0.00051178
0.000416448
0.0103199
0.0101064
0.00984144
0.00952044
0.00914832
0.00873023
0.00827152
0.00777767
0.00725434
0.00670738
0.00614297
0.0055677
0.00498869
0.00441369
0.00385095
0.0033089
0.00279567
0.00231857
0.00188382
0.00149662
0.00116157
0.000883128
0.000665536
0.000511339
0.000416351
0.0103199
0.0101064
0.00984145
0.00952045
0.00914832
0.00873024
0.00827152
0.00777767
0.00725434
0.00670739
0.00614298
0.0055677
0.00498869
0.00441369
0.00385095
0.0033089
0.00279567
0.00231857
0.00188382
0.00149661
0.00116156
0.000883123
0.000665529
0.000511332
0.000416344
0.0103824
0.010168
0.00990215
0.00957976
0.00920584
0.00878561
0.0083244
0.00782775
0.00730133
0.00675101
0.006183
0.0056039
0.00502089
0.00444178
0.0038749
0.00332878
0.00281168
0.00233101
0.00189307
0.00150311
0.00116579
0.000885568
0.000666721
0.000511776
0.000416444
)
;

boundaryField
{
    outletCentralUnloaded
    {
        type            zeroGradient;
    }
    inletCentralUnloaded
    {
        type            zeroGradient;
    }
    outletFuelElement
    {
        type            zeroGradient;
    }
    inletFuelElement
    {
        type            zeroGradient;
    }
    defaultFaces
    {
        type            zeroGradient;
    }
    baffle_master
    {
        type            calculated;
        value           nonuniform List<scalar> 
150
(
0.000537565
0.000537565
0.000537565
0.000537524
0.000537524
0.000537524
0.000537485
0.000537485
0.000537485
0.000537448
0.000537448
0.000537448
0.000537412
0.000537412
0.000537412
0.000537378
0.000537378
0.000537378
0.000537342
0.000537342
0.000537342
0.000537306
0.000537306
0.000537306
0.000537267
0.000537267
0.000537267
0.000537225
0.000537225
0.000537225
0.000537181
0.000537181
0.000537181
0.000537135
0.000537135
0.000537135
0.000537088
0.000537088
0.000537088
0.000537042
0.000537042
0.000537042
0.000536999
0.000536999
0.000536999
0.000536963
0.000536963
0.000536963
0.000536938
0.000536938
0.000536938
0.000536928
0.000536928
0.000536928
0.000536943
0.000536943
0.000536943
0.000536994
0.000536994
0.000536994
0.0005371
0.0005371
0.0005371
0.000537287
0.000537287
0.000537287
0.000537598
0.000537598
0.000537598
0.000538095
0.000538095
0.000538095
0.0005395
0.0005395
0.0005395
0.000537565
0.000537565
0.000537565
0.000537524
0.000537524
0.000537524
0.000537485
0.000537485
0.000537485
0.000537448
0.000537448
0.000537448
0.000537412
0.000537412
0.000537412
0.000537378
0.000537378
0.000537378
0.000537342
0.000537342
0.000537342
0.000537306
0.000537306
0.000537306
0.000537267
0.000537267
0.000537267
0.000537225
0.000537225
0.000537225
0.000537181
0.000537181
0.000537181
0.000537135
0.000537135
0.000537135
0.000537088
0.000537088
0.000537088
0.000537042
0.000537042
0.000537042
0.000536999
0.000536999
0.000536999
0.000536963
0.000536963
0.000536963
0.000536938
0.000536938
0.000536938
0.000536928
0.000536928
0.000536928
0.000536943
0.000536943
0.000536943
0.000536994
0.000536994
0.000536994
0.0005371
0.0005371
0.0005371
0.000537287
0.000537287
0.000537287
0.000537598
0.000537598
0.000537598
0.000538095
0.000538095
0.000538095
0.0005395
0.0005395
0.0005395
)
;
    }
    baffle_slave
    {
        type            calculated;
        value           nonuniform List<scalar> 
150
(
0.0103971
0.0103824
0.0103824
0.0101825
0.010168
0.010168
0.00991647
0.00990215
0.00990215
0.00959379
0.00957976
0.00957976
0.0092195
0.00920584
0.00920584
0.00879879
0.00878561
0.00878561
0.00833703
0.0083244
0.0083244
0.00783975
0.00782775
0.00782775
0.00731262
0.00730133
0.00730133
0.00676153
0.00675101
0.00675101
0.00619268
0.006183
0.006183
0.00561268
0.0056039
0.0056039
0.00502872
0.00502089
0.00502089
0.00444863
0.00444178
0.00444178
0.00388075
0.0038749
0.0038749
0.00333365
0.00332878
0.00332878
0.0028156
0.00281168
0.00281168
0.00233406
0.00233101
0.00233101
0.00189533
0.00189307
0.00189307
0.00150469
0.00150312
0.00150311
0.0011668
0.00116579
0.00116579
0.000886142
0.000885571
0.000885568
0.000666985
0.000666726
0.000666721
0.000511857
0.000511781
0.000511776
0.000416458
0.000416449
0.000416444
0.0103824
0.0103971
0.0103824
0.010168
0.0101825
0.010168
0.00990215
0.00991647
0.00990215
0.00957976
0.00959379
0.00957976
0.00920584
0.0092195
0.00920584
0.00878561
0.00879879
0.00878561
0.0083244
0.00833703
0.0083244
0.00782775
0.00783975
0.00782775
0.00730133
0.00731262
0.00730133
0.00675101
0.00676153
0.00675101
0.006183
0.00619268
0.006183
0.0056039
0.00561268
0.0056039
0.00502089
0.00502872
0.00502089
0.00444178
0.00444863
0.00444178
0.0038749
0.00388075
0.0038749
0.00332878
0.00333365
0.00332878
0.00281168
0.0028156
0.00281168
0.00233101
0.00233406
0.00233101
0.00189307
0.00189533
0.00189307
0.00150312
0.00150469
0.00150312
0.00116579
0.0011668
0.00116579
0.000885571
0.000886142
0.000885571
0.000666726
0.000666985
0.000666725
0.000511781
0.000511857
0.00051178
0.000416449
0.000416459
0.000416448
)
;
    }
}


// ************************************************************************* //
