/*--------------------------------*- C++ -*----------------------------------*\
| =========                 |                                                 |
| \\      /  F ield         | OpenFOAM: The Open Source CFD Toolbox           |
|  \\    /   O peration     | Version:  2212                                  |
|   \\  /    A nd           | Website:  www.openfoam.com                      |
|    \\/     M anipulation  |                                                 |
\*---------------------------------------------------------------------------*/
FoamFile
{
    version     2.0;
    format      ascii;
    arch        "LSB;label=32;scalar=64";
    class       volScalarField;
    location    "37/fluidRegion";
    object      Tci.nuclearFuelPin;
}
// * * * * * * * * * * * * * * * * * * * * * * * * * * * * * * * * * * * * * //

dimensions      [0 0 0 1 0 0 0];

internalField   nonuniform List<scalar> 
350
(
0
0
0
0
0
0
0
0
0
0
0
0
0
0
0
0
0
0
0
0
0
0
0
0
0
0
0
0
0
0
0
0
0
0
0
0
0
0
0
0
0
0
0
0
0
0
0
0
0
0
1835.11
1885.99
1923.64
1947.88
1958.65
1956.06
1940.37
1912.02
1871.59
1819.82
1757.61
1685.98
1606.14
1519.4
1427.19
1331.03
1232.34
1132.25
1031.25
928.626
821.593
704.069
565.668
394.872
193.642
1863.21
1914.86
1953.05
1977.59
1988.44
1985.68
1969.61
1940.65
1899.4
1846.62
1783.2
1710.21
1628.85
1540.46
1446.5
1348.5
1247.95
1146.03
1043.28
939.036
830.512
711.541
571.526
398.658
194.922
1830.54
1881.32
1918.91
1943.11
1953.89
1951.34
1935.73
1907.5
1867.21
1815.61
1753.6
1682.2
1602.61
1516.13
1424.21
1328.34
1229.94
1130.14
1029.41
927.04
820.243
702.948
564.802
394.316
193.447
1856.89
1908.35
1946.4
1970.86
1981.67
1978.94
1962.94
1934.11
1893.04
1840.48
1777.33
1704.65
1623.63
1535.61
1442.05
1344.47
1244.34
1142.84
1040.5
936.629
828.449
709.811
570.169
397.78
194.626
1856.89
1908.35
1946.4
1970.86
1981.67
1978.94
1962.94
1934.11
1893.04
1840.48
1777.33
1704.65
1623.63
1535.61
1442.05
1344.47
1244.34
1142.84
1040.5
936.629
828.449
709.812
570.169
397.78
194.626
1830.55
1881.32
1918.91
1943.11
1953.89
1951.34
1935.74
1907.5
1867.21
1815.62
1753.6
1682.2
1602.61
1516.13
1424.21
1328.34
1229.94
1130.14
1029.42
927.041
820.243
702.949
564.802
394.317
193.447
1863.21
1914.86
1953.05
1977.59
1988.44
1985.68
1969.61
1940.65
1899.4
1846.62
1783.2
1710.21
1628.85
1540.46
1446.5
1348.5
1247.95
1146.03
1043.28
939.036
830.512
711.541
571.526
398.658
194.922
1835.11
1885.99
1923.64
1947.88
1958.65
1956.06
1940.37
1912.02
1871.59
1819.82
1757.61
1685.98
1606.14
1519.4
1427.19
1331.03
1232.34
1132.25
1031.25
928.626
821.593
704.069
565.668
394.872
193.642
1856.89
1908.35
1946.4
1970.86
1981.67
1978.94
1962.94
1934.11
1893.04
1840.48
1777.33
1704.65
1623.63
1535.61
1442.05
1344.47
1244.34
1142.84
1040.5
936.629
828.449
709.812
570.169
397.78
194.626
1830.54
1881.32
1918.91
1943.11
1953.89
1951.34
1935.73
1907.5
1867.21
1815.61
1753.6
1682.2
1602.6
1516.13
1424.21
1328.34
1229.94
1130.14
1029.41
927.04
820.242
702.949
564.802
394.316
193.447
1830.55
1881.32
1918.91
1943.11
1953.89
1951.34
1935.74
1907.5
1867.21
1815.62
1753.6
1682.2
1602.61
1516.13
1424.21
1328.34
1229.94
1130.14
1029.42
927.041
820.243
702.949
564.802
394.317
193.447
1856.89
1908.35
1946.4
1970.86
1981.67
1978.94
1962.94
1934.11
1893.04
1840.48
1777.33
1704.65
1623.63
1535.61
1442.05
1344.47
1244.34
1142.84
1040.5
936.629
828.449
709.812
570.169
397.78
194.626
)
;

boundaryField
{
    outletCentralUnloaded
    {
        type            zeroGradient;
    }
    inletCentralUnloaded
    {
        type            zeroGradient;
    }
    outletFuelElement
    {
        type            zeroGradient;
    }
    inletFuelElement
    {
        type            zeroGradient;
    }
    defaultFaces
    {
        type            zeroGradient;
    }
    baffle_master
    {
        type            zeroGradient;
    }
    baffle_slave
    {
        type            zeroGradient;
    }
}


// ************************************************************************* //
