/*--------------------------------*- C++ -*----------------------------------*\
| =========                 |                                                 |
| \\      /  F ield         | OpenFOAM: The Open Source CFD Toolbox           |
|  \\    /   O peration     | Version:  2212                                  |
|   \\  /    A nd           | Website:  www.openfoam.com                      |
|    \\/     M anipulation  |                                                 |
\*---------------------------------------------------------------------------*/
FoamFile
{
    version     2.0;
    format      ascii;
    arch        "LSB;label=32;scalar=64";
    class       volScalarField;
    location    "37/fluidRegion";
    object      Tco.nuclearFuelPin;
}
// * * * * * * * * * * * * * * * * * * * * * * * * * * * * * * * * * * * * * //

dimensions      [0 0 0 1 0 0 0];

internalField   nonuniform List<scalar> 
350
(
0
0
0
0
0
0
0
0
0
0
0
0
0
0
0
0
0
0
0
0
0
0
0
0
0
0
0
0
0
0
0
0
0
0
0
0
0
0
0
0
0
0
0
0
0
0
0
0
0
0
1824.6
1852.11
1866.95
1869.28
1859.39
1837.72
1804.83
1761.43
1708.34
1646.5
1576.95
1500.85
1419.47
1334.14
1246.28
1157.33
1068.6
981.06
895.007
809.484
721.444
624.492
507.908
359.802
181.771
1852.59
1880.61
1895.72
1898.1
1888.05
1866
1832.53
1788.35
1734.29
1671.31
1600.48
1522.97
1440.05
1353.09
1263.52
1172.81
1082.33
993.106
905.478
818.533
729.218
631.055
513.107
363.189
182.917
1820.05
1847.5
1862.31
1864.65
1854.81
1833.22
1800.44
1757.18
1704.25
1642.6
1573.27
1497.41
1416.27
1331.21
1243.63
1154.95
1066.49
979.223
893.416
808.115
720.275
623.517
507.146
359.31
181.597
1846.3
1874.18
1889.22
1891.57
1881.54
1859.57
1826.22
1782.2
1728.36
1665.63
1595.09
1517.89
1435.32
1348.72
1259.54
1169.24
1079.16
990.321
903.056
816.439
727.419
629.535
511.901
362.403
182.652
1846.3
1874.18
1889.22
1891.57
1881.54
1859.57
1826.22
1782.2
1728.36
1665.63
1595.09
1517.89
1435.32
1348.72
1259.54
1169.24
1079.16
990.321
903.056
816.439
727.419
629.535
511.901
362.403
182.652
1820.05
1847.51
1862.31
1864.65
1854.81
1833.22
1800.44
1757.18
1704.26
1642.6
1573.27
1497.41
1416.28
1331.21
1243.63
1154.95
1066.49
979.224
893.417
808.116
720.276
623.518
507.147
359.311
181.597
1852.59
1880.61
1895.72
1898.1
1888.05
1866
1832.53
1788.35
1734.29
1671.31
1600.48
1522.97
1440.05
1353.09
1263.52
1172.81
1082.33
993.106
905.478
818.533
729.218
631.055
513.107
363.189
182.917
1824.6
1852.11
1866.95
1869.28
1859.39
1837.72
1804.83
1761.43
1708.34
1646.5
1576.95
1500.85
1419.47
1334.14
1246.28
1157.33
1068.6
981.06
895.007
809.484
721.444
624.492
507.908
359.802
181.771
1846.3
1874.18
1889.22
1891.57
1881.54
1859.57
1826.22
1782.2
1728.36
1665.63
1595.09
1517.89
1435.32
1348.72
1259.54
1169.24
1079.16
990.321
903.056
816.439
727.419
629.535
511.901
362.403
182.652
1820.05
1847.5
1862.31
1864.65
1854.81
1833.21
1800.44
1757.18
1704.25
1642.6
1573.27
1497.41
1416.27
1331.21
1243.63
1154.95
1066.49
979.223
893.416
808.115
720.275
623.517
507.146
359.31
181.597
1820.05
1847.51
1862.31
1864.65
1854.81
1833.22
1800.44
1757.18
1704.26
1642.6
1573.27
1497.41
1416.28
1331.21
1243.63
1154.95
1066.49
979.224
893.417
808.116
720.276
623.518
507.147
359.311
181.597
1846.3
1874.18
1889.22
1891.57
1881.54
1859.57
1826.22
1782.2
1728.36
1665.63
1595.09
1517.89
1435.32
1348.72
1259.54
1169.24
1079.16
990.321
903.056
816.439
727.419
629.535
511.901
362.403
182.652
)
;

boundaryField
{
    outletCentralUnloaded
    {
        type            zeroGradient;
    }
    inletCentralUnloaded
    {
        type            zeroGradient;
    }
    outletFuelElement
    {
        type            zeroGradient;
    }
    inletFuelElement
    {
        type            zeroGradient;
    }
    defaultFaces
    {
        type            zeroGradient;
    }
    baffle_master
    {
        type            zeroGradient;
    }
    baffle_slave
    {
        type            zeroGradient;
    }
}


// ************************************************************************* //
