/*--------------------------------*- C++ -*----------------------------------*\
| =========                 |                                                 |
| \\      /  F ield         | OpenFOAM: The Open Source CFD Toolbox           |
|  \\    /   O peration     | Version:  2212                                  |
|   \\  /    A nd           | Website:  www.openfoam.com                      |
|    \\/     M anipulation  |                                                 |
\*---------------------------------------------------------------------------*/
FoamFile
{
    version     2.0;
    format      ascii;
    arch        "LSB;label=32;scalar=64";
    class       volScalarField;
    location    "37/fluidRegion";
    object      Tfi.nuclearFuelPin;
}
// * * * * * * * * * * * * * * * * * * * * * * * * * * * * * * * * * * * * * //

dimensions      [0 0 0 1 0 0 0];

internalField   nonuniform List<scalar> 
350
(
0
0
0
0
0
0
0
0
0
0
0
0
0
0
0
0
0
0
0
0
0
0
0
0
0
0
0
0
0
0
0
0
0
0
0
0
0
0
0
0
0
0
0
0
0
0
0
0
0
0
2337.94
3521.59
4665.48
5752
6764.33
7686.83
8505.16
9206.63
9780.34
10217.3
10510.9
10656.3
10651.6
10496.7
10194.2
9748.98
9167.9
8459.71
7634.43
6702.89
5675.43
4560.9
3365.31
2095.13
770.056
2371.05
3568.46
4725.58
5824.58
6848.48
7781.44
8608.96
9318.21
9898.17
10339.8
10636.2
10782.9
10777.4
10620.2
10313.6
9862.54
9274.12
8557.18
7721.9
6779.28
5739.81
4612.41
3403.1
2118.26
777.816
2332.57
3514.05
4655.86
5740.4
6750.91
7671.75
8488.64
9188.89
9761.61
10197.9
10491
10636.3
10631.6
10477.1
10175.3
9730.97
9151.07
8444.26
7620.57
6690.8
5665.25
4552.76
3359.36
2091.49
768.828
2363.57
3557.8
4711.86
5807.97
6829.2
7759.73
8585.13
9292.58
9871.08
10311.6
10607.4
10753.7
10748.5
10591.7
10286.1
9836.39
9249.66
8534.73
7701.75
6761.69
5724.98
4600.54
3394.39
2112.93
776.029
2363.57
3557.8
4711.86
5807.97
6829.2
7759.73
8585.13
9292.58
9871.08
10311.6
10607.4
10753.7
10748.5
10591.7
10286.1
9836.39
9249.66
8534.73
7701.75
6761.69
5724.98
4600.54
3394.39
2112.93
776.029
2332.57
3514.06
4655.86
5740.4
6750.91
7671.76
8488.64
9188.89
9761.62
10197.9
10491
10636.3
10631.6
10477.1
10175.3
9730.98
9151.07
8444.26
7620.57
6690.8
5665.25
4552.76
3359.36
2091.49
768.829
2371.05
3568.46
4725.58
5824.58
6848.48
7781.44
8608.96
9318.21
9898.17
10339.8
10636.2
10782.9
10777.4
10620.2
10313.6
9862.54
9274.12
8557.18
7721.9
6779.28
5739.81
4612.41
3403.1
2118.26
777.816
2337.94
3521.59
4665.49
5752
6764.33
7686.83
8505.16
9206.63
9780.34
10217.3
10510.9
10656.3
10651.6
10496.7
10194.2
9748.98
9167.9
8459.71
7634.43
6702.89
5675.43
4560.9
3365.31
2095.13
770.056
2363.57
3557.8
4711.86
5807.97
6829.2
7759.73
8585.13
9292.58
9871.08
10311.6
10607.4
10753.7
10748.5
10591.7
10286.1
9836.39
9249.66
8534.73
7701.75
6761.69
5724.98
4600.54
3394.39
2112.93
776.029
2332.57
3514.05
4655.86
5740.4
6750.91
7671.75
8488.64
9188.89
9761.61
10197.9
10491
10636.3
10631.6
10477.1
10175.3
9730.97
9151.07
8444.26
7620.57
6690.8
5665.25
4552.76
3359.36
2091.49
768.829
2332.57
3514.06
4655.86
5740.4
6750.91
7671.76
8488.64
9188.89
9761.62
10197.9
10491
10636.3
10631.6
10477.1
10175.3
9730.97
9151.07
8444.26
7620.57
6690.8
5665.25
4552.76
3359.36
2091.49
768.829
2363.57
3557.8
4711.86
5807.97
6829.2
7759.73
8585.13
9292.58
9871.08
10311.6
10607.4
10753.7
10748.5
10591.7
10286.1
9836.39
9249.66
8534.73
7701.75
6761.69
5724.98
4600.54
3394.39
2112.93
776.029
)
;

boundaryField
{
    outletCentralUnloaded
    {
        type            zeroGradient;
    }
    inletCentralUnloaded
    {
        type            zeroGradient;
    }
    outletFuelElement
    {
        type            zeroGradient;
    }
    inletFuelElement
    {
        type            zeroGradient;
    }
    defaultFaces
    {
        type            zeroGradient;
    }
    baffle_master
    {
        type            zeroGradient;
    }
    baffle_slave
    {
        type            zeroGradient;
    }
}


// ************************************************************************* //
