/*--------------------------------*- C++ -*----------------------------------*\
| =========                 |                                                 |
| \\      /  F ield         | OpenFOAM: The Open Source CFD Toolbox           |
|  \\    /   O peration     | Version:  2212                                  |
|   \\  /    A nd           | Website:  www.openfoam.com                      |
|    \\/     M anipulation  |                                                 |
\*---------------------------------------------------------------------------*/
FoamFile
{
    version     2.0;
    format      ascii;
    arch        "LSB;label=32;scalar=64";
    class       volScalarField;
    location    "37/fluidRegion";
    object      Tfo.nuclearFuelPin;
}
// * * * * * * * * * * * * * * * * * * * * * * * * * * * * * * * * * * * * * //

dimensions      [0 0 0 1 0 0 0];

internalField   nonuniform List<scalar> 
350
(
0
0
0
0
0
0
0
0
0
0
0
0
0
0
0
0
0
0
0
0
0
0
0
0
0
0
0
0
0
0
0
0
0
0
0
0
0
0
0
0
0
0
0
0
0
0
0
0
0
0
1987.63
2376.24
2743.7
3084.61
3393.95
3667.1
3900
4089.15
4231.72
4325.56
4369.28
4362.25
4304.65
4197.45
4042.41
3842.03
3599.37
3317.85
3000.78
2650.89
2269.32
1854.41
1400.65
901.83
365.207
2017.28
2410.53
2782.31
3127.16
3440
3716.15
3951.52
4142.56
4286.41
4380.92
4424.66
4417.02
4358.16
4249.08
4091.57
3888.18
3642.02
3356.59
3035.31
2680.99
2294.78
1875.02
1416.03
911.388
368.421
1982.82
2370.71
2737.49
3077.8
3386.6
3659.29
3891.81
4080.67
4223.05
4316.8
4360.53
4353.61
4296.21
4189.31
4034.67
3834.77
3592.67
3311.76
2995.35
2646.17
2265.33
1851.19
1398.26
900.354
364.703
2010.6
2402.77
2773.54
3117.47
3429.49
3704.94
3939.72
4130.31
4273.86
4368.2
4411.93
4404.42
4345.85
4237.19
4080.25
3877.54
3632.19
3347.66
3027.35
2674.05
2288.91
1870.27
1412.48
909.181
367.68
2010.6
2402.77
2773.54
3117.47
3429.48
3704.94
3939.72
4130.31
4273.86
4368.2
4411.93
4404.42
4345.85
4237.19
4080.25
3877.54
3632.19
3347.66
3027.35
2674.05
2288.91
1870.27
1412.48
909.181
367.68
1982.82
2370.71
2737.5
3077.8
3386.6
3659.29
3891.81
4080.68
4223.05
4316.8
4360.53
4353.61
4296.21
4189.31
4034.67
3834.77
3592.67
3311.76
2995.35
2646.17
2265.33
1851.2
1398.26
900.355
364.704
2017.28
2410.53
2782.31
3127.16
3440
3716.15
3951.52
4142.56
4286.41
4380.92
4424.66
4417.02
4358.16
4249.08
4091.57
3888.18
3642.02
3356.59
3035.31
2680.99
2294.78
1875.02
1416.03
911.388
368.421
1987.63
2376.24
2743.7
3084.61
3393.95
3667.1
3900
4089.15
4231.72
4325.56
4369.28
4362.25
4304.65
4197.45
4042.41
3842.03
3599.37
3317.85
3000.78
2650.89
2269.32
1854.41
1400.65
901.83
365.207
2010.6
2402.77
2773.54
3117.47
3429.48
3704.94
3939.72
4130.31
4273.86
4368.2
4411.93
4404.42
4345.85
4237.19
4080.25
3877.54
3632.19
3347.66
3027.35
2674.05
2288.91
1870.27
1412.48
909.181
367.68
1982.82
2370.71
2737.49
3077.8
3386.6
3659.29
3891.81
4080.67
4223.05
4316.8
4360.53
4353.61
4296.21
4189.31
4034.67
3834.77
3592.67
3311.75
2995.35
2646.17
2265.33
1851.19
1398.26
900.354
364.703
1982.82
2370.71
2737.5
3077.8
3386.6
3659.29
3891.81
4080.68
4223.05
4316.8
4360.53
4353.61
4296.21
4189.31
4034.67
3834.77
3592.67
3311.76
2995.35
2646.17
2265.33
1851.19
1398.26
900.355
364.704
2010.6
2402.77
2773.54
3117.47
3429.48
3704.94
3939.72
4130.31
4273.86
4368.2
4411.93
4404.42
4345.85
4237.19
4080.25
3877.54
3632.19
3347.66
3027.35
2674.05
2288.91
1870.27
1412.48
909.181
367.68
)
;

boundaryField
{
    outletCentralUnloaded
    {
        type            zeroGradient;
    }
    inletCentralUnloaded
    {
        type            zeroGradient;
    }
    outletFuelElement
    {
        type            zeroGradient;
    }
    inletFuelElement
    {
        type            zeroGradient;
    }
    defaultFaces
    {
        type            zeroGradient;
    }
    baffle_master
    {
        type            zeroGradient;
    }
    baffle_slave
    {
        type            zeroGradient;
    }
}


// ************************************************************************* //
