/*--------------------------------*- C++ -*----------------------------------*\
| =========                 |                                                 |
| \\      /  F ield         | OpenFOAM: The Open Source CFD Toolbox           |
|  \\    /   O peration     | Version:  2212                                  |
|   \\  /    A nd           | Website:  www.openfoam.com                      |
|    \\/     M anipulation  |                                                 |
\*---------------------------------------------------------------------------*/
FoamFile
{
    version     2.0;
    format      ascii;
    arch        "LSB;label=32;scalar=64";
    class       scalarFieldField;
    location    "37/fluidRegion";
    object      Trad.nuclearFuelPin;
}
// * * * * * * * * * * * * * * * * * * * * * * * * * * * * * * * * * * * * * //


350
(
0()
0()
0()
0()
0()
0()
0()
0()
0()
0()
0()
0()
0()
0()
0()
0()
0()
0()
0()
0()
0()
0()
0()
0()
0()
0()
0()
0()
0()
0()
0()
0()
0()
0()
0()
0()
0()
0()
0()
0()
0()
0()
0()
0()
0()
0()
0()
0()
0()
0()

20
(
2337.94
2336.42
2331.88
2324.3
2313.67
2299.98
2283.2
2263.3
2240.26
2214.04
2184.61
2151.91
2115.91
2076.57
2033.82
1987.63
1835.11
1831.49
1827.99
1824.6
)


20
(
3521.59
3516.55
3501.42
3476.21
3440.88
3395.42
3339.82
3274.03
3198.03
3111.77
3015.21
2908.31
2791.02
2663.28
2525.04
2376.24
1885.99
1874.32
1863.04
1852.11
)


20
(
4665.48
4657
4631.54
4589.09
4529.64
4453.16
4359.64
4249.03
4121.3
3976.41
3814.3
3634.93
3438.25
3224.18
2992.69
2743.7
1923.64
1904.12
1885.24
1866.95
)


20
(
5752
5740.2
5704.81
5645.82
5563.2
5456.94
5327
5173.35
4995.95
4794.75
4569.69
4320.73
4047.81
3750.86
3429.81
3084.61
1947.88
1920.81
1894.63
1869.28
)


20
(
6764.33
6749.42
6704.67
6630.07
6525.61
6391.26
6226.98
6032.75
5808.51
5554.22
5269.81
4955.24
4610.43
4235.32
3829.85
3393.95
1958.65
1924.47
1891.41
1859.39
)


20
(
7686.83
7669.03
7615.63
7526.62
7401.98
7241.68
7045.69
6813.97
6546.46
6243.13
5903.9
5528.72
5117.52
4670.23
4186.78
3667.1
1956.06
1915.31
1875.89
1837.72
)


20
(
8505.16
8484.76
8423.57
8321.56
8178.73
7995.03
7770.44
7504.92
7198.4
6850.85
6462.2
6032.37
5561.32
5048.95
4495.2
3900
1940.37
1893.7
1848.56
1804.83
)


20
(
9206.63
9183.96
9115.94
9002.56
8843.8
8639.63
8390.01
8094.9
7754.25
7368
6936.09
6458.45
5935.01
5365.7
4750.44
4089.15
1912.02
1860.17
1810.01
1761.43
)


20
(
9780.34
9755.75
9681.99
9559.03
9386.87
9165.46
8894.78
8574.77
8205.38
7786.56
7318.25
6800.37
6232.85
5615.62
4948.6
4231.72
1871.59
1815.38
1761
1708.34
)


20
(
10217.3
10191.2
10112.9
9982.32
9799.48
9564.35
9276.9
8937.07
8544.81
8100.07
7602.77
7052.87
6450.27
5794.9
5086.69
4325.56
1819.82
1760.14
1702.41
1646.5
)


20
(
10510.9
10483.6
10402
10265.8
10075.2
9830.11
9530.44
9176.18
8767.26
8303.65
7785.26
7212.04
6583.9
5900.78
5162.6
4369.28
1757.61
1695.4
1635.22
1576.95
)


20
(
10656.3
10628.4
10544.7
10405.2
10209.9
9958.63
9651.49
9288.4
8869.32
8394.17
7862.9
7275.45
6631.73
5931.67
5175.21
4362.25
1685.98
1622.24
1560.57
1500.85
)


20
(
10651.6
10623.4
10539
10398.3
10201.3
9947.93
9638.2
9272.05
8849.43
8370.28
7834.55
7242.16
6593.05
5887.14
5124.37
4304.65
1606.14
1541.86
1479.68
1419.47
)


20
(
10496.7
10468.7
10385
10245.3
10049.8
9798.29
9490.87
9127.45
8707.99
8232.43
7700.71
7112.77
6468.55
5767.97
5010.96
4197.45
1519.4
1455.61
1393.9
1334.14
)


20
(
10194.2
10166.9
10085.1
9948.7
9757.72
9512.13
9211.89
8856.96
8447.3
7982.87
7463.59
6889.41
6260.27
5576.1
4836.84
4042.41
1427.19
1364.9
1304.64
1246.28
)


20
(
9748.98
9722.78
9644.21
9513.23
9329.84
9094.01
8805.71
8464.9
8071.54
7625.57
7126.96
6575.64
5971.54
5314.62
4604.8
3842.03
1331.03
1271.22
1213.36
1157.33
)


20
(
9167.9
9143.21
9069.13
8945.65
8772.76
8550.43
8278.64
7957.35
7586.51
7166.09
6696.04
6176.31
5606.83
4987.55
4318.42
3599.37
1232.34
1175.96
1121.42
1068.6
)


20
(
8459.71
8436.91
8368.5
8254.48
8094.83
7889.53
7638.56
7341.87
6999.45
6611.24
6177.2
5697.28
5171.44
4599.63
3981.78
3317.85
1132.25
1080.19
1029.83
981.06
)


20
(
7634.43
7613.88
7552.23
7449.48
7305.61
7120.6
6894.42
6627.06
6318.47
5968.63
5577.49
5145
4671.14
4155.84
3599.07
3000.78
1031.25
984.342
938.958
895.007
)


20
(
6702.89
6684.93
6631.02
6541.16
6415.34
6253.55
6055.77
5821.96
5552.11
5246.18
4904.14
4525.94
4111.56
3660.95
3174.08
2650.89
928.626
887.603
847.917
809.484
)


20
(
5675.43
5660.33
5615.01
5539.48
5433.71
5297.71
5131.45
4934.91
4708.08
4450.91
4163.39
3845.48
3497.15
3118.37
2709.1
2269.32
821.593
787.11
753.75
721.444
)


20
(
4560.9
4548.89
4512.89
4452.86
4368.83
4260.76
4128.65
3972.48
3792.23
3587.88
3359.42
3106.81
2830.03
2529.06
2203.86
1854.41
704.069
676.669
650.162
624.492
)


20
(
3365.31
3356.6
3330.46
3286.88
3225.88
3147.42
3051.51
2938.14
2807.29
2658.96
2493.11
2309.74
2108.82
1890.35
1654.3
1400.65
565.668
545.78
526.54
507.908
)


20
(
2095.13
2089.84
2073.95
2047.48
2010.41
1962.74
1904.47
1835.6
1756.1
1665.99
1565.25
1453.88
1331.86
1199.18
1055.84
901.83
394.872
382.797
371.115
359.802
)


20
(
770.056
768.255
762.852
753.846
741.24
725.032
705.225
681.82
654.817
624.218
590.025
552.239
510.862
465.897
417.344
365.207
193.642
189.555
185.601
181.771
)


20
(
2371.05
2369.52
2364.93
2357.28
2346.55
2332.73
2315.78
2295.7
2272.43
2245.96
2216.23
2183.21
2146.86
2107.12
2063.94
2017.28
1863.21
1859.55
1856.02
1852.59
)


20
(
3568.46
3563.36
3548.07
3522.58
3486.87
3440.92
3384.7
3318.2
3241.36
3154.16
3056.54
2948.47
2829.88
2700.74
2560.97
2410.53
1914.86
1903.06
1891.66
1880.61
)


20
(
4725.58
4717
4691.25
4648.33
4588.22
4510.89
4416.33
4304.49
4175.33
4028.82
3864.9
3683.53
3484.64
3268.18
3034.09
2782.31
1953.05
1933.31
1914.21
1895.72
)


20
(
5824.58
5812.65
5776.86
5717.21
5633.66
5526.21
5394.81
5239.43
5060.04
4856.57
4628.99
4377.22
4101.22
3800.92
3476.26
3127.16
1977.59
1950.22
1923.74
1898.1
)


20
(
6848.48
6833.4
6788.14
6712.71
6607.07
6471.2
6305.07
6108.65
5881.87
5624.71
5337.09
5018.96
4670.25
4290.9
3880.84
3440
1988.44
1953.87
1920.43
1888.05
)


20
(
7781.44
7763.44
7709.43
7619.42
7493.37
7331.25
7133.05
6898.7
6628.17
6321.4
5978.33
5598.89
5183.03
4730.67
4241.73
3716.15
1985.68
1944.47
1904.61
1866
)


20
(
8608.96
8588.33
8526.44
8423.28
8278.83
8093.05
7865.91
7597.38
7287.39
6935.89
6542.82
6108.12
5631.72
5113.53
4553.49
3951.52
1969.61
1922.41
1876.75
1832.53
)


20
(
9318.21
9295.29
9226.49
9111.83
8951.26
8744.77
8492.32
8193.86
7849.34
7458.7
7021.88
6538.81
6009.42
5433.63
4811.37
4142.56
1940.65
1888.21
1837.48
1788.35
)


20
(
9898.17
9873.3
9798.7
9674.35
9500.22
9276.3
9002.54
8678.89
8305.31
7881.73
7408.08
6884.31
6310.34
5686.08
5011.47
4286.41
1899.4
1842.55
1787.55
1734.29
)


20
(
10339.8
10313.4
10234.2
10102.1
9917.17
9679.37
9388.64
9044.94
8648.22
8198.42
7695.47
7139.29
6529.83
5867
5150.72
4380.92
1846.62
1786.26
1727.86
1671.31
)


20
(
10636.2
10608.7
10526.1
10388.4
10195.6
9947.72
9644.64
9286.34
8872.77
8403.87
7879.58
7299.82
6664.53
5973.63
5227.03
4424.66
1783.2
1720.29
1659.43
1600.48
)


20
(
10782.9
10754.6
10670
10528.9
10331.3
10077.2
9766.55
9399.33
8975.47
8494.91
7957.59
7363.43
6712.37
6004.34
5239.24
4417.02
1710.21
1645.74
1583.37
1522.97
)


20
(
10777.4
10749
10663.6
10521.3
10322
10065.8
9752.54
9382.21
8954.78
8470.17
7928.32
7329.18
6672.67
5958.71
5187.23
4358.16
1628.85
1563.84
1500.95
1440.05
)


20
(
10620.2
10591.9
10507.2
10365.9
10168.1
9913.82
9602.89
9235.33
8811.08
8330.1
7792.32
7197.68
6546.1
5837.53
5071.88
4249.08
1540.46
1475.94
1413.53
1353.09
)


20
(
10313.6
10286
10203.2
10065.3
9872.1
9623.71
9320.04
8961.07
8546.74
8077
7551.8
6971.07
6334.75
5642.78
4895.07
4091.57
1446.5
1383.49
1322.54
1263.52
)


20
(
9862.54
9836.05
9756.58
9624.11
9438.63
9200.11
8908.52
8563.82
8165.97
7714.92
7210.61
6652.99
6042.01
5377.58
4659.66
3888.18
1348.5
1288.01
1229.49
1172.81
)


20
(
9274.12
9249.15
9174.23
9049.34
8874.48
8649.61
8374.72
8049.76
7674.69
7249.47
6774.05
6248.38
5672.4
5046.06
4369.28
3642.02
1247.95
1190.92
1135.76
1082.33
)


20
(
8557.18
8534.11
8464.93
8349.61
8188.13
7980.49
7726.65
7426.58
7080.25
6687.6
6248.61
5763.21
5231.37
4653.02
4028.11
3356.59
1146.03
1093.37
1042.44
993.106
)


20
(
7721.9
7701.11
7638.76
7534.84
7389.32
7202.2
6973.44
6703.02
6390.91
6037.07
5641.46
5204.04
4724.76
4203.58
3640.45
3035.31
1043.28
995.834
949.931
905.478
)


20
(
6779.28
6761.11
6706.58
6615.7
6488.45
6324.81
6124.77
5888.29
5615.36
5305.93
4959.98
4577.47
4158.35
3702.59
3210.15
2680.99
939.036
897.545
857.405
818.533
)


20
(
5739.81
5724.53
5678.69
5602.3
5495.33
5357.77
5189.62
4990.83
4761.4
4501.3
4210.49
3888.95
3536.65
3153.54
2739.6
2294.78
830.512
795.635
761.894
729.218
)


20
(
4612.41
4600.27
4563.85
4503.14
4418.15
4308.85
4175.23
4017.27
3834.97
3628.29
3397.22
3141.73
2861.79
2557.38
2228.46
1875.02
711.541
683.828
657.018
631.055
)


20
(
3403.1
3394.29
3367.85
3323.78
3262.07
3182.73
3085.73
2971.06
2838.72
2688.69
2520.95
2335.49
2132.29
1911.32
1672.58
1416.03
571.526
551.411
531.952
513.107
)


20
(
2118.26
2112.9
2096.84
2070.06
2032.57
1984.36
1925.43
1855.77
1775.38
1684.24
1582.36
1469.72
1346.31
1212.12
1067.15
911.388
398.658
386.445
374.631
363.189
)


20
(
777.816
775.995
770.531
761.425
748.677
732.289
712.26
688.592
661.287
630.345
595.768
557.557
515.716
470.245
421.146
368.421
194.922
190.788
186.789
182.917
)


20
(
2332.57
2331.06
2326.52
2318.96
2308.35
2294.67
2277.92
2258.05
2235.05
2208.87
2179.48
2146.84
2110.89
2071.61
2028.94
1982.82
1830.54
1826.93
1823.44
1820.05
)


20
(
3514.05
3509.02
3493.92
3468.75
3433.48
3388.11
3332.6
3266.92
3191.05
3104.94
3008.56
2901.84
2784.75
2657.24
2519.24
2370.71
1881.32
1869.68
1858.41
1847.5
)


20
(
4655.86
4647.39
4621.97
4579.6
4520.25
4443.91
4350.56
4240.15
4112.64
3968.01
3806.19
3627.14
3430.8
3217.12
2986.04
2737.49
1918.91
1899.42
1880.57
1862.31
)


20
(
5740.4
5728.62
5693.3
5634.41
5551.94
5445.87
5316.16
5162.79
4985.7
4784.86
4560.21
4311.7
4039.26
3742.85
3422.38
3077.8
1943.11
1916.1
1889.96
1864.65
)


20
(
6750.91
6736.02
6691.35
6616.89
6512.62
6378.51
6214.53
6020.64
5796.81
5542.97
5259.08
4945.07
4600.88
4226.46
3821.72
3386.6
1953.89
1919.77
1886.77
1854.81
)


20
(
7671.75
7653.99
7600.69
7511.84
7387.42
7227.41
7031.78
6800.47
6533.45
6230.66
5892.05
5517.54
5107.09
4660.61
4178.03
3659.29
1951.34
1910.67
1871.32
1833.22
)


20
(
8488.64
8468.28
8407.2
8305.38
8162.8
7979.44
7755.25
7490.21
7184.25
6837.32
6449.37
6020.33
5550.12
5038.68
4485.94
3891.81
1935.73
1889.15
1844.08
1800.44
)


20
(
9188.89
9166.26
9098.36
8985.19
8826.72
8622.91
8373.75
8079.17
7739.13
7353.58
6922.45
6445.68
5923.19
5354.91
4740.76
4080.67
1907.5
1855.74
1805.67
1757.18
)


20
(
9761.61
9737.07
9663.44
9540.71
9368.86
9147.85
8877.66
8558.23
8189.51
7771.45
7303.99
6787.05
6220.56
5604.45
4938.64
4223.05
1867.21
1811.1
1756.82
1704.25
)


20
(
10197.9
10171.8
10093.6
9963.3
9780.8
9546.09
9259.16
8919.94
8528.39
8084.46
7588.07
7039.16
6437.65
5783.48
5076.55
4316.8
1815.61
1756.04
1698.41
1642.6
)


20
(
10491
10463.8
10382.3
10246.4
10056.1
9811.45
9512.32
9158.7
8750.53
8287.75
7770.31
7198.12
6571.13
5889.25
5152.41
4360.53
1753.6
1691.51
1631.44
1573.27
)


20
(
10636.3
10608.4
10524.9
10385.6
10190.6
9939.82
9633.24
9270.81
8852.49
8378.2
7847.9
7261.51
6618.96
5920.18
5165.09
4353.61
1682.2
1618.57
1557.02
1497.41
)


20
(
10631.6
10603.5
10519.2
10378.8
10182.1
9929.24
9620.07
9254.59
8832.73
8354.45
7819.69
7228.38
6580.45
5875.83
5114.44
4296.21
1602.61
1538.45
1476.38
1416.27
)


20
(
10477.1
10449.2
10365.6
10226.2
10031
9779.97
9473.11
9110.35
8691.65
8216.96
7686.21
7099.34
6456.28
5756.98
5001.34
4189.31
1516.13
1452.46
1390.86
1331.21
)


20
(
10175.3
10148.1
10066.4
9930.23
9739.59
9494.44
9194.75
8840.47
8431.55
7967.96
7449.63
6876.49
6248.5
5565.57
4827.65
4034.67
1424.21
1362.03
1301.88
1243.63
)


20
(
9730.97
9704.83
9626.39
9495.66
9312.6
9077.2
8789.42
8449.23
8056.58
7611.43
7113.72
6563.4
5960.41
5304.68
4596.16
3834.77
1328.34
1268.64
1210.88
1154.95
)


20
(
9151.07
9126.42
9052.47
8929.22
8756.65
8534.72
8263.42
7942.71
7572.55
7152.9
6683.7
6164.91
5596.47
4978.32
4310.41
3592.67
1229.94
1173.66
1119.22
1066.49
)


20
(
8444.26
8421.5
8353.22
8239.41
8080.05
7875.12
7624.61
7328.46
6986.66
6599.15
6165.9
5686.86
5161.98
4591.2
3974.48
3311.76
1130.14
1078.18
1027.91
979.223
)


20
(
7620.57
7600.06
7538.53
7435.96
7292.35
7107.67
6881.91
6615.03
6307.01
5957.8
5567.37
5135.68
4662.67
4148.32
3592.56
2995.35
1029.41
982.588
937.287
893.416
)


20
(
6690.8
6672.86
6619.05
6529.36
6403.77
6242.27
6044.85
5811.47
5542.11
5236.73
4895.31
4517.81
4104.18
3654.39
3168.4
2646.17
927.04
886.092
846.478
808.115
)


20
(
5665.25
5650.17
5604.94
5529.54
5423.97
5288.21
5122.26
4926.08
4699.65
4442.95
4155.95
3838.62
3490.93
3112.84
2704.32
2265.33
820.243
785.822
752.523
720.275
)


20
(
4552.76
4540.78
4504.83
4444.92
4361.04
4253.16
4121.29
3965.41
3785.49
3581.52
3353.47
3101.32
2825.04
2524.61
2200.01
1851.19
702.948
675.599
649.14
623.517
)


20
(
3359.36
3350.66
3324.57
3281.07
3220.17
3141.86
3046.13
2932.96
2802.35
2654.28
2488.74
2305.7
2105.15
1887.07
1651.45
1398.26
564.802
544.95
525.745
507.146
)


20
(
2091.49
2086.21
2070.35
2043.93
2006.92
1959.34
1901.18
1832.43
1753.08
1663.13
1562.58
1451.4
1329.6
1197.17
1054.09
900.354
394.316
382.263
370.603
359.31
)


20
(
768.828
767.031
761.637
752.648
740.063
723.885
704.113
680.749
653.795
623.25
589.118
551.4
510.097
465.213
416.747
364.703
193.447
189.367
185.42
181.597
)


20
(
2363.57
2362.04
2357.47
2349.83
2339.13
2325.33
2308.43
2288.38
2265.17
2238.75
2209.09
2176.15
2139.88
2100.23
2057.15
2010.6
1856.89
1853.24
1849.71
1846.3
)


20
(
3557.8
3552.71
3537.46
3512.03
3476.41
3430.57
3374.5
3308.16
3231.51
3144.53
3047.16
2939.35
2821.07
2692.24
2552.83
2402.77
1908.35
1896.58
1885.2
1874.18
)


20
(
4711.86
4703.3
4677.62
4634.81
4574.85
4497.72
4403.39
4291.84
4163.01
4016.87
3853.37
3672.46
3474.08
3258.17
3024.68
2773.54
1946.4
1926.71
1907.66
1889.22
)


20
(
5807.97
5796.07
5760.38
5700.87
5617.54
5510.36
5379.3
5224.32
5045.39
4842.44
4615.44
4364.32
4089.03
3789.5
3465.67
3117.47
1970.86
1943.56
1917.15
1891.57
)


20
(
6829.2
6814.15
6769.02
6693.77
6588.4
6452.88
6287.18
6091.26
5865.07
5608.57
5321.69
5004.38
4656.57
4278.2
3869.19
3429.49
1981.67
1947.19
1913.84
1881.54
)


20
(
7759.73
7741.78
7687.91
7598.13
7472.4
7310.71
7113.01
6879.27
6609.43
6303.45
5961.27
5582.81
5168.02
4716.83
4229.16
3704.94
1978.94
1937.84
1898.07
1859.57
)


20
(
8585.13
8564.55
8502.82
8399.93
8255.85
8070.55
7844
7576.15
7266.97
6916.38
6524.33
6090.75
5615.57
5098.73
4540.13
3939.72
1962.94
1915.87
1870.32
1826.22
)


20
(
9292.58
9269.71
9201.09
9086.72
8926.57
8720.62
8468.82
8171.13
7827.5
7437.87
7002.18
6520.36
5992.34
5418.04
4797.39
4130.31
1934.11
1881.81
1831.21
1782.2
)


20
(
9871.08
9846.28
9771.87
9647.84
9474.17
9250.82
8977.77
8654.96
8282.34
7859.86
7387.44
6865.03
6292.54
5669.9
4997.03
4273.86
1893.04
1836.34
1781.48
1728.36
)


20
(
10311.6
10285.3
10206.3
10074.5
9890.11
9652.92
9362.95
9020.14
8624.45
8175.81
7674.16
7119.43
6511.55
5850.43
5136.01
4368.2
1840.48
1780.27
1722.03
1665.63
)


20
(
10607.4
10579.9
10497.5
10360.2
10167.9
9920.67
9618.37
9261
8848.5
8380.82
7857.88
7279.63
6645.99
5956.88
5212.22
4411.93
1777.33
1714.58
1653.87
1595.09
)


20
(
10753.7
10725.6
10641.2
10500.4
10303.3
10049.9
9740.08
9373.81
8951.04
8471.73
7935.8
7343.19
6693.82
5987.62
5224.51
4404.42
1704.65
1640.34
1578.14
1517.89
)


20
(
10748.5
10720.1
10634.9
10493
10294.2
10038.7
9726.22
9356.86
8930.53
8447.18
7906.74
7309.15
6654.34
5942.24
5172.76
4345.85
1623.63
1558.79
1496.06
1435.32
)


20
(
10591.7
10563.6
10479
10338.2
10140.9
9887.22
9577.1
9210.49
8787.35
8307.62
7771.23
7178.13
6528.25
5821.51
5057.85
4237.19
1535.61
1471.26
1409.01
1348.72
)


20
(
10286.1
10258.6
10176
10038.4
9845.77
9598.02
9295.14
8937.1
8523.84
8055.33
7531.49
6952.27
6317.6
5627.42
4881.66
4080.25
1442.05
1379.21
1318.42
1259.54
)


20
(
9836.39
9809.97
9730.7
9598.58
9413.58
9175.67
8884.84
8541.04
8144.22
7694.34
7191.35
6635.18
6025.78
5363.08
4647.02
3877.54
1344.47
1284.13
1225.77
1169.24
)


20
(
9249.66
9224.75
9150.02
9025.46
8851.05
8626.77
8352.59
8028.47
7654.38
7230.27
6756.09
6231.78
5657.3
5032.58
4357.56
3632.19
1244.34
1187.47
1132.44
1079.16
)


20
(
8534.73
8511.73
8442.72
8327.7
8166.65
7959.54
7706.36
7407.07
7061.64
6670.01
6232.16
5748.02
5217.56
4640.72
4017.43
3347.66
1142.84
1090.33
1039.52
990.321
)


20
(
7701.75
7681.02
7618.83
7515.18
7370.04
7183.4
6955.24
6685.52
6374.23
6021.31
5626.72
5190.44
4712.41
4192.58
3630.91
3027.35
1040.5
993.177
947.394
903.056
)


20
(
6761.69
6743.56
6689.18
6598.53
6471.61
6308.4
6108.87
5873.01
5600.79
5292.16
4947.11
4565.59
4147.57
3693
3201.84
2674.05
936.629
895.246
855.211
816.439
)


20
(
5724.98
5709.74
5664.03
5587.83
5481.14
5343.94
5176.22
4977.95
4749.12
4489.69
4199.64
3878.94
3527.54
3145.43
2732.57
2288.91
828.449
793.663
760.009
727.419
)


20
(
4600.54
4588.43
4552.11
4491.56
4406.78
4297.77
4164.49
4006.95
3825.12
3618.98
3388.51
3133.68
2854.47
2550.85
2222.79
1870.27
709.811
682.171
655.431
629.535
)


20
(
3394.39
3385.6
3359.23
3315.28
3253.73
3174.59
3077.84
2963.48
2831.48
2681.84
2514.54
2329.56
2126.88
1906.49
1668.36
1412.48
570.169
550.106
530.697
511.901
)


20
(
2112.93
2107.59
2091.56
2064.86
2027.46
1979.38
1920.6
1851.12
1770.94
1680.04
1578.42
1466.06
1342.98
1209.14
1064.54
909.181
397.78
385.599
373.815
362.403
)


20
(
776.029
774.212
768.762
759.679
746.964
730.617
710.639
687.032
659.796
628.933
594.444
556.332
514.597
469.242
420.269
367.68
194.626
190.503
186.514
182.652
)


20
(
2363.57
2362.04
2357.47
2349.83
2339.13
2325.33
2308.43
2288.38
2265.17
2238.75
2209.09
2176.15
2139.88
2100.23
2057.15
2010.6
1856.89
1853.24
1849.71
1846.3
)


20
(
3557.8
3552.71
3537.46
3512.03
3476.41
3430.57
3374.5
3308.16
3231.51
3144.53
3047.16
2939.35
2821.07
2692.24
2552.83
2402.77
1908.35
1896.58
1885.2
1874.18
)


20
(
4711.86
4703.3
4677.62
4634.81
4574.85
4497.72
4403.39
4291.84
4163.01
4016.87
3853.37
3672.46
3474.08
3258.17
3024.68
2773.54
1946.4
1926.71
1907.66
1889.22
)


20
(
5807.97
5796.07
5760.38
5700.87
5617.54
5510.36
5379.3
5224.32
5045.39
4842.44
4615.44
4364.32
4089.03
3789.5
3465.67
3117.47
1970.86
1943.56
1917.15
1891.57
)


20
(
6829.2
6814.15
6769.01
6693.77
6588.4
6452.88
6287.18
6091.26
5865.07
5608.57
5321.69
5004.38
4656.57
4278.2
3869.19
3429.48
1981.67
1947.19
1913.84
1881.54
)


20
(
7759.73
7741.78
7687.91
7598.13
7472.4
7310.71
7113.01
6879.27
6609.43
6303.45
5961.27
5582.81
5168.02
4716.83
4229.16
3704.94
1978.94
1937.84
1898.07
1859.57
)


20
(
8585.13
8564.55
8502.82
8399.93
8255.85
8070.55
7844
7576.15
7266.97
6916.38
6524.33
6090.75
5615.57
5098.73
4540.13
3939.72
1962.94
1915.87
1870.32
1826.22
)


20
(
9292.58
9269.71
9201.09
9086.72
8926.57
8720.62
8468.82
8171.13
7827.5
7437.87
7002.18
6520.36
5992.34
5418.04
4797.39
4130.31
1934.11
1881.81
1831.21
1782.2
)


20
(
9871.08
9846.28
9771.87
9647.84
9474.17
9250.82
8977.77
8654.96
8282.34
7859.86
7387.44
6865.03
6292.54
5669.9
4997.03
4273.86
1893.04
1836.34
1781.48
1728.36
)


20
(
10311.6
10285.3
10206.3
10074.5
9890.11
9652.92
9362.95
9020.14
8624.45
8175.81
7674.16
7119.43
6511.55
5850.43
5136.01
4368.2
1840.48
1780.27
1722.03
1665.63
)


20
(
10607.4
10579.9
10497.5
10360.2
10167.9
9920.66
9618.37
9261
8848.5
8380.82
7857.88
7279.63
6645.99
5956.88
5212.22
4411.93
1777.33
1714.58
1653.87
1595.09
)


20
(
10753.7
10725.6
10641.2
10500.4
10303.3
10049.9
9740.08
9373.81
8951.04
8471.73
7935.8
7343.19
6693.82
5987.62
5224.51
4404.42
1704.65
1640.34
1578.14
1517.89
)


20
(
10748.5
10720.1
10634.9
10493
10294.2
10038.7
9726.22
9356.86
8930.53
8447.18
7906.74
7309.15
6654.34
5942.24
5172.76
4345.85
1623.63
1558.79
1496.06
1435.32
)


20
(
10591.7
10563.6
10479
10338.2
10140.9
9887.22
9577.1
9210.49
8787.35
8307.62
7771.23
7178.13
6528.25
5821.51
5057.85
4237.19
1535.61
1471.26
1409.01
1348.72
)


20
(
10286.1
10258.6
10176
10038.4
9845.77
9598.02
9295.14
8937.1
8523.84
8055.33
7531.49
6952.27
6317.6
5627.42
4881.66
4080.25
1442.05
1379.21
1318.42
1259.54
)


20
(
9836.39
9809.97
9730.7
9598.58
9413.58
9175.67
8884.84
8541.04
8144.22
7694.34
7191.35
6635.18
6025.78
5363.08
4647.02
3877.54
1344.47
1284.13
1225.77
1169.24
)


20
(
9249.66
9224.75
9150.02
9025.46
8851.05
8626.77
8352.59
8028.47
7654.38
7230.27
6756.09
6231.78
5657.3
5032.58
4357.56
3632.19
1244.34
1187.47
1132.44
1079.16
)


20
(
8534.73
8511.73
8442.72
8327.7
8166.65
7959.54
7706.36
7407.07
7061.64
6670.01
6232.16
5748.02
5217.56
4640.72
4017.43
3347.66
1142.84
1090.33
1039.52
990.321
)


20
(
7701.75
7681.02
7618.83
7515.18
7370.04
7183.4
6955.24
6685.52
6374.23
6021.31
5626.72
5190.44
4712.41
4192.58
3630.91
3027.35
1040.5
993.177
947.394
903.056
)


20
(
6761.69
6743.56
6689.18
6598.53
6471.61
6308.4
6108.87
5873.01
5600.79
5292.16
4947.11
4565.59
4147.57
3693
3201.84
2674.05
936.629
895.246
855.211
816.439
)


20
(
5724.98
5709.74
5664.02
5587.83
5481.14
5343.94
5176.22
4977.95
4749.12
4489.69
4199.64
3878.94
3527.54
3145.43
2732.57
2288.91
828.449
793.663
760.009
727.419
)


20
(
4600.54
4588.44
4552.11
4491.56
4406.79
4297.77
4164.5
4006.95
3825.12
3618.98
3388.51
3133.68
2854.47
2550.85
2222.79
1870.27
709.812
682.171
655.431
629.535
)


20
(
3394.39
3385.6
3359.23
3315.28
3253.73
3174.59
3077.84
2963.48
2831.48
2681.84
2514.54
2329.56
2126.88
1906.49
1668.36
1412.48
570.169
550.106
530.698
511.901
)


20
(
2112.93
2107.59
2091.56
2064.86
2027.46
1979.38
1920.6
1851.12
1770.94
1680.04
1578.42
1466.06
1342.98
1209.14
1064.54
909.181
397.78
385.599
373.815
362.403
)


20
(
776.029
774.212
768.762
759.679
746.964
730.617
710.64
687.032
659.796
628.933
594.444
556.332
514.597
469.242
420.269
367.68
194.626
190.503
186.514
182.652
)


20
(
2332.57
2331.06
2326.53
2318.96
2308.35
2294.68
2277.92
2258.05
2235.05
2208.87
2179.48
2146.84
2110.9
2071.61
2028.94
1982.82
1830.55
1826.93
1823.44
1820.05
)


20
(
3514.06
3509.02
3493.92
3468.75
3433.48
3388.11
3332.6
3266.92
3191.05
3104.95
3008.56
2901.84
2784.75
2657.24
2519.24
2370.71
1881.32
1869.68
1858.41
1847.51
)


20
(
4655.86
4647.39
4621.97
4579.6
4520.25
4443.92
4350.56
4240.15
4112.65
3968.01
3806.19
3627.14
3430.8
3217.12
2986.04
2737.5
1918.91
1899.42
1880.57
1862.31
)


20
(
5740.4
5728.63
5693.3
5634.41
5551.94
5445.87
5316.16
5162.79
4985.71
4784.86
4560.22
4311.7
4039.27
3742.85
3422.38
3077.8
1943.11
1916.1
1889.96
1864.65
)


20
(
6750.91
6736.02
6691.35
6616.89
6512.62
6378.51
6214.53
6020.64
5796.81
5542.97
5259.08
4945.07
4600.89
4226.46
3821.72
3386.6
1953.89
1919.77
1886.77
1854.81
)


20
(
7671.76
7653.99
7600.69
7511.84
7387.42
7227.41
7031.78
6800.47
6533.45
6230.66
5892.05
5517.54
5107.09
4660.61
4178.03
3659.29
1951.34
1910.67
1871.32
1833.22
)


20
(
8488.64
8468.28
8407.2
8305.38
8162.8
7979.44
7755.25
7490.21
7184.25
6837.32
6449.37
6020.33
5550.12
5038.68
4485.94
3891.81
1935.74
1889.15
1844.08
1800.44
)


20
(
9188.89
9166.26
9098.36
8985.19
8826.72
8622.91
8373.75
8079.17
7739.14
7353.58
6922.46
6445.68
5923.19
5354.91
4740.76
4080.68
1907.5
1855.74
1805.67
1757.18
)


20
(
9761.62
9737.07
9663.44
9540.71
9368.86
9147.85
8877.66
8558.23
8189.51
7771.45
7303.99
6787.05
6220.56
5604.45
4938.64
4223.05
1867.21
1811.1
1756.82
1704.26
)


20
(
10197.9
10171.8
10093.6
9963.3
9780.8
9546.09
9259.16
8919.94
8528.4
8084.46
7588.07
7039.16
6437.65
5783.48
5076.55
4316.8
1815.62
1756.04
1698.41
1642.6
)


20
(
10491
10463.8
10382.3
10246.4
10056.1
9811.45
9512.32
9158.7
8750.53
8287.75
7770.31
7198.12
6571.13
5889.25
5152.41
4360.53
1753.6
1691.51
1631.44
1573.27
)


20
(
10636.3
10608.4
10524.9
10385.6
10190.6
9939.82
9633.24
9270.81
8852.49
8378.2
7847.9
7261.51
6618.96
5920.18
5165.09
4353.61
1682.2
1618.58
1557.02
1497.41
)


20
(
10631.6
10603.5
10519.2
10378.8
10182.1
9929.24
9620.07
9254.59
8832.73
8354.45
7819.69
7228.38
6580.45
5875.83
5114.44
4296.21
1602.61
1538.45
1476.38
1416.28
)


20
(
10477.1
10449.2
10365.6
10226.2
10031
9779.97
9473.11
9110.35
8691.65
8216.96
7686.21
7099.34
6456.29
5756.98
5001.34
4189.31
1516.13
1452.46
1390.86
1331.21
)


20
(
10175.3
10148.1
10066.4
9930.23
9739.59
9494.44
9194.75
8840.47
8431.56
7967.96
7449.63
6876.49
6248.5
5565.57
4827.65
4034.67
1424.21
1362.03
1301.88
1243.63
)


20
(
9730.98
9704.83
9626.4
9495.66
9312.6
9077.2
8789.42
8449.23
8056.58
7611.43
7113.73
6563.4
5960.41
5304.68
4596.16
3834.77
1328.34
1268.64
1210.88
1154.95
)


20
(
9151.07
9126.42
9052.48
8929.22
8756.65
8534.72
8263.42
7942.71
7572.55
7152.9
6683.7
6164.91
5596.47
4978.32
4310.41
3592.67
1229.94
1173.66
1119.22
1066.49
)


20
(
8444.26
8421.5
8353.22
8239.41
8080.05
7875.13
7624.61
7328.46
6986.66
6599.15
6165.91
5686.86
5161.98
4591.2
3974.48
3311.76
1130.14
1078.18
1027.91
979.224
)


20
(
7620.57
7600.06
7538.53
7435.96
7292.35
7107.67
6881.91
6615.03
6307.01
5957.8
5567.37
5135.68
4662.67
4148.32
3592.56
2995.35
1029.42
982.589
937.288
893.417
)


20
(
6690.8
6672.86
6619.05
6529.36
6403.77
6242.27
6044.85
5811.47
5542.11
5236.73
4895.31
4517.81
4104.18
3654.39
3168.4
2646.17
927.041
886.093
846.479
808.116
)


20
(
5665.25
5650.17
5604.93
5529.54
5423.97
5288.21
5122.26
4926.08
4699.65
4442.95
4155.95
3838.62
3490.93
3112.84
2704.32
2265.33
820.243
785.823
752.524
720.276
)


20
(
4552.76
4540.78
4504.84
4444.92
4361.04
4253.17
4121.3
3965.41
3785.49
3581.52
3353.47
3101.32
2825.04
2524.62
2200.01
1851.2
702.949
675.599
649.141
623.518
)


20
(
3359.36
3350.66
3324.57
3281.07
3220.17
3141.86
3046.13
2932.97
2802.35
2654.28
2488.74
2305.7
2105.15
1887.08
1651.45
1398.26
564.802
544.951
525.746
507.147
)


20
(
2091.49
2086.21
2070.35
2043.93
2006.92
1959.34
1901.18
1832.43
1753.08
1663.13
1562.58
1451.4
1329.6
1197.17
1054.09
900.355
394.317
382.264
370.603
359.311
)


20
(
768.829
767.031
761.637
752.648
740.064
723.885
704.113
680.75
653.795
623.251
589.118
551.4
510.098
465.213
416.747
364.704
193.447
189.367
185.42
181.597
)


20
(
2371.05
2369.52
2364.93
2357.28
2346.55
2332.73
2315.78
2295.7
2272.43
2245.96
2216.23
2183.21
2146.86
2107.12
2063.94
2017.28
1863.21
1859.55
1856.02
1852.59
)


20
(
3568.46
3563.36
3548.07
3522.58
3486.86
3440.91
3384.7
3318.2
3241.36
3154.16
3056.54
2948.47
2829.88
2700.74
2560.97
2410.53
1914.86
1903.06
1891.66
1880.61
)


20
(
4725.58
4717
4691.25
4648.33
4588.22
4510.89
4416.33
4304.49
4175.33
4028.82
3864.9
3683.53
3484.64
3268.18
3034.09
2782.31
1953.05
1933.31
1914.21
1895.72
)


20
(
5824.58
5812.65
5776.87
5717.21
5633.66
5526.21
5394.81
5239.44
5060.04
4856.57
4628.99
4377.23
4101.22
3800.92
3476.26
3127.16
1977.59
1950.22
1923.74
1898.1
)


20
(
6848.48
6833.4
6788.14
6712.71
6607.07
6471.2
6305.07
6108.64
5881.87
5624.71
5337.09
5018.96
4670.25
4290.9
3880.84
3440
1988.44
1953.87
1920.43
1888.05
)


20
(
7781.44
7763.44
7709.43
7619.42
7493.37
7331.25
7133.05
6898.7
6628.17
6321.4
5978.32
5598.89
5183.03
4730.67
4241.73
3716.15
1985.68
1944.47
1904.61
1866
)


20
(
8608.96
8588.33
8526.45
8423.28
8278.83
8093.05
7865.92
7597.38
7287.39
6935.89
6542.82
6108.12
5631.72
5113.53
4553.49
3951.52
1969.61
1922.41
1876.75
1832.53
)


20
(
9318.21
9295.28
9226.49
9111.83
8951.26
8744.77
8492.32
8193.86
7849.34
7458.7
7021.88
6538.81
6009.42
5433.63
4811.37
4142.56
1940.65
1888.21
1837.48
1788.35
)


20
(
9898.17
9873.3
9798.7
9674.35
9500.22
9276.3
9002.54
8678.89
8305.31
7881.73
7408.08
6884.31
6310.34
5686.08
5011.47
4286.41
1899.4
1842.55
1787.55
1734.29
)


20
(
10339.8
10313.4
10234.2
10102.1
9917.17
9679.37
9388.64
9044.94
8648.22
8198.42
7695.47
7139.29
6529.83
5867
5150.72
4380.92
1846.62
1786.26
1727.86
1671.31
)


20
(
10636.2
10608.7
10526.1
10388.4
10195.6
9947.72
9644.64
9286.34
8872.77
8403.87
7879.58
7299.82
6664.53
5973.63
5227.03
4424.66
1783.2
1720.29
1659.43
1600.48
)


20
(
10782.9
10754.6
10670
10528.9
10331.3
10077.2
9766.55
9399.33
8975.47
8494.91
7957.59
7363.43
6712.37
6004.34
5239.24
4417.02
1710.21
1645.74
1583.37
1522.97
)


20
(
10777.4
10749
10663.6
10521.3
10322
10065.8
9752.54
9382.21
8954.77
8470.16
7928.32
7329.18
6672.67
5958.71
5187.23
4358.16
1628.85
1563.84
1500.95
1440.05
)


20
(
10620.2
10591.9
10507.2
10365.9
10168.1
9913.81
9602.89
9235.33
8811.08
8330.1
7792.32
7197.68
6546.1
5837.53
5071.88
4249.08
1540.46
1475.94
1413.53
1353.09
)


20
(
10313.6
10286
10203.2
10065.3
9872.1
9623.71
9320.04
8961.07
8546.74
8077
7551.8
6971.07
6334.75
5642.78
4895.07
4091.57
1446.5
1383.49
1322.54
1263.52
)


20
(
9862.54
9836.05
9756.58
9624.11
9438.63
9200.11
8908.52
8563.82
8165.97
7714.92
7210.61
6653
6042.01
5377.58
4659.66
3888.18
1348.5
1288.01
1229.49
1172.81
)


20
(
9274.12
9249.15
9174.23
9049.34
8874.48
8649.61
8374.72
8049.76
7674.69
7249.47
6774.05
6248.38
5672.4
5046.06
4369.28
3642.02
1247.95
1190.92
1135.76
1082.33
)


20
(
8557.18
8534.11
8464.93
8349.61
8188.13
7980.49
7726.65
7426.58
7080.25
6687.6
6248.61
5763.21
5231.37
4653.02
4028.11
3356.59
1146.03
1093.37
1042.44
993.106
)


20
(
7721.9
7701.11
7638.76
7534.84
7389.32
7202.2
6973.44
6703.02
6390.91
6037.07
5641.46
5204.04
4724.76
4203.58
3640.45
3035.31
1043.28
995.834
949.931
905.478
)


20
(
6779.28
6761.11
6706.58
6615.7
6488.45
6324.81
6124.77
5888.29
5615.36
5305.93
4959.98
4577.47
4158.35
3702.59
3210.15
2680.99
939.036
897.545
857.405
818.533
)


20
(
5739.81
5724.53
5678.69
5602.3
5495.33
5357.77
5189.61
4990.83
4761.4
4501.3
4210.49
3888.95
3536.65
3153.54
2739.6
2294.78
830.512
795.635
761.894
729.218
)


20
(
4612.41
4600.27
4563.85
4503.15
4418.15
4308.85
4175.23
4017.28
3834.97
3628.29
3397.22
3141.73
2861.79
2557.38
2228.46
1875.02
711.541
683.828
657.018
631.055
)


20
(
3403.1
3394.29
3367.85
3323.78
3262.07
3182.73
3085.73
2971.06
2838.72
2688.69
2520.96
2335.49
2132.29
1911.32
1672.58
1416.03
571.526
551.411
531.952
513.107
)


20
(
2118.26
2112.9
2096.84
2070.06
2032.57
1984.36
1925.43
1855.77
1775.38
1684.24
1582.36
1469.72