/*--------------------------------*- C++ -*----------------------------------*\
| =========                 |                                                 |
| \\      /  F ield         | OpenFOAM: The Open Source CFD Toolbox           |
|  \\    /   O peration     | Version:  2212                                  |
|   \\  /    A nd           | Website:  www.openfoam.com                      |
|    \\/     M anipulation  |                                                 |
\*---------------------------------------------------------------------------*/
FoamFile
{
    version     2.0;
    format      ascii;
    arch        "LSB;label=32;scalar=64";
    class       volScalarField;
    location    "58/neutroRegion";
    object      TCool;
}
// * * * * * * * * * * * * * * * * * * * * * * * * * * * * * * * * * * * * * //

dimensions      [0 0 0 1 0 0 0];

internalField   nonuniform List<scalar> 
350
(
83.2889
83.2894
83.2899
83.2904
83.2909
83.2914
83.2918
83.2923
83.2927
83.2932
83.2937
83.2941
83.2946
83.2951
83.2956
83.2961
83.2966
83.2971
83.2976
83.2979
83.2983
83.2986
83.299
83.2994
83.2998
83.2889
83.2894
83.2899
83.2904
83.2909
83.2914
83.2918
83.2923
83.2927
83.2932
83.2937
83.2941
83.2946
83.2951
83.2956
83.2961
83.2966
83.2971
83.2976
83.2979
83.2983
83.2986
83.299
83.2994
83.2998
1823.27
1817.11
1798.55
1767.79
1725.2
1671.25
1606.58
1531.93
1448.17
1356.32
1257.53
1153.12
1044.62
933.775
822.538
713.012
607.304
507.375
414.938
331.432
258.105
196.152
146.8
111.211
90.0868
1851.52
1845.58
1827.01
1796.03
1753
1698.41
1632.89
1557.2
1472.22
1378.97
1278.62
1172.5
1062.14
949.319
836.023
724.408
616.651
514.785
420.582
335.524
260.88
197.862
147.703
111.575
90.1642
1818.68
1812.51
1793.97
1763.26
1720.76
1666.93
1602.41
1527.94
1444.39
1352.78
1254.25
1150.12
1041.92
931.391
820.482
711.285
605.896
506.267
414.1
330.83
257.7
195.905
146.67
111.158
90.0744
1845.16
1839.16
1820.58
1789.64
1746.69
1692.24
1626.9
1551.43
1466.73
1373.79
1273.79
1168.05
1058.12
945.741
832.914
721.778
614.491
513.071
419.275
334.576
260.237
197.465
147.493
111.491
90.1464
1845.16
1839.16
1820.58
1789.64
1746.69
1692.24
1626.9
1551.43
1466.73
1373.79
1273.79
1168.05
1058.12
945.741
832.914
721.778
614.491
513.071
419.275
334.576
260.237
197.465
147.493
111.491
90.1464
1818.68
1812.51
1793.97
1763.26
1720.76
1666.93
1602.41
1527.94
1444.39
1352.78
1254.25
1150.12
1041.92
931.392
820.483
711.286
605.897
506.268
414.101
330.83
257.7
195.905
146.67
111.158
90.0744
1851.52
1845.58
1827.01
1796.03
1753
1698.41
1632.89
1557.2
1472.22
1378.97
1278.62
1172.5
1062.14
949.319
836.023
724.408
616.651
514.785
420.582
335.524
260.88
197.862
147.703
111.575
90.1642
1823.27
1817.11
1798.55
1767.79
1725.2
1671.25
1606.58
1531.93
1448.17
1356.32
1257.53
1153.12
1044.62
933.775
822.538
713.012
607.304
507.375
414.938
331.432
258.105
196.152
146.8
111.211
90.0868
1845.16
1839.16
1820.58
1789.64
1746.69
1692.24
1626.9
1551.43
1466.73
1373.79
1273.79
1168.05
1058.12
945.741
832.914
721.778
614.491
513.071
419.275
334.576
260.237
197.465
147.493
111.491
90.1464
1818.68
1812.51
1793.97
1763.26
1720.76
1666.93
1602.41
1527.94
1444.39
1352.78
1254.25
1150.12
1041.92
931.391
820.482
711.285
605.896
506.267
414.1
330.83
257.7
195.905
146.67
111.158
90.0744
1818.68
1812.51
1793.97
1763.26
1720.76
1666.93
1602.41
1527.94
1444.39
1352.78
1254.25
1150.12
1041.92
931.392
820.483
711.286
605.897
506.268
414.101
330.83
257.7
195.905
146.67
111.158
90.0744
1845.16
1839.16
1820.58
1789.64
1746.69
1692.24
1626.9
1551.43
1466.73
1373.79
1273.79
1168.05
1058.12
945.741
832.914
721.778
614.491
513.071
419.275
334.576
260.237
197.465
147.493
111.491
90.1464
)
;

boundaryField
{
    outletCentralUnloaded
    {
        type            zeroGradient;
    }
    inletCentralUnloaded
    {
        type            zeroGradient;
    }
    outletFuelElement
    {
        type            zeroGradient;
    }
    inletFuelElement
    {
        type            zeroGradient;
    }
    defaultFaces
    {
        type            zeroGradient;
    }
}


// ************************************************************************* //
