/*--------------------------------*- C++ -*----------------------------------*\
| =========                 |                                                 |
| \\      /  F ield         | OpenFOAM: The Open Source CFD Toolbox           |
|  \\    /   O peration     | Version:  2212                                  |
|   \\  /    A nd           | Website:  www.openfoam.com                      |
|    \\/     M anipulation  |                                                 |
\*---------------------------------------------------------------------------*/
FoamFile
{
    version     2.0;
    format      ascii;
    arch        "LSB;label=32;scalar=64";
    class       volTensorField;
    location    "130/fluidRegion";
    object      KdTotU;
}
// * * * * * * * * * * * * * * * * * * * * * * * * * * * * * * * * * * * * * //

dimensions      [1 -2 -2 0 0 0 0];

internalField   nonuniform List<tensor> 
17
(
(5252.12 0 0 0 5252.12 0 0 0 5252.12)
(5252.12 0 0 0 5252.12 0 0 0 5252.12)
(8000.37 0 0 0 8000.37 0 0 0 8000.37)
(10547.6 0 0 0 10547.6 0 0 0 10547.6)
(11632.4 0 0 0 11632.4 0 0 0 11632.4)
(12503.5 0 0 0 12503.5 0 0 0 12503.5)
(13317.3 0 0 0 13317.3 0 0 0 13317.3)
(14177.2 0 0 0 14177.2 0 0 0 14177.2)
(15134.4 0 0 0 15134.4 0 0 0 15134.4)
(16232.2 0 0 0 16232.2 0 0 0 16232.2)
(17512.7 0 0 0 17512.7 0 0 0 17512.7)
(19022.1 0 0 0 19022.1 0 0 0 19022.1)
(20813.3 0 0 0 20813.3 0 0 0 20813.3)
(22945.3 0 0 0 22945.3 0 0 0 22945.3)
(25480.5 0 0 0 25480.5 0 0 0 25480.5)
(28486.8 0 0 0 28486.8 0 0 0 28486.8)
(31947.7 0 0 0 31947.7 0 0 0 31947.7)
)
;

boundaryField
{
    inlet
    {
        type            zeroGradient;
    }
    outlet
    {
        type            zeroGradient;
    }
    fixedWalls
    {
        type            zeroGradient;
    }
}


// ************************************************************************* //
