/*--------------------------------*- C++ -*----------------------------------*\
| =========                 |                                                 |
| \\      /  F ield         | OpenFOAM: The Open Source CFD Toolbox           |
|  \\    /   O peration     | Version:  2212                                  |
|   \\  /    A nd           | Website:  www.openfoam.com                      |
|    \\/     M anipulation  |                                                 |
\*---------------------------------------------------------------------------*/
FoamFile
{
    version     2.0;
    format      ascii;
    arch        "LSB;label=32;scalar=64";
    class       volScalarField;
    location    "130/fluidRegion";
    object      p;
}
// * * * * * * * * * * * * * * * * * * * * * * * * * * * * * * * * * * * * * //

dimensions      [1 -1 -2 0 0 0 0];

internalField   nonuniform List<scalar> 
17
(
1.48086e+07
1.48077e+07
1.48061e+07
1.48029e+07
1.47994e+07
1.47957e+07
1.47918e+07
1.47878e+07
1.47835e+07
1.4779e+07
1.47742e+07
1.47691e+07
1.47635e+07
1.47575e+07
1.47509e+07
1.47436e+07
1.47355e+07
)
;

boundaryField
{
    inlet
    {
        type            calculated;
        value           uniform 1.48091e+07;
    }
    outlet
    {
        type            calculated;
        value           uniform 1.47311e+07;
    }
    fixedWalls
    {
        type            calculated;
        value           nonuniform List<scalar> 
68
(
1.48086e+07
1.48077e+07
1.48061e+07
1.48029e+07
1.47994e+07
1.47957e+07
1.47918e+07
1.47878e+07
1.47835e+07
1.4779e+07
1.47742e+07
1.47691e+07
1.47635e+07
1.47575e+07
1.47509e+07
1.47436e+07
1.47355e+07
1.48086e+07
1.48077e+07
1.48061e+07
1.48029e+07
1.47994e+07
1.47957e+07
1.47918e+07
1.47878e+07
1.47835e+07
1.4779e+07
1.47742e+07
1.47691e+07
1.47635e+07
1.47575e+07
1.47509e+07
1.47436e+07
1.47355e+07
1.48086e+07
1.48077e+07
1.48061e+07
1.48029e+07
1.47994e+07
1.47957e+07
1.47918e+07
1.47878e+07
1.47835e+07
1.4779e+07
1.47742e+07
1.47691e+07
1.47635e+07
1.47575e+07
1.47509e+07
1.47436e+07
1.47355e+07
1.48086e+07
1.48077e+07
1.48061e+07
1.48029e+07
1.47994e+07
1.47957e+07
1.47918e+07
1.47878e+07
1.47835e+07
1.4779e+07
1.47742e+07
1.47691e+07
1.47635e+07
1.47575e+07
1.47509e+07
1.47436e+07
1.47355e+07
)
;
    }
}


// ************************************************************************* //
