/*--------------------------------*- C++ -*----------------------------------*\
| =========                 |                                                 |
| \\      /  F ield         | OpenFOAM: The Open Source CFD Toolbox           |
|  \\    /   O peration     | Version:  2212                                  |
|   \\  /    A nd           | Website:  www.openfoam.com                      |
|    \\/     M anipulation  |                                                 |
\*---------------------------------------------------------------------------*/
FoamFile
{
    version     2.0;
    format      ascii;
    arch        "LSB;label=32;scalar=64";
    class       volScalarField;
    location    "130/fluidRegion";
    object      p_rgh;
}
// * * * * * * * * * * * * * * * * * * * * * * * * * * * * * * * * * * * * * //

dimensions      [1 -1 -2 0 0 0 0];

internalField   nonuniform List<scalar> 
17
(
1.48088e+07
1.48082e+07
1.48071e+07
1.48045e+07
1.48015e+07
1.47984e+07
1.47952e+07
1.47917e+07
1.4788e+07
1.4784e+07
1.47797e+07
1.47751e+07
1.477e+07
1.47644e+07
1.47582e+07
1.47513e+07
1.47435e+07
)
;

boundaryField
{
    inlet
    {
        type            fixedFluxPressure;
        gradient        uniform 12087.9;
        value           uniform 1.48091e+07;
    }
    outlet
    {
        type            fixedValue;
        value           uniform 1.47394e+07;
    }
    fixedWalls
    {
        type            fixedFluxPressure;
        gradient        uniform 0;
        value           nonuniform List<scalar> 
68
(
1.48088e+07
1.48082e+07
1.48071e+07
1.48045e+07
1.48015e+07
1.47984e+07
1.47952e+07
1.47917e+07
1.4788e+07
1.4784e+07
1.47797e+07
1.47751e+07
1.477e+07
1.47644e+07
1.47582e+07
1.47513e+07
1.47435e+07
1.48088e+07
1.48082e+07
1.48071e+07
1.48045e+07
1.48015e+07
1.47984e+07
1.47952e+07
1.47917e+07
1.4788e+07
1.4784e+07
1.47797e+07
1.47751e+07
1.477e+07
1.47644e+07
1.47582e+07
1.47513e+07
1.47435e+07
1.48088e+07
1.48082e+07
1.48071e+07
1.48045e+07
1.48015e+07
1.47984e+07
1.47952e+07
1.47917e+07
1.4788e+07
1.4784e+07
1.47797e+07
1.47751e+07
1.477e+07
1.47644e+07
1.47582e+07
1.47513e+07
1.47435e+07
1.48088e+07
1.48082e+07
1.48071e+07
1.48045e+07
1.48015e+07
1.47984e+07
1.47952e+07
1.47917e+07
1.4788e+07
1.4784e+07
1.47797e+07
1.47751e+07
1.477e+07
1.47644e+07
1.47582e+07
1.47513e+07
1.47435e+07
)
;
    }
}


// ************************************************************************* //
