/*--------------------------------*- C++ -*----------------------------------*\
| =========                 |                                                 |
| \\      /  F ield         | OpenFOAM: The Open Source CFD Toolbox           |
|  \\    /   O peration     | Version:  2212                                  |
|   \\  /    A nd           | Website:  www.openfoam.com                      |
|    \\/     M anipulation  |                                                 |
\*---------------------------------------------------------------------------*/
FoamFile
{
    version     2.0;
    format      ascii;
    arch        "LSB;label=32;scalar=64";
    class       volScalarField;
    location    "84/neutroRegion";
    object      TFuel;
}
// * * * * * * * * * * * * * * * * * * * * * * * * * * * * * * * * * * * * * //

dimensions      [0 0 0 1 0 0 0];

internalField   nonuniform List<scalar> 
350
(
0
0
0
0
0
0
0
0
0
0
0
0
0
0
0
0
0
0
0
0
0
0
0
0
0
0
0
0
0
0
0
0
0
0
0
0
0
0
0
0
0
0
0
0
0
0
0
0
0
0
2223.31
3010.34
3766.67
4480.75
5141.65
5739.2
6264.19
6708.53
7065.32
7329.04
7495.59
7562.4
7528.45
7394.34
7162.26
6835.89
6420.3
5921.64
5346.64
4702.18
3993.83
3225.09
2395.63
1504.37
564.385
2256.09
3052.32
3817.4
4539.68
5208.09
5812.35
6343.14
6792.26
7152.78
7419.08
7587.04
7654.06
7619.11
7482.8
7247.34
6916.49
6495.4
5990.33
5408.15
4755.85
4039.11
3261.46
2422.47
1520.89
569.933
2218
3003.59
3758.54
4471.33
5131.05
5727.55
6251.64
6695.23
7051.44
7314.76
7481.1
7547.88
7514.1
7380.35
7148.8
6823.15
6408.43
5910.78
5336.93
4693.7
3986.69
3219.36
2391.42
1501.78
563.511
2248.7
3042.79
3805.84
4526.22
5192.89
5795.58
6325.03
6773.04
7132.68
7398.38
7566.01
7632.97
7598.25
7462.44
7227.75
6897.93
6478.1
5974.5
5393.98
4743.48
4028.68
3253.08
2416.29
1517.08
568.654
2248.7
3042.79
3805.84
4526.22
5192.89
5795.58
6325.03
6773.04
7132.68
7398.38
7566.01
7632.97
7598.25
7462.44
7227.75
6897.93
6478.1
5974.5
5393.98
4743.48
4028.68
3253.08
2416.29
1517.08
568.654
2218
3003.59
3758.54
4471.33
5131.05
5727.55
6251.65
6695.23
7051.44
7314.76
7481.1
7547.88
7514.1
7380.35
7148.8
6823.15
6408.43
5910.78
5336.93
4693.7
3986.69
3219.37
2391.42
1501.78
563.511
2256.09
3052.32
3817.4
4539.68
5208.09
5812.34
6343.14
6792.26
7152.78
7419.08
7587.04
7654.06
7619.11
7482.8
7247.34
6916.49
6495.4
5990.33
5408.15
4755.85
4039.11
3261.46
2422.48
1520.89
569.933
2223.31
3010.34
3766.67
4480.75
5141.65
5739.2
6264.19
6708.53
7065.32
7329.04
7495.59
7562.4
7528.45
7394.34
7162.26
6835.89
6420.3
5921.64
5346.64
4702.17
3993.83
3225.09
2395.63
1504.37
564.385
2248.7
3042.79
3805.84
4526.22
5192.89
5795.58
6325.03
6773.04
7132.68
7398.38
7566.01
7632.97
7598.25
7462.44
7227.75
6897.93
6478.1
5974.5
5393.98
4743.48
4028.68
3253.08
2416.29
1517.08
568.654
2218
3003.59
3758.54
4471.33
5131.05
5727.55
6251.64
6695.23
7051.44
7314.76
7481.1
7547.88
7514.1
7380.35
7148.8
6823.15
6408.43
5910.78
5336.93
4693.7
3986.69
3219.37
2391.42
1501.78
563.511
2218
3003.59
3758.54
4471.33
5131.05
5727.55
6251.65
6695.23
7051.44
7314.76
7481.1
7547.88
7514.1
7380.35
7148.8
6823.15
6408.43
5910.78
5336.93
4693.7
3986.69
3219.37
2391.42
1501.78
563.511
2248.7
3042.79
3805.84
4526.22
5192.89
5795.58
6325.03
6773.04
7132.68
7398.38
7566.01
7632.97
7598.25
7462.44
7227.75
6897.93
6478.1
5974.5
5393.98
4743.48
4028.68
3253.08
2416.29
1517.08
568.654
)
;

boundaryField
{
    outletCentralUnloaded
    {
        type            zeroGradient;
    }
    inletCentralUnloaded
    {
        type            zeroGradient;
    }
    outletFuelElement
    {
        type            zeroGradient;
    }
    inletFuelElement
    {
        type            zeroGradient;
    }
    defaultFaces
    {
        type            zeroGradient;
    }
}


// ************************************************************************* //
