/*--------------------------------*- C++ -*----------------------------------*\
| =========                 |                                                 |
| \\      /  F ield         | OpenFOAM: The Open Source CFD Toolbox           |
|  \\    /   O peration     | Version:  2212                                  |
|   \\  /    A nd           | Website:  www.openfoam.com                      |
|    \\/     M anipulation  |                                                 |
\*---------------------------------------------------------------------------*/
FoamFile
{
    version     2.0;
    format      ascii;
    arch        "LSB;label=32;scalar=64";
    class       volTensorField;
    location    "170/fluidRegion";
    object      KdTotU;
}
// * * * * * * * * * * * * * * * * * * * * * * * * * * * * * * * * * * * * * //

dimensions      [1 -2 -2 0 0 0 0];

internalField   nonuniform List<tensor> 
17
(
(5252.12 0 0 0 5252.12 0 0 0 5252.12)
(5252.12 0 0 0 5252.12 0 0 0 5252.12)
(5427.76 0 0 0 5427.76 0 0 0 5427.76)
(5553.51 0 0 0 5553.51 0 0 0 5553.51)
(5602.35 0 0 0 5602.35 0 0 0 5602.35)
(5626.73 0 0 0 5626.73 0 0 0 5626.73)
(5639.56 0 0 0 5639.56 0 0 0 5639.56)
(5647.21 0 0 0 5647.21 0 0 0 5647.21)
(5652.24 0 0 0 5652.24 0 0 0 5652.24)
(5655.95 0 0 0 5655.95 0 0 0 5655.95)
(5659 0 0 0 5659 0 0 0 5659)
(5661.71 0 0 0 5661.71 0 0 0 5661.71)
(5664.25 0 0 0 5664.25 0 0 0 5664.25)
(5666.72 0 0 0 5666.72 0 0 0 5666.72)
(5669.16 0 0 0 5669.16 0 0 0 5669.16)
(5671.6 0 0 0 5671.6 0 0 0 5671.6)
(5673.97 0 0 0 5673.97 0 0 0 5673.97)
)
;

boundaryField
{
    inlet
    {
        type            zeroGradient;
    }
    outlet
    {
        type            zeroGradient;
    }
    fixedWalls
    {
        type            zeroGradient;
    }
}


// ************************************************************************* //
