/*--------------------------------*- C++ -*----------------------------------*\
| =========                 |                                                 |
| \\      /  F ield         | OpenFOAM: The Open Source CFD Toolbox           |
|  \\    /   O peration     | Version:  2212                                  |
|   \\  /    A nd           | Website:  www.openfoam.com                      |
|    \\/     M anipulation  |                                                 |
\*---------------------------------------------------------------------------*/
FoamFile
{
    version     2.0;
    format      ascii;
    arch        "LSB;label=32;scalar=64";
    class       volScalarField;
    location    "27/neutroRegion";
    object      TClad;
}
// * * * * * * * * * * * * * * * * * * * * * * * * * * * * * * * * * * * * * //

dimensions      [0 0 0 1 0 0 0];

internalField   nonuniform List<scalar> 
350
(
0
0
0
0
0
0
0
0
0
0
0
0
0
0
0
0
0
0
0
0
0
0
0
0
0
0
0
0
0
0
0
0
0
0
0
0
0
0
0
0
0
0
0
0
0
0
0
0
0
0
1762.02
1802.5
1830.21
1845.15
1847.44
1837.34
1815.28
1781.8
1737.6
1683.51
1620.49
1549.61
1472.08
1389.21
1302.41
1213.09
1122.55
1031.79
941.103
849.607
754.41
649.555
525.299
371.316
189.75
1788.51
1829.66
1857.82
1872.98
1875.27
1864.96
1842.47
1808.36
1763.33
1708.24
1644.04
1571.84
1492.86
1408.42
1319.95
1228.91
1136.65
1044.21
951.938
858.988
762.459
656.309
530.596
374.737
190.908
1757.7
1798.1
1825.76
1840.68
1842.98
1832.94
1810.96
1777.59
1733.54
1679.63
1616.8
1546.14
1468.85
1386.24
1299.7
1210.65
1120.39
1029.89
939.448
848.179
753.193
648.544
524.516
370.815
189.574
1782.55
1823.54
1851.58
1866.68
1868.95
1858.68
1836.27
1802.29
1757.45
1702.57
1638.64
1566.73
1488.08
1404
1315.91
1225.26
1133.4
1041.34
949.434
856.819
760.597
654.745
529.369
373.944
190.64
1782.55
1823.54
1851.58
1866.68
1868.95
1858.68
1836.27
1802.29
1757.45
1702.57
1638.64
1566.73
1488.08
1404
1315.91
1225.26
1133.4
1041.34
949.434
856.819
760.597
654.746
529.369
373.944
190.64
1757.7
1798.1
1825.76
1840.68
1842.98
1832.94
1810.96
1777.6
1733.54
1679.63
1616.8
1546.14
1468.85
1386.24
1299.7
1210.65
1120.39
1029.89
939.449
848.18
753.194
648.544
524.517
370.815
189.574
1788.51
1829.66
1857.82
1872.98
1875.27
1864.96
1842.47
1808.36
1763.33
1708.24
1644.04
1571.84
1492.86
1408.42
1319.95
1228.91
1136.65
1044.21
951.938
858.988
762.459
656.309
530.596
374.737
190.908
1762.02
1802.5
1830.21
1845.15
1847.44
1837.34
1815.28
1781.8
1737.6
1683.51
1620.49
1549.61
1472.08
1389.21
1302.41
1213.09
1122.55
1031.79
941.103
849.607
754.41
649.555
525.299
371.316
189.75
1782.55
1823.54
1851.58
1866.68
1868.95
1858.68
1836.27
1802.29
1757.45
1702.57
1638.64
1566.73
1488.08
1404
1315.91
1225.26
1133.4
1041.34
949.434
856.819
760.597
654.746
529.369
373.944
190.64
1757.7
1798.1
1825.76
1840.68
1842.98
1832.94
1810.96
1777.59
1733.54
1679.63
1616.8
1546.14
1468.85
1386.24
1299.7
1210.65
1120.39
1029.89
939.448
848.179
753.193
648.544
524.516
370.815
189.574
1757.7
1798.1
1825.76
1840.68
1842.98
1832.94
1810.96
1777.6
1733.54
1679.63
1616.8
1546.14
1468.85
1386.24
1299.7
1210.65
1120.39
1029.89
939.449
848.18
753.194
648.544
524.517
370.815
189.574
1782.55
1823.54
1851.58
1866.67
1868.95
1858.68
1836.27
1802.29
1757.45
1702.57
1638.64
1566.73
1488.08
1404
1315.91
1225.26
1133.4
1041.34
949.433
856.819
760.597
654.746
529.369
373.943
190.64
)
;

boundaryField
{
    outletCentralUnloaded
    {
        type            zeroGradient;
    }
    inletCentralUnloaded
    {
        type            zeroGradient;
    }
    outletFuelElement
    {
        type            zeroGradient;
    }
    inletFuelElement
    {
        type            zeroGradient;
    }
    defaultFaces
    {
        type            zeroGradient;
    }
}


// ************************************************************************* //
