/*--------------------------------*- C++ -*----------------------------------*\
| =========                 |                                                 |
| \\      /  F ield         | OpenFOAM: The Open Source CFD Toolbox           |
|  \\    /   O peration     | Version:  2212                                  |
|   \\  /    A nd           | Website:  www.openfoam.com                      |
|    \\/     M anipulation  |                                                 |
\*---------------------------------------------------------------------------*/
FoamFile
{
    version     2.0;
    format      ascii;
    arch        "LSB;label=32;scalar=64";
    class       surfaceScalarField;
    location    "78/fluidRegion";
    object      alphaRhoPhi;
}
// * * * * * * * * * * * * * * * * * * * * * * * * * * * * * * * * * * * * * //

dimensions      [1 0 -1 0 0 0 0];

oriented        oriented;

internalField   nonuniform List<scalar> 
661
(
-0.00584959
3.49701e-12
-0.00584962
5.91417e-13
-0.00584965
-4.04469e-12
-0.00584966
-6.42163e-12
-0.00584963
-4.18938e-12
-0.0058496
1.56241e-12
-0.00584959
7.23876e-12
-0.00584961
9.08559e-12
-0.00584967
5.63174e-12
-0.00584974
-1.47374e-12
-0.00584978
-8.44904e-12
-0.00584978
-1.16311e-11
-0.00584973
-9.44377e-12
-0.00584965
-3.16705e-12
-0.00584957
3.93487e-12
-0.00584953
8.46955e-12
-0.00584952
8.69448e-12
-0.00584955
5.26938e-12
-0.00584959
5.94698e-13
-0.00584962
-2.75829e-12
-0.00584963
-3.48313e-12
-0.00584963
-1.94998e-12
-0.00584963
2.45034e-13
-0.00584963
5.94443e-13
-9.03675e-13
-0.00584959
-0.00584962
-0.00584965
-0.00584966
-0.00584963
-0.0058496
-0.00584959
-0.00584961
-0.00584967
-0.00584974
-0.00584978
-0.00584978
-0.00584973
-0.00584965
-0.00584957
-0.00584953
-0.00584952
-0.00584955
-0.00584959
-0.00584962
-0.00584963
-0.00584963
-0.00584963
-0.00584963
-0.00939702
6.45834e-07
-0.00939725
3.12114e-07
-0.00939751
3.46565e-07
-0.00939776
3.21689e-07
-0.00939799
3.02363e-07
-0.0093982
2.85436e-07
-0.00939841
2.70623e-07
-0.0093986
2.56317e-07
-0.00939877
2.3857e-07
-0.00939893
2.09714e-07
-0.00939905
1.57534e-07
-0.0093991
6.50331e-08
-0.00939902
-8.49904e-08
-0.00939876
-3.00195e-07
-0.00939826
-5.80962e-07
-0.00939745
-9.08615e-07
-0.00939631
-1.25711e-06
-0.00939483
-1.60989e-06
-0.00939299
-1.97856e-06
-0.00939072
-2.41334e-06
-0.00938786
-3.00645e-06
-0.00938416
-3.85446e-06
-0.00937931
-4.98749e-06
-0.00937357
-5.88413e-06
-7.19614e-06
-0.00931276
-2.01815e-08
-1.54361e-08
-0.00931232
-8.39759e-08
-8.06426e-08
-0.00931184
-8.19742e-08
-7.81241e-08
-0.0093114
-7.36601e-08
-6.94928e-08
-0.009311
-6.67322e-08
-6.21712e-08
-0.00931063
-6.03547e-08
-5.53609e-08
-0.00931028
-5.44716e-08
-4.89806e-08
-0.00930995
-4.8651e-08
-4.2533e-08
-0.00930966
-4.18047e-08
-3.49476e-08
-0.00930941
-3.17517e-08
-2.4005e-08
-0.00930925
-1.47639e-08
-5.87999e-09
-0.00930923
1.42839e-08
2.43271e-08
-0.00930944
5.97271e-08
7.16635e-08
-0.00931
1.29289e-07
1.43268e-07
-0.00931101
2.20863e-07
2.37398e-07
-0.00931256
3.30352e-07
3.50111e-07
-0.0093147
4.50025e-07
4.73922e-07
-0.00931744
5.74981e-07
6.04218e-07
-0.00932082
7.09435e-07
7.45774e-07
-0.00932496
8.71007e-07
9.16092e-07
-0.00933013
1.08994e-06
1.14526e-06
-0.00933677
1.3934e-06
1.45802e-06
-0.00934528
1.76126e-06
1.8335e-06
-0.00935494
1.89221e-06
1.96316e-06
1.85186e-06
1.90999e-06
-0.00941082
3.15577e-07
-0.00941115
3.02662e-07
-0.00941147
2.98441e-07
-0.00941176
2.73762e-07
-0.00941203
2.52609e-07
-0.00941227
2.33667e-07
-0.0094125
2.16361e-07
-0.0094127
1.98771e-07
-0.00941288
1.76322e-07
-0.00941302
1.40451e-07
-0.00941309
7.76438e-08
-0.00941305
-2.95145e-08
-0.00941282
-1.98504e-07
-0.00941231
-4.39173e-07
-0.00941143
-7.49164e-07
-0.00941011
-1.10824e-06
-0.00940829
-1.48938e-06
-0.00940598
-1.87739e-06
-0.00940312
-2.28821e-06
-0.00939961
-2.77848e-06
-0.00939521
-3.44306e-06
-0.00938957
-4.37599e-06
-0.00938239
-5.51869e-06
-0.00937435
-6.20974e-06
-6.48939e-06
-0.00933166
3.12727e-10
-0.00933139
-1.46347e-09
-0.00933112
-1.39896e-09
-0.00933088
-1.42913e-09
-0.00933065
-1.37808e-09
-0.00933045
-1.30929e-09
-0.00933026
-1.24192e-09
-0.00933008
-1.08714e-09
-0.00932993
-8.78606e-10
-0.0093298
-6.02582e-10
-0.00932973
-1.61908e-10
-0.00932976
4.67923e-10
-0.00932994
1.26184e-09
-0.00933035
2.26906e-09
-0.00933105
3.48924e-09
-0.00933209
4.93581e-09
-0.00933351
6.70333e-09
-0.00933531
8.87702e-09
-0.00933752
1.1245e-08
-0.00934023
1.3808e-08
-0.00934359
1.64756e-08
-0.0093479
1.82719e-08
-0.00935336
1.85806e-08
-0.00935953
1.631e-08
9.12547e-09
-0.00933167
-3.14844e-07
-0.0093314
-3.05729e-07
-0.00933113
-3.01279e-07
-0.00933089
-2.76691e-07
-0.00933067
-2.55504e-07
-0.00933046
-2.36526e-07
-0.00933027
-2.19185e-07
-0.00933009
-2.01452e-07
-0.00932994
-1.78807e-07
-0.00932981
-1.42662e-07
-0.00932975
-7.93499e-08
-0.00932977
2.83788e-08
-0.00932995
1.98258e-07
-0.00933036
4.39969e-07
-0.00933106
7.51198e-07
-0.0093321
1.11176e-06
-0.00933352
1.49488e-06
-0.00933532
1.88559e-06
-0.00933754
2.29985e-06
-0.00934024
2.79466e-06
-0.0093436
3.46541e-06
-0.00934791
4.4051e-06
-0.00935337
5.55471e-06
-0.00935954
6.24752e-06
6.52046e-06
-0.00941083
1.73884e-08
-0.00941115
8.29801e-08
-0.00941147
8.05968e-08
-0.00941177
7.20903e-08
-0.00941203
6.49584e-08
-0.00941228
5.83197e-08
-0.0094125
5.21011e-08
-0.0094127
4.58807e-08
-0.00941288
3.85123e-08
-0.00941302
2.77977e-08
-0.00941309
1.00283e-08
-0.00941305
-1.98572e-08
-0.00941282
-6.65237e-08
-0.00941231
-1.37464e-07
-0.00941143
-2.30689e-07
-0.0094101
-3.42074e-07
-0.00940829
-4.6382e-07
-0.00940597
-5.9083e-07
-0.00940311
-7.27437e-07
-0.00939959
-8.90802e-07
-0.0093952
-1.11142e-06
-0.00938955
-1.41561e-06
-0.00938236
-1.78398e-06
-0.00937433
-1.91137e-06
-1.84999e-06
-0.00931276
-6.46044e-07
-1.70068e-08
-0.00931232
-3.12488e-07
-7.99966e-08
-0.00931184
-3.47007e-07
-7.76739e-08
-0.0093114
-3.22167e-07
-6.90853e-08
-0.009311
-3.02836e-07
-6.18979e-08
-0.00931063
-2.8592e-07
-5.52491e-08
-0.00931028
-2.7113e-07
-4.90591e-08
-0.00930995
-2.56826e-07
-4.29083e-08
-0.00930966
-2.39105e-07
-3.56996e-08
-0.00930941
-2.10274e-07
-2.52448e-08
-0.00930925
-1.58063e-07
-7.85018e-09
-0.00930923
-6.54828e-08
2.16583e-08
-0.00930944
8.47419e-08
6.7605e-08
-0.00931
3.00139e-07
1.37552e-07
-0.00931101
5.81267e-07
2.29458e-07
-0.00931256
9.09574e-07
3.39096e-07
-0.0093147
1.25935e-06
4.58398e-07
-0.00931744
1.61458e-06
5.81942e-07
-0.00932082
1.98781e-06
7.13278e-07
-0.00932496
2.43103e-06
8.68484e-07
-0.00933013
3.04085e-06
1.07343e-06
-0.00933677
3.91601e-06
1.35403e-06
-0.00934528
5.09204e-06
1.68866e-06
-0.00935494
6.03021e-06
1.78977e-06
7.38187e-06
1.74832e-06
-0.00939702
-0.00939725
-0.00939751
-0.00939776
-0.00939799
-0.0093982
-0.00939841
-0.0093986
-0.00939877
-0.00939893
-0.00939905
-0.0093991
-0.00939902
-0.00939876
-0.00939826
-0.00939745
-0.00939631
-0.00939483
-0.00939299
-0.00939072
-0.00938786
-0.00938415
-0.00937931
-0.00937357
-0.00933166
-3.19577e-07
3.03413e-09
-0.00933139
-3.07465e-07
1.82107e-09
-0.00933112
-3.03606e-07
2.16196e-09
-0.00933088
-2.79239e-07
2.39281e-09
-0.00933065
-2.58349e-07
2.62876e-09
-0.00933045
-2.39706e-07
2.92412e-09
-0.00933026
-2.22759e-07
3.30827e-09
-0.00933008
-2.0552e-07
3.7607e-09
-0.00932993
-1.83466e-07
4.34635e-09
-0.0093298
-1.48037e-07
5.09936e-09
-0.00932973
-8.56203e-08
6.05031e-09
-0.00932976
2.10403e-08
6.82949e-09
-0.00932994
1.89455e-07
8.49604e-09
-0.00933035
4.29483e-07
1.04159e-08
-0.00933105
7.38536e-07
1.30333e-08
-0.00933209
1.09623e-06
1.66552e-08
-0.00933351
1.47521e-06
2.17393e-08
-0.00933531
1.85974e-06
2.89612e-08
-0.00933752
2.26393e-06
3.99727e-08
-0.00934023
2.743e-06
5.61197e-08
-0.00934359
3.38542e-06
8.1034e-08
-0.0093479
4.28295e-06
1.1382e-07
-0.00935336
5.37183e-06
1.5586e-07
-0.00935953
6.00974e-06
1.81511e-07
6.27574e-06
1.61435e-07
-0.00941082
-0.00941115
-0.00941147
-0.00941176
-0.00941203
-0.00941227
-0.0094125
-0.0094127
-0.00941288
-0.00941302
-0.00941309
-0.00941305
-0.00941282
-0.00941231
-0.00941143
-0.00941011
-0.00940829
-0.00940598
-0.00940312
-0.0093996
-0.00939521
-0.00938957
-0.00938239
-0.00937435
-0.00941083
3.13459e-07
-0.00941115
3.04214e-07
-0.00941147
2.9963e-07
-0.00941177
2.74925e-07
-0.00941203
2.53693e-07
-0.00941228
2.34628e-07
-0.0094125
2.17146e-07
-0.0094127
1.99306e-07
-0.00941288
1.76499e-07
-0.00941302
1.40147e-07
-0.00941309
7.66826e-08
-0.00941305
-3.08901e-08
-0.00941282
-2.01047e-07
-0.00941231
-4.4297e-07
-0.00941143
-7.54432e-07
-0.0094101
-1.11518e-06
-0.00940829
-1.49816e-06
-0.00940597
-1.88782e-06
-0.00940311
-2.29963e-06
-0.00939959
-2.78881e-06
-0.0093952
-3.45013e-06
-0.00938955
-4.37303e-06
-0.00938237
-5.49586e-06
-0.00937433
-6.15713e-06
-6.376e-06
-0.00933167
-0.0093314
-0.00933113
-0.00933089
-0.00933067
-0.00933046
-0.00933027
-0.00933009
-0.00932994
-0.00932981
-0.00932975
-0.00932977
-0.00932995
-0.00933036
-0.00933106
-0.0093321
-0.00933352
-0.00933532
-0.00933754
-0.00934024
-0.0093436
-0.00934791
-0.00935337
-0.00935955
)
;

boundaryField
{
    outletCentralUnloaded
    {
        type            calculated;
        value           nonuniform List<scalar> 2(0.00584957 0.00584957);
    }
    inletCentralUnloaded
    {
        type            calculated;
        value           nonuniform List<scalar> 2(-0.00587369 -0.00587369);
    }
    outletFuelElement
    {
        type            calculated;
        value           nonuniform List<scalar> 
12
(
0.00939644
0.00931342
0.00941055
0.00933194
0.00933195
0.00941056
0.00931342
0.00939644
0.00933194
0.00941055
0.00941056
0.00933195
)
;
    }
    inletFuelElement
    {
        type            calculated;
        value           nonuniform List<scalar> 
12
(
-0.00953894
-0.00953894
-0.00953893
-0.00953893
-0.00953894
-0.00953894
-0.00953894
-0.00953894
-0.00953893
-0.00953893
-0.00953894
-0.00953894
)
;
    }
    defaultFaces
    {
        type            calculated;
        value           nonuniform List<scalar> 
450
(
2.81544e-25
-2.62852e-23
0
1.04124e-23
-1.74299e-24
0
8.25443e-24
3.01179e-24
0
-1.83398e-23
-1.48417e-23
0
-1.07595e-23
-2.33976e-23
0
-2.16078e-23
-8.83458e-24
0
-1.8916e-23
-6.7134e-24
0
-1.56508e-23
-1.06671e-23
0
-1.56269e-23
-5.94199e-24
0
-1.54511e-23
-6.81107e-24
0
-8.4156e-24
-7.8883e-25
0
-3.01775e-24
-2.08777e-24
0
5.65861e-24
4.48796e-24
0
1.75424e-23
9.65381e-24
0
3.39018e-23
2.02977e-23
0
6.56995e-23
2.66452e-23
0
6.55893e-23
-1.04111e-23
0
1.0948e-22
7.24479e-23
0
6.04442e-23
-4.02996e-23
0
-2.99834e-23
-6.99642e-23
0
-8.38655e-23
-4.69307e-23
0
1.5815e-22
-7.71928e-23
0
-1.24919e-22
7.30999e-23
0
-2.2699e-22
-1.0393e-22
0
-2.05334e-22
-2.34276e-22
0
1.01801e-23
0
7.53938e-24
0
-3.86373e-24
0
3.98591e-24
0
-4.13913e-24
0
8.65481e-24
0
4.55618e-24
0
7.24902e-24
0
-2.58328e-24
0
6.96344e-24
0
3.03128e-24
0
-1.24977e-24
0
-5.55852e-24
0
-1.25161e-23
0
-2.85725e-23
0
-3.31112e-23
0
9.10381e-23
0
-3.12219e-23
0
7.65225e-23
0
-1.4399e-22
0
-9.26998e-23
0
2.8622e-22
0
1.10692e-22
0
-2.25004e-22
0
-2.88282e-22
0
-7.29773e-24
-7.43046e-24
3.80742e-24
0
4.07786e-24
-8.52583e-24
-4.48784e-24
-2.37988e-24
5.08821e-24
0
-1.49249e-24
0
7.2985e-24
0
0
2.17551e-23
-7.69477e-23
3.08101e-23
-3.77909e-23
4.74597e-23
6.11929e-23
-1.6223e-22
-1.10036e-22
-1.49496e-22
0
0
0
0
0
0
0
0
0
0
0
0
0
0
0
0
0
0
0
0
0
0
0
0
0
0
-6.47821e-24
7.40367e-24
-3.76969e-24
1.50788e-23
7.72745e-24
1.93186e-23
-7.97181e-24
-7.97181e-24
8.27825e-24
-4.13912e-24
-6.49111e-24
-6.49111e-24
-9.11234e-24
-6.83426e-24
-7.24901e-24
-7.24901e-24
1.29164e-23
0
-2.78537e-24
-2.78537e-24
-2.27346e-24
-1.51564e-24
8.33182e-25
1.56222e-24
7.41135e-24
5.55851e-24
1.2516e-23
8.34403e-24
2.85725e-23
1.90483e-23
2.20741e-23
4.41481e-23
-1.30054e-23
5.20217e-23
6.24437e-23
4.68328e-23
-1.53045e-22
1.33914e-22
-9.59935e-23
-9.59935e-23
0
-1.54499e-22
-2.45331e-22
2.04442e-22
-5.53459e-23
-1.66038e-22
-7.50012e-23
-2.62504e-22
-2.88282e-22
-9.60939e-23
1.13927e-23
0
0
1.66902e-24
0
0
8.49149e-24
0
-2.31235e-23
-2.54856e-23
0
7.95145e-24
1.06126e-23
0
-4.12851e-24
-2.55116e-23
0
8.63252e-24
-2.4848e-23
0
4.5444e-24
-1.97864e-23
0
0
-9.50352e-24
0
-1.54594e-23
-1.84763e-23
0
2.77813e-24
-1.26141e-23
0
6.0468e-24
-5.08203e-24
0
8.31023e-25
7.92736e-24
-0
-1.84807e-24
2.59661e-23
-0
0
4.3209e-23
-0
0
8.39961e-23
-0
-3.30314e-23
6.2859e-23
-0
2.5951e-23
1.70049e-22
-0
0
7.83073e-23
-0
-3.81843e-23
-2.96927e-23
-0
9.58192e-23
-3.36336e-23
-0
0
1.55132e-22
-0
1.63343e-22
-1.90856e-22
-0
1.10588e-22
-5.9908e-23
-0
1.49921e-22
-2.12121e-22
-0
1.92155e-22
0
-1.11457e-23
0
-3.92735e-24
4.07786e-24
0
-4.48784e-24
-9.51953e-24
-5.08821e-24
-2.74295e-24
-2.98498e-24
2.05113e-25
3.64925e-24
8.21812e-24
9.38282e-24
2.17551e-23
-2.56492e-23
3.08101e-23
-1.13373e-22
-4.74597e-23
0
-1.6223e-22
-1.10036e-22
0
0
1.01801e-23
0
7.53938e-24
0
0
0
5.97886e-24
0
-8.27825e-24
0
6.49111e-24
0
6.83426e-24
0
3.62451e-24
0
0
0
5.57075e-24
0
2.27346e-24
0
8.33182e-25
0
-3.70568e-24
-0
-8.34404e-24
-0
-1.90483e-23
-0
-3.31112e-23
-0
5.20218e-23
-0
-6.24438e-23
-0
1.53045e-22
-0
-1.4399e-22
-0
-1.236e-22
-0
2.04442e-22
-0
1.10692e-22
-0
-1.50002e-22
-0
-1.92188e-22
-0
-1.15682e-23
3.70184e-24
-1.13091e-23
7.53938e-24
-7.72745e-24
7.72745e-24
-5.97886e-24
-2.19225e-23
2.06956e-24
6.20869e-24
-4.3274e-24
-1.94733e-23
-2.27809e-24
-1.59466e-23
-6.04084e-24
-1.4498e-23
1.29164e-24
-7.74985e-24
-4.17806e-24
-8.35612e-24
-1.32619e-24
-4.54692e-24
0
4.99909e-24
0
1.85284e-23
8.34403e-24
3.75481e-23
1.90483e-23
5.71449e-23
1.1037e-23
8.82963e-23
2.60108e-23
6.50271e-23
0
1.56109e-22
-3.82612e-23
9.56529e-23
-4.79967e-23
-9.59935e-23
0
-9.26997e-23
4.08884e-23
2.45331e-22
1.66038e-22
-1.66038e-22
0
-1.87503e-22
-9.60939e-23
-1.92188e-22
-0
-0
-0
-0
-0
-0
-0
-0
-0
-0
-0
0
0
0
0
0
0
0
0
0
0
0
0
0
0
)
;
    }
    baffle_master
    {
        type            calculated;
        value           nonuniform List<scalar> 
150
(
5.13827e-30
0
-6.21152e-29
-2.81885e-30
0
-7.76503e-30
-2.85833e-29
0
0
3.50456e-29
0
1.24261e-28
-2.55795e-28
0
-1.24271e-28
-2.52329e-29
0
0
-5.09467e-29
0
-1.24292e-28
-1.2273e-29
0
-1.24302e-28
-7.92278e-29
0
0
1.07205e-30
0
0
1.18478e-29
0
0
1.28502e-28
0
0
4.24421e-29
0
2.48708e-28
-6.3334e-32
0
6.21821e-29
4.48418e-29
0
0
2.02218e-29
0
1.24385e-28
-8.20604e-28
0
-4.9758e-28
-5.50805e-29
0
0
-4.32774e-29
0
-2.33279e-29
2.49261e-30
0
6.2213e-29
5.17978e-29
0
0
-1.007e-28
0
-6.22233e-29
-1.27218e-30
0
0
5.72954e-30
0
-7.77918e-30
-1.56514e-30
0
0
0
1.61478e-28
-0
-1.55301e-29
1.4043e-29
-0
0
-1.81605e-28
0
1.24261e-28
-1.60079e-28
0
0
7.22157e-29
0
-3.10703e-29
4.32156e-29
-0
-1.24292e-28
3.10509e-28
-0
0
3.51312e-28
-0
1.24312e-28
1.47576e-28
-0
3.10807e-29
-3.47953e-29
0
0
-3.50799e-28
0
2.48687e-28
-4.10038e-28
0
1.24354e-28
-3.52244e-28
0
0
-1.33731e-28
0
-6.21873e-29
1.74663e-28
-0
-2.48769e-28
2.00857e-28
-0
3.73185e-28
3.72061e-28
-0
0
2.08774e-28
-0
1.55519e-29
-1.03936e-29
-0
0
5.85464e-29
0
0
2.87812e-29
0
-6.22233e-29
1.17122e-28
0
7.77855e-30
8.53234e-30
-0
7.77918e-30
-6.32817e-30
-0
0
1.54333e-29
0
)
;
    }
    baffle_slave
    {
        type            calculated;
        value           nonuniform List<scalar> 
150
(
1.13637e-24
-0
0
5.78493e-25
-0
0
-2.25273e-24
-0
-3.80742e-24
3.66883e-25
-0
3.92735e-24
-1.28246e-23
-0
-4.07786e-24
-5.30935e-25
-0
4.26291e-24
-3.63304e-24
-0
-4.48784e-24
3.55667e-24
-0
2.37988e-24
9.50495e-25
-0
0
-1.02476e-24
-0
2.74295e-24
3.71719e-25
-0
0
1.22603e-24
0
0
0
0
0
-2.04683e-24
0
8.21812e-24
2.33703e-24
0
0
-3.38697e-24
0
0
-7.90761e-23
0
-5.12985e-23
1.43944e-23
0
3.08101e-23
-6.8284e-23
0
-1.13373e-22
8.87356e-24
0
0
-2.47978e-23
0
0
1.82133e-22
0
1.6223e-22
0
0
0
1.40033e-23
0
0
4.49889e-23
0
0
-4.2593e-24
2.09234e-23
0
1.38522e-24
6.94192e-24
0
-4.09303e-25
8.89234e-24
0
-5.36139e-24
5.74783e-24
0
4.53162e-24
-1.38404e-23
0
-7.0454e-24
5.30935e-24
0
-9.23961e-25
6.84689e-24
0
-3.5654e-24
6.37236e-24
0
4.40542e-24
6.0198e-24
0
-1.37083e-24
6.91712e-24
0
-3.04208e-24
4.27477e-24
0
3.74297e-25
3.88243e-24
0
2.01367e-25
-6.81653e-25
0
7.54761e-24
-8.82694e-24
0
7.71791e-24
-1.48255e-23
0
2.29452e-23
-2.04912e-23
0
-4.83243e-23
-2.37628e-23
0
5.58228e-23
-3.59861e-23
0
-4.54644e-23
-5.88655e-25
0
1.05774e-23
4.43678e-23
0
1.6094e-23
4.0058e-23
0
-2.4628e-22
1.44189e-22
0
-2.16051e-22
-1.37337e-22
0
-3.81053e-23
8.40197e-23
0
-3.07721e-23
1.6196e-22
0
)
;
    }
}


// ************************************************************************* //
