/*--------------------------------*- C++ -*----------------------------------*\
| =========                 |                                                 |
| \\      /  F ield         | OpenFOAM: The Open Source CFD Toolbox           |
|  \\    /   O peration     | Version:  2212                                  |
|   \\  /    A nd           | Website:  www.openfoam.com                      |
|    \\/     M anipulation  |                                                 |
\*---------------------------------------------------------------------------*/
FoamFile
{
    version     2.0;
    format      ascii;
    arch        "LSB;label=32;scalar=64";
    class       volScalarField;
    location    "78/fluidRegion";
    object      T.fuelAvForNeutronics;
}
// * * * * * * * * * * * * * * * * * * * * * * * * * * * * * * * * * * * * * //

dimensions      [0 0 0 1 0 0 0];

internalField   nonuniform List<scalar> 
350
(
0
0
0
0
0
0
0
0
0
0
0
0
0
0
0
0
0
0
0
0
0
0
0
0
0
0
0
0
0
0
0
0
0
0
0
0
0
0
0
0
0
0
0
0
0
0
0
0
0
0
2223.26
3010.29
3766.62
4480.7
5141.6
5739.15
6264.15
6708.49
7065.28
7329
7495.55
7562.36
7528.42
7394.32
7162.23
6835.87
6420.28
5921.62
5346.63
4702.14
3993.85
3225.14
2395.62
1504.29
564.352
2256.03
3052.26
3817.35
4539.63
5208.04
5812.3
6343.09
6792.22
7152.74
7419.04
7587.01
7654.03
7619.08
7482.78
7247.32
6916.47
6495.38
5990.31
5408.13
4755.81
4039.13
3261.51
2422.47
1520.82
569.899
2217.95
3003.53
3758.48
4471.28
5131.01
5727.51
6251.6
6695.19
7051.4
7314.72
7481.06
7547.85
7514.07
7380.32
7148.77
6823.12
6408.41
5910.76
5336.91
4693.66
3986.71
3219.42
2391.41
1501.71
563.478
2248.64
3042.73
3805.79
4526.17
5192.84
5795.54
6324.98
6773
7132.64
7398.34
7565.97
7632.94
7598.22
7462.41
7227.72
6897.91
6478.08
5974.48
5393.96
4743.44
4028.7
3253.13
2416.28
1517.01
568.621
2248.64
3042.73
3805.79
4526.17
5192.84
5795.54
6324.98
6773
7132.64
7398.34
7565.97
7632.94
7598.22
7462.41
7227.72
6897.91
6478.08
5974.48
5393.96
4743.44
4028.7
3253.13
2416.28
1517.01
568.621
2217.95
3003.54
3758.49
4471.29
5131.01
5727.51
6251.6
6695.19
7051.41
7314.73
7481.06
7547.85
7514.07
7380.32
7148.78
6823.12
6408.41
5910.76
5336.91
4693.66
3986.71
3219.42
2391.41
1501.71
563.478
2256.03
3052.26
3817.35
4539.63
5208.04
5812.3
6343.09
6792.22
7152.74
7419.04
7587.01
7654.03
7619.08
7482.77
7247.32
6916.47
6495.38
5990.31
5408.13
4755.81
4039.13
3261.52
2422.47
1520.82
569.899
2223.26
3010.29
3766.62
4480.7
5141.6
5739.15
6264.15
6708.49
7065.28
7329
7495.55
7562.36
7528.42
7394.32
7162.23
6835.87
6420.28
5921.62
5346.63
4702.14
3993.85
3225.14
2395.62
1504.29
564.352
2248.64
3042.73
3805.79
4526.17
5192.84
5795.54
6324.98
6773
7132.64
7398.34
7565.97
7632.94
7598.22
7462.41
7227.72
6897.91
6478.08
5974.48
5393.96
4743.44
4028.7
3253.13
2416.28
1517.01
568.621
2217.95
3003.53
3758.49
4471.28
5131
5727.51
6251.6
6695.19
7051.4
7314.72
7481.06
7547.85
7514.07
7380.32
7148.77
6823.12
6408.41
5910.76
5336.91
4693.66
3986.71
3219.42
2391.41
1501.71
563.478
2217.95
3003.54
3758.49
4471.28
5131.01
5727.51
6251.6
6695.19
7051.41
7314.73
7481.06
7547.85
7514.07
7380.32
7148.78
6823.12
6408.41
5910.76
5336.91
4693.66
3986.71
3219.42
2391.41
1501.71
563.478
2248.64
3042.73
3805.79
4526.17
5192.84
5795.54
6324.98
6773
7132.64
7398.34
7565.97
7632.94
7598.22
7462.41
7227.72
6897.91
6478.08
5974.48
5393.96
4743.44
4028.7
3253.13
2416.28
1517.01
568.621
)
;

boundaryField
{
    outletCentralUnloaded
    {
        type            zeroGradient;
    }
    inletCentralUnloaded
    {
        type            zeroGradient;
    }
    outletFuelElement
    {
        type            zeroGradient;
    }
    inletFuelElement
    {
        type            zeroGradient;
    }
    defaultFaces
    {
        type            zeroGradient;
    }
    baffle_master
    {
        type            zeroGradient;
    }
    baffle_slave
    {
        type            zeroGradient;
    }
}


// ************************************************************************* //
