/*--------------------------------*- C++ -*----------------------------------*\
| =========                 |                                                 |
| \\      /  F ield         | OpenFOAM: The Open Source CFD Toolbox           |
|  \\    /   O peration     | Version:  2212                                  |
|   \\  /    A nd           | Website:  www.openfoam.com                      |
|    \\/     M anipulation  |                                                 |
\*---------------------------------------------------------------------------*/
FoamFile
{
    version     2.0;
    format      ascii;
    arch        "LSB;label=32;scalar=64";
    class       volScalarField;
    location    "78/fluidRegion";
    object      Tci.nuclearFuelPin;
}
// * * * * * * * * * * * * * * * * * * * * * * * * * * * * * * * * * * * * * //

dimensions      [0 0 0 1 0 0 0];

internalField   nonuniform List<scalar> 
350
(
0
0
0
0
0
0
0
0
0
0
0
0
0
0
0
0
0
0
0
0
0
0
0
0
0
0
0
0
0
0
0
0
0
0
0
0
0
0
0
0
0
0
0
0
0
0
0
0
0
0
1851.99
1902.2
1939.18
1962.74
1972.83
1969.54
1953.16
1924.09
1882.94
1830.45
1767.5
1695.14
1614.57
1527.09
1434.17
1337.29
1237.92
1137.19
1035.62
932.485
825.028
707.105
568.131
396.169
193.011
1880.52
1931.48
1968.99
1992.84
2002.98
1999.51
1982.71
1953.02
1911.03
1857.5
1793.34
1719.6
1637.48
1548.34
1453.64
1354.91
1253.66
1151.08
1047.74
942.974
834.014
714.637
574.044
399.997
194.304
1847.36
1897.47
1934.39
1957.92
1968.02
1964.78
1948.47
1919.52
1878.52
1826.2
1763.46
1691.33
1611
1523.8
1431.16
1334.58
1235.5
1135.07
1033.76
930.888
823.668
705.977
567.257
395.609
192.813
1874.1
1924.88
1962.25
1986.01
1996.13
1992.69
1975.97
1946.41
1904.61
1851.3
1787.41
1713.98
1632.21
1543.45
1449.15
1350.85
1250.02
1147.87
1044.93
940.548
831.935
712.894
572.674
399.109
194.005
1874.1
1924.88
1962.25
1986.01
1996.13
1992.69
1975.97
1946.41
1904.61
1851.3
1787.41
1713.98
1632.21
1543.45
1449.15
1350.85
1250.02
1147.87
1044.93
940.548
831.935
712.894
572.674
399.109
194.005
1847.36
1897.47
1934.39
1957.92
1968.02
1964.78
1948.47
1919.52
1878.52
1826.2
1763.46
1691.33
1611
1523.8
1431.16
1334.58
1235.5
1135.07
1033.76
930.889
823.669
705.978
567.258
395.609
192.813
1880.52
1931.48
1968.99
1992.84
2002.97
1999.51
1982.71
1953.02
1911.03
1857.5
1793.34
1719.6
1637.48
1548.34
1453.64
1354.91
1253.66
1151.08
1047.74
942.974
834.014
714.637
574.044
399.997
194.304
1851.99
1902.2
1939.18
1962.74
1972.83
1969.54
1953.16
1924.09
1882.94
1830.45
1767.5
1695.14
1614.57
1527.09
1434.17
1337.29
1237.92
1137.19
1035.61
932.485
825.028
707.105
568.131
396.169
193.011
1874.1
1924.88
1962.25
1986.01
1996.13
1992.69
1975.97
1946.41
1904.61
1851.3
1787.41
1713.98
1632.21
1543.45
1449.15
1350.85
1250.02
1147.87
1044.93
940.549
831.935
712.894
572.674
399.109
194.005
1847.36
1897.47
1934.39
1957.92
1968.02
1964.78
1948.47
1919.52
1878.52
1826.2
1763.46
1691.33
1611
1523.8
1431.16
1334.58
1235.5
1135.07
1033.76
930.888
823.668
705.977
567.257
395.609
192.813
1847.36
1897.47
1934.39
1957.92
1968.02
1964.78
1948.47
1919.52
1878.52
1826.2
1763.46
1691.33
1611
1523.8
1431.16
1334.58
1235.5
1135.07
1033.76
930.889
823.669
705.977
567.258
395.609
192.813
1874.1
1924.88
1962.25
1986.01
1996.13
1992.69
1975.97
1946.41
1904.61
1851.3
1787.41
1713.98
1632.21
1543.45
1449.15
1350.85
1250.02
1147.87
1044.93
940.548
831.935
712.894
572.674
399.109
194.005
)
;

boundaryField
{
    outletCentralUnloaded
    {
        type            zeroGradient;
    }
    inletCentralUnloaded
    {
        type            zeroGradient;
    }
    outletFuelElement
    {
        type            zeroGradient;
    }
    inletFuelElement
    {
        type            zeroGradient;
    }
    defaultFaces
    {
        type            zeroGradient;
    }
    baffle_master
    {
        type            zeroGradient;
    }
    baffle_slave
    {
        type            zeroGradient;
    }
}


// ************************************************************************* //
