/*--------------------------------*- C++ -*----------------------------------*\
| =========                 |                                                 |
| \\      /  F ield         | OpenFOAM: The Open Source CFD Toolbox           |
|  \\    /   O peration     | Version:  2212                                  |
|   \\  /    A nd           | Website:  www.openfoam.com                      |
|    \\/     M anipulation  |                                                 |
\*---------------------------------------------------------------------------*/
FoamFile
{
    version     2.0;
    format      ascii;
    arch        "LSB;label=32;scalar=64";
    class       volScalarField;
    location    "78/fluidRegion";
    object      Tfi.nuclearFuelPin;
}
// * * * * * * * * * * * * * * * * * * * * * * * * * * * * * * * * * * * * * //

dimensions      [0 0 0 1 0 0 0];

internalField   nonuniform List<scalar> 
350
(
0
0
0
0
0
0
0
0
0
0
0
0
0
0
0
0
0
0
0
0
0
0
0
0
0
0
0
0
0
0
0
0
0
0
0
0
0
0
0
0
0
0
0
0
0
0
0
0
0
0
2425.49
3613.89
4762.07
5852.31
6867.73
7792.58
8612.5
9314.71
9888.28
10324.3
10615.8
10758.4
10749.9
10590.4
10282.5
9831.13
9243.3
8527.86
7694.99
6755.6
5720.01
4596.8
3391.11
2107.93
766.636
2460.58
3662.78
4824.21
5926.96
6953.95
7889.25
8718.34
9428.3
10008.1
10448.6
10743
10886.7
10877.5
10715.5
10403.3
9946.05
9350.73
8626.41
7783.39
6832.79
5785.07
4648.89
3429.37
2131.36
774.5
2419.81
3606.04
4752.13
5840.39
6853.99
7777.19
8595.66
9296.66
9869.25
10304.5
10595.6
10738.1
10729.7
10570.6
10263.4
9812.92
9226.28
8512.25
7680.99
6743.38
5709.72
4588.57
3385.09
2104.25
765.392
2452.65
3651.66
4810.03
5909.88
6934.19
7867.08
8694.04
9402.2
9980.53
10420
10713.8
10857.2
10848.1
10686.7
10375.5
9919.58
9325.99
8603.71
7763.03
6815.01
5770.08
4636.89
3420.55
2125.96
772.688
2452.65
3651.66
4810.03
5909.88
6934.19
7867.08
8694.04
9402.2
9980.53
10420
10713.8
10857.2
10848.1
10686.7
10375.5
9919.58
9325.99
8603.71
7763.03
6815.01
5770.08
4636.89
3420.55
2125.96
772.688
2419.81
3606.04
4752.13
5840.4
6853.99
7777.2
8595.66
9296.66
9869.25
10304.5
10595.6
10738.1
10729.7
10570.6
10263.4
9812.93
9226.28
8512.25
7680.99
6743.38
5709.72
4588.58
3385.09
2104.25
765.392
2460.58
3662.78
4824.21
5926.96
6953.95
7889.25
8718.34
9428.3
10008.1
10448.6
10743
10886.7
10877.5
10715.5
10403.3
9946.05
9350.73
8626.4
7783.39
6832.79
5785.07
4648.89
3429.37
2131.36
774.5
2425.49
3613.89
4762.08
5852.31
6867.73
7792.58
8612.5
9314.71
9888.28
10324.3
10615.8
10758.4
10749.9
10590.4
10282.5
9831.13
9243.3
8527.86
7694.99
6755.6
5720.01
4596.8
3391.12
2107.93
766.636
2452.65
3651.66
4810.03
5909.88
6934.19
7867.08
8694.04
9402.2
9980.53
10420
10713.8
10857.2
10848.1
10686.7
10375.5
9919.58
9325.99
8603.71
7763.03
6815.01
5770.08
4636.89
3420.55
2125.96
772.688
2419.81
3606.04
4752.13
5840.39
6853.99
7777.2
8595.66
9296.66
9869.25
10304.5
10595.6
10738.1
10729.7
10570.6
10263.4
9812.92
9226.28
8512.25
7680.99
6743.38
5709.72
4588.58
3385.09
2104.25
765.392
2419.81
3606.04
4752.13
5840.39
6853.99
7777.2
8595.66
9296.66
9869.25
10304.5
10595.6
10738.1
10729.7
10570.6
10263.4
9812.92
9226.28
8512.25
7680.99
6743.38
5709.72
4588.58
3385.09
2104.25
765.392
2452.65
3651.66
4810.03
5909.88
6934.19
7867.08
8694.04
9402.2
9980.53
10420
10713.8
10857.2
10848.1
10686.7
10375.5
9919.58
9325.99
8603.71
7763.03
6815.01
5770.08
4636.89
3420.55
2125.96
772.688
)
;

boundaryField
{
    outletCentralUnloaded
    {
        type            zeroGradient;
    }
    inletCentralUnloaded
    {
        type            zeroGradient;
    }
    outletFuelElement
    {
        type            zeroGradient;
    }
    inletFuelElement
    {
        type            zeroGradient;
    }
    defaultFaces
    {
        type            zeroGradient;
    }
    baffle_master
    {
        type            zeroGradient;
    }
    baffle_slave
    {
        type            zeroGradient;
    }
}


// ************************************************************************* //
