/*--------------------------------*- C++ -*----------------------------------*\
| =========                 |                                                 |
| \\      /  F ield         | OpenFOAM: The Open Source CFD Toolbox           |
|  \\    /   O peration     | Version:  2212                                  |
|   \\  /    A nd           | Website:  www.openfoam.com                      |
|    \\/     M anipulation  |                                                 |
\*---------------------------------------------------------------------------*/
FoamFile
{
    version     2.0;
    format      ascii;
    arch        "LSB;label=32;scalar=64";
    class       volScalarField;
    location    "78/fluidRegion";
    object      Tfo.nuclearFuelPin;
}
// * * * * * * * * * * * * * * * * * * * * * * * * * * * * * * * * * * * * * //

dimensions      [0 0 0 1 0 0 0];

internalField   nonuniform List<scalar> 
350
(
0
0
0
0
0
0
0
0
0
0
0
0
0
0
0
0
0
0
0
0
0
0
0
0
0
0
0
0
0
0
0
0
0
0
0
0
0
0
0
0
0
0
0
0
0
0
0
0
0
0
2022.81
2412.02
2779.96
3121.22
3430.74
3703.89
3936.58
4125.32
4267.26
4360.25
4402.89
4394.57
4335.44
4226.52
4069.56
3867.11
3622.25
3338.44
3019.05
2666.85
2282.95
1865.62
1408.93
906.001
363.859
2053.29
2447.14
2819.39
3164.58
3477.58
3753.72
3988.86
4179.47
4322.67
4416.29
4458.92
4449.94
4389.53
4278.69
4119.22
3913.7
3665.3
3377.54
3053.89
2697.2
2308.64
1886.42
1424.48
915.669
367.11
2017.86
2406.36
2773.63
3114.28
3423.26
3695.96
3928.28
4116.74
4258.49
4351.39
4394.04
4385.83
4326.92
4218.3
4061.75
3859.78
3615.48
3332.29
3013.58
2662.09
2278.94
1862.37
1406.52
904.511
363.35
2046.43
2439.19
2810.44
3154.71
3466.89
3742.33
3976.89
4167.06
4309.95
4403.42
4446.04
4437.21
4377.08
4266.68
4107.79
3902.97
3655.38
3368.52
3045.86
2690.2
2302.72
1881.62
1420.89
913.437
366.36
2046.43
2439.19
2810.44
3154.71
3466.89
3742.33
3976.89
4167.06
4309.95
4403.42
4446.04
4437.21
4377.08
4266.67
4107.79
3902.97
3655.38
3368.52
3045.86
2690.2
2302.72
1881.62
1420.89
913.437
366.36
2017.87
2406.36
2773.63
3114.29
3423.26
3695.96
3928.28
4116.74
4258.49
4351.39
4394.05
4385.83
4326.92
4218.3
4061.75
3859.78
3615.48
3332.29
3013.58
2662.09
2278.94
1862.37
1406.52
904.511
363.35
2053.29
2447.14
2819.39
3164.58
3477.58
3753.72
3988.86
4179.47
4322.67
4416.29
4458.92
4449.94
4389.53
4278.69
4119.22
3913.7
3665.3
3377.54
3053.89
2697.2
2308.64
1886.42
1424.48
915.669
367.11
2022.81
2412.02
2779.96
3121.22
3430.74
3703.89
3936.58
4125.32
4267.26
4360.25
4402.89
4394.57
4335.44
4226.52
4069.56
3867.11
3622.25
3338.44
3019.05
2666.85
2282.95
1865.62
1408.93
906.001
363.859
2046.43
2439.19
2810.44
3154.71
3466.89
3742.33
3976.89
4167.06
4309.95
4403.42
4446.04
4437.21
4377.08
4266.68
4107.79
3902.97
3655.38
3368.52
3045.86
2690.2
2302.72
1881.62
1420.89
913.437
366.36
2017.86
2406.36
2773.63
3114.28
3423.26
3695.96
3928.28
4116.74
4258.49
4351.39
4394.04
4385.83
4326.92
4218.3
4061.75
3859.78
3615.48
3332.29
3013.58
2662.09
2278.94
1862.37
1406.52
904.511
363.35
2017.87
2406.36
2773.63
3114.28
3423.26
3695.96
3928.28
4116.74
4258.49
4351.39
4394.05
4385.83
4326.92
4218.3
4061.75
3859.78
3615.48
3332.29
3013.58
2662.09
2278.94
1862.37
1406.52
904.511
363.35
2046.43
2439.19
2810.44
3154.71
3466.89
3742.33
3976.89
4167.05
4309.95
4403.42
4446.04
4437.21
4377.08
4266.67
4107.79
3902.97
3655.38
3368.52
3045.86
2690.2
2302.72
1881.62
1420.89
913.437
366.36
)
;

boundaryField
{
    outletCentralUnloaded
    {
        type            zeroGradient;
    }
    inletCentralUnloaded
    {
        type            zeroGradient;
    }
    outletFuelElement
    {
        type            zeroGradient;
    }
    inletFuelElement
    {
        type            zeroGradient;
    }
    defaultFaces
    {
        type            zeroGradient;
    }
    baffle_master
    {
        type            zeroGradient;
    }
    baffle_slave
    {
        type            zeroGradient;
    }
}


// ************************************************************************* //
