/*--------------------------------*- C++ -*----------------------------------*\
| =========                 |                                                 |
| \\      /  F ield         | OpenFOAM: The Open Source CFD Toolbox           |
|  \\    /   O peration     | Version:  2212                                  |
|   \\  /    A nd           | Website:  www.openfoam.com                      |
|    \\/     M anipulation  |                                                 |
\*---------------------------------------------------------------------------*/
FoamFile
{
    version     2.0;
    format      ascii;
    arch        "LSB;label=32;scalar=64";
    class       scalarFieldField;
    location    "78/fluidRegion";
    object      Trad.nuclearFuelPin;
}
// * * * * * * * * * * * * * * * * * * * * * * * * * * * * * * * * * * * * * //


350
(
0()
0()
0()
0()
0()
0()
0()
0()
0()
0()
0()
0()
0()
0()
0()
0()
0()
0()
0()
0()
0()
0()
0()
0()
0()
0()
0()
0()
0()
0()
0()
0()
0()
0()
0()
0()
0()
0()
0()
0()
0()
0()
0()
0()
0()
0()
0()
0()
0()
0()

20
(
2425.49
2423.7
2418.33
2409.38
2396.85
2380.75
2361.06
2337.8
2310.95
2280.53
2246.52
2208.94
2167.78
2123.03
2074.71
2022.81
1851.99
1847.92
1843.99
1840.18
)


20
(
3613.89
3608.55
3592.53
3565.82
3528.43
3480.35
3421.6
3352.16
3272.03
3181.22
3079.73
2967.56
2844.7
2711.16
2566.93
2412.02
1902.2
1890.06
1878.31
1866.93
)


20
(
4762.07
4753.26
4726.84
4682.79
4621.12
4541.84
4444.94
4330.42
4198.28
4048.52
3881.14
3696.14
3493.53
3273.29
3035.43
2779.96
1939.18
1919.16
1899.78
1881.02
)


20
(
5852.31
5840.17
5803.76
5743.07
5658.1
5548.86
5415.34
5257.54
5075.47
4869.12
4638.5
4383.6
4104.42
3800.96
3473.23
3121.22
1962.74
1935.15
1908.45
1882.6
)


20
(
6867.73
6852.46
6806.63
6730.25
6623.33
6485.85
6317.82
6119.23
5890.1
5630.42
5340.18
5019.4
4668.06
4286.17
3873.73
3430.74
1972.83
1938.1
1904.5
1871.97
)


20
(
7792.58
7774.41
7719.9
7629.04
7501.83
7338.29
7138.4
6902.16
6629.58
6320.66
5975.39
5593.78
5175.82
4721.52
4230.88
3703.89
1969.54
1928.23
1888.26
1849.56
)


20
(
8612.5
8591.71
8529.37
8425.46
8279.99
8092.95
7864.35
7594.19
7282.46
6929.17
6534.32
6097.9
5619.92
5100.37
4539.26
3936.58
1953.16
1905.91
1860.2
1815.93
)


20
(
9314.71
9291.64
9222.45
9107.13
8945.69
8738.11
8484.41
8184.58
7838.62
7446.53
7008.32
6523.98
5993.51
5416.91
4794.18
4125.32
1924.09
1871.66
1820.93
1771.8
)


20
(
9888.28
9863.3
9788.35
9663.44
9488.56
9263.72
8988.92
8664.15
8289.41
7864.72
7390.05
6865.42
6290.83
5666.27
4991.75
4267.26
1882.94
1826.15
1771.2
1717.99
)


20
(
10324.3
10297.7
10218.2
10085.7
9900.15
9661.59
9370.01
9025.43
8627.83
8177.22
7673.59
7116.95
6507.29
5844.63
5128.95
4360.25
1830.45
1770.18
1711.89
1655.43
)


20
(
10615.8
10588.2
10505.4
10367.3
10174
9925.5
9621.76
9262.79
8848.59
8379.17
7854.52
7274.65
6639.55
5949.23
5203.67
4402.89
1767.5
1704.72
1643.99
1585.17
)


20
(
10758.4
10730.2
10645.3
10503.9
10305.9
10051.3
9740.22
9372.53
8948.27
8467.45
7930.06
7336.09
6685.56
5978.47
5214.8
4394.57
1695.14
1630.84
1568.63
1508.39
)


20
(
10749.9
10721.4
10635.9
10493.3
10293.8
10037.2
9723.59
9352.98
8925.35
8440.7
7899.04
7300.35
6644.65
5931.93
5162.2
4335.44
1614.57
1549.75
1487.05
1426.33
)


20
(
10590.4
10562.1
10477.3
10335.8
10137.9
9883.3
9572.18
9204.49
8780.23
8299.4
7762.01
7168.05
6517.52
5810.42
5046.75
4226.52
1527.09
1462.79
1400.58
1340.34
)


20
(
10282.5
10254.9
10172.1
10034
9840.7
9592.18
9288.44
8929.47
8515.27
8045.85
7521.2
6941.33
6306.23
5615.9
4870.35
4069.56
1434.17
1371.39
1310.65
1251.84
)


20
(
9831.13
9804.62
9725.1
9592.57
9407.02
9168.46
8876.89
8532.3
8134.7
7684.08
7180.46
6623.81
6014.16
5351.49
4635.8
3867.11
1337.29
1277.03
1218.73
1162.27
)


20
(
9243.3
9218.31
9143.37
9018.46
8843.58
8618.74
8343.93
8019.16
7644.42
7219.72
6745.06
6220.42
5645.83
5021.27
4346.74
3622.25
1237.92
1181.12
1126.18
1072.96
)


20
(
8527.86
8504.8
8435.6
8320.28
8158.84
7951.26
7697.55
7397.72
7051.76
6659.67
6221.45
5737.11
5206.63
4630.03
4007.3
3338.44
1137.19
1084.76
1034.03
984.903
)


20
(
7694.99
7674.2
7611.86
7507.95
7362.47
7175.44
6946.84
6676.67
6364.94
6011.65
5616.79
5180.37
4702.39
4182.84
3621.73
3019.05
1035.62
988.367
942.659
898.393
)


20
(
6755.6
6737.42
6682.91
6592.05
6464.84
6301.29
6101.4
5865.16
5592.58
5283.65
4938.38
4556.76
4138.8
3684.49
3193.84
2666.85
932.485
891.171
851.203
812.495
)


20
(
5720.01
5704.74
5658.91
5582.53
5475.6
5338.12
5170.08
4971.5
4742.36
4482.67
4192.43
3871.64
3520.3
3138.4
2725.95
2282.95
825.028
790.299
756.701
724.163
)


20
(
4596.8
4584.66
4548.24
4487.55
4402.58
4293.33
4159.81
4002.01
3819.93
3613.57
3382.94
3128.03
2848.84
2545.38
2217.63
1865.62
707.105
679.508
652.81
626.955
)


20
(
3391.11
3382.31
3355.88
3311.83
3250.16
3170.87
3073.97
2959.44
2827.29
2677.53
2510.15
2325.14
2122.52
1902.28
1664.41
1408.93
568.131
548.102
528.726
509.961
)


20
(
2107.93
2102.59
2086.56
2059.85
2022.46
1974.38
1915.62
1846.18
1766.05
1675.23
1573.74
1461.56
1338.7
1205.15
1060.92
906.001
396.169
384.025
372.276
360.897
)


20
(
766.636
764.846
759.475
750.525
737.994
721.883
702.191
678.92
652.068
621.636
587.624
550.031
508.859
464.106
415.773
363.859
193.011
188.941
185.004
181.191
)


20
(
2460.58
2458.77
2453.34
2444.29
2431.62
2415.33
2395.42
2371.89
2344.73
2313.96
2279.57
2241.55
2199.92
2154.66
2105.79
2053.29
1880.52
1876.4
1872.42
1868.57
)


20
(
3662.78
3657.38
3641.17
3614.15
3576.34
3527.71
3468.28
3398.04
3317
3225.15
3122.5
3009.04
2884.77
2749.7
2603.82
2447.14
1931.48
1919.2
1907.32
1895.81
)


20
(
4824.21
4815.3
4788.57
4744.02
4681.65
4601.46
4503.44
4387.61
4253.96
4102.48
3933.19
3746.07
3541.13
3318.37
3077.79
2819.39
1968.99
1948.73
1929.13
1910.15
)


20
(
5926.96
5914.68
5877.85
5816.46
5730.52
5620.03
5484.98
5325.38
5141.22
4932.51
4699.24
4441.42
4159.04
3852.11
3520.62
3164.58
1992.84
1964.92
1937.92
1911.77
)


20
(
6953.95
6938.5
6892.15
6814.89
6706.74
6567.69
6397.73
6196.88
5965.12
5702.46
5408.9
5084.44
4729.08
4342.81
3925.65
3477.58
2002.98
1967.85
1933.87
1900.96
)


20
(
7889.25
7870.87
7815.73
7723.83
7595.17
7429.75
7227.57
6988.63
6712.93
6400.46
6051.24
5665.26
5242.52
4783.01
4286.75
3753.72
1999.51
1957.72
1917.3
1878.15
)


20
(
8718.34
8697.32
8634.26
8529.16
8382.02
8192.84
7961.62
7688.36
7373.07
7015.73
6616.35
6174.93
5691.48
5165.98
4598.44
3988.86
1982.71
1934.93
1888.69
1843.92
)


20
(
9428.3
9404.97
9334.99
9218.34
9055.05
8845.1
8588.49
8285.22
7935.3
7538.72
7095.49
6605.6
6069.05
5485.85
4855.99
4179.47
1953.02
1899.99
1848.68
1798.99
)


20
(
10008.1
9982.8
9907
9780.65
9603.78
9376.36
9098.41
8769.92
8390.89
7961.33
7481.23
6950.59
6369.41
5737.7
5055.45
4322.67
1911.03
1853.59
1798.01
1744.19
)


20
(
10448.6
10421.8
10341.4
10207.3
10019.6
9778.35
9483.44
9134.9
8732.75
8276.97
7767.58
7204.56
6587.92
5917.67
5193.79
4416.29
1857.5
1796.55
1737.58
1680.48
)


20
(
10743
10715.1
10631.3
10491.7
10296.2
10044.8
9737.57
9374.48
8955.54
8480.75
7950.09
7363.57
6721.2
6022.97
5268.87
4458.92
1793.34
1729.84
1668.41
1608.92
)


20
(
10886.7
10858.1
10772.3
10629.2
10429
10171.5
9856.83
9484.93
9055.81
8569.48
8025.93
7425.16
6767.18
6051.99
5279.57
4449.94
1719.6
1654.56
1591.64
1530.7
)


20
(
10877.5
10848.6
10762.1
10617.9
10416.1
10156.6
9839.4
9464.54
9032.01
8541.81
7993.94
7388.4
6725.19
6004.31
5225.75
4389.53
1637.48
1571.93
1508.51
1447.09
)


20
(
10715.5
10686.9
10601
10458
10257.7
10000.3
9685.58
9313.68
8884.56
8398.23
7854.68
7253.91
6595.93
5880.73
5108.32
4278.69
1548.34
1483.3
1420.38
1359.44
)


20
(
10403.3
10375.4
10291.6
10152
9956.47
9705.1
9397.88
9034.8
8615.86
8141.06
7610.4
7023.88
6381.51
5683.27
4929.18
4119.22
1453.64
1390.14
1328.71
1269.22
)


20
(
9946.05
9919.23
9838.8
9704.75
9517.08
9275.79
8980.87
8632.34
8230.18
7774.4
7265.01
6701.99
6085.35
5415.09
4691.21
3913.7
1354.91
1293.96
1234.99
1177.88
)


20
(
9350.73
9325.47
9249.66
9123.32
8946.44
8719.02
8441.07
8112.57
7733.55
7303.98
6823.88
6293.23
5712.06
5080.34
4398.09
3665.3
1253.66
1196.21
1140.63
1086.81
)


20
(
8626.41
8603.08
8533.09
8416.45
8253.15
8043.2
7786.59
7483.32
7133.4
6736.81
6293.58
5803.68
5267.13
4683.92
4054.06
3377.54
1151.08
1098.04
1046.73
997.042
)


20
(
7783.39
7762.37
7699.31
7594.21
7447.07
7257.89
7026.67
6753.41
6438.11
6080.77
5681.39
5239.97
4756.51
4231.01
3663.47
3053.89
1047.74
999.947
953.716
908.943
)


20
(
6832.79
6814.41
6759.27
6667.37
6538.7
6373.28
6171.1
5932.15
5656.45
5343.98
4994.75
4608.76
4186.01
3726.5
3230.23
2697.2
942.974
901.186
860.76
821.609
)


20
(
5785.07
5769.62
5723.27
5646.01
5537.86
5398.8
5228.84
5027.98
4796.22
4533.56
4239.99
3915.52
3560.16
3173.89
2756.71
2308.64
834.014
798.886
764.904
731.993
)


20
(
4648.89
4636.61
4599.78
4538.39
4452.45
4341.95
4206.89
4047.28
3863.12
3654.4
3421.12
3163.29
2880.91
2573.97
2242.47
1886.42
714.637
686.724
659.72
633.569
)


20
(
3429.37
3420.45
3393.72
3349.17
3286.8
3206.6
3108.58
2992.75
2859.09
2707.61
2538.3
2351.18
2146.24
1923.47
1682.88
1424.48
574.044
553.786
534.188
515.208
)


20
(
2131.36
2125.96
2109.75
2082.74
2044.91
1996.29
1936.85
1866.61
1785.57
1693.71
1591.06
1477.59
1353.32
1218.24
1072.36
915.669
399.997
387.713
375.83
364.321
)


20
(
774.5
772.689
767.257
758.204
745.53
729.234
709.317
685.779
658.62
627.839
593.437
555.414
513.77
468.504
419.617
367.11
194.304
190.187
186.205
182.349
)


20
(
2419.81
2418.02
2412.66
2403.73
2391.23
2375.15
2355.5
2332.28
2305.48
2275.11
2241.17
2203.66
2162.57
2117.91
2069.67
2017.86
1847.36
1843.3
1839.37
1835.56
)


20
(
3606.04
3600.71
3584.71
3558.05
3520.73
3472.74
3414.09
3344.78
3264.8
3174.16
3072.85
2960.88
2838.25
2704.95
2560.98
2406.36
1897.47
1885.35
1873.62
1862.26
)


20
(
4752.13
4743.33
4716.95
4672.99
4611.44
4532.3
4435.57
4321.26
4189.36
4039.87
3872.8
3688.14
3485.89
3266.06
3028.64
2773.63
1934.39
1914.4
1895.05
1876.32
)


20
(
5840.39
5828.28
5791.93
5731.35
5646.54
5537.49
5404.22
5246.71
5064.97
4859
4628.79
4374.36
4095.69
3792.79
3465.65
3114.28
1957.92
1930.37
1903.73
1877.92
)


20
(
6853.99
6838.74
6793
6716.76
6610.03
6472.8
6305.08
6106.86
5878.14
5618.93
5329.23
5009.02
4658.33
4277.14
3865.45
3423.26
1968.02
1933.35
1899.81
1867.34
)


20
(
7777.19
7759.06
7704.64
7613.95
7486.97
7323.73
7124.2
6888.39
6616.31
6307.95
5963.31
5582.4
5165.21
4711.73
4221.98
3695.96
1964.78
1923.54
1883.64
1845.01
)


20
(
8595.66
8574.92
8512.69
8408.97
8263.76
8077.07
7848.88
7579.21
7268.05
6915.41
6521.27
6085.65
5608.54
5089.94
4529.85
3928.28
1948.47
1901.31
1855.68
1811.5
)


20
(
9296.66
9273.64
9204.57
9089.46
8928.31
8721.11
8467.87
8168.59
7823.26
7431.89
6994.47
6511.01
5981.51
5405.96
4784.37
4116.74
1919.52
1867.18
1816.55
1767.51
)


20
(
9869.25
9844.32
9769.51
9644.82
9470.27
9245.84
8971.53
8647.35
8273.3
7849.38
7375.58
6851.91
6278.37
5654.95
4981.65
4258.49
1878.52
1821.83
1766.98
1713.86
)


20
(
10304.5
10278.1
10198.7
10066.4
9881.18
9643.06
9352.01
9008.06
8611.18
8161.39
7658.68
7103.06
6494.52
5833.06
5118.68
4351.39
1826.2
1766.05
1707.85
1651.5
)


20
(
10595.6
10568.1
10485.4
10347.6
10154.6
9906.57
9603.39
9245.07
8831.63
8363.07
7839.38
7260.56
6626.62
5937.55
5193.36
4394.04
1763.46
1700.79
1640.17
1581.46
)


20
(
10738.1
10709.9
10625.2
10484
10286.4
10032.3
9721.73
9354.72
8931.23
8451.28
7914.87
7321.99
6672.65
5966.84
5204.57
4385.83
1691.33
1627.14
1565.05
1504.91
)


20
(
10729.7
10701.2
10615.9
10473.6
10274.4
10018.3
9705.24
9335.3
8908.45
8424.69
7884.01
7286.42
6631.91
5920.5
5152.16
4326.92
1611
1546.31
1483.72
1423.11
)


20
(
10570.6
10542.3
10457.6
10316.5
10118.9
9864.77
9554.21
9187.19
8763.71
8283.76
7747.34
7154.46
6505.12
5799.31
5037.04
4218.3
1523.8
1459.61
1397.52
1337.38
)


20
(
10263.4
10235.8
10153.1
10015.3
9822.36
9574.29
9271.1
8912.79
8499.35
8030.78
7507.09
6928.27
6294.33
5605.26
4861.07
4061.75
1431.16
1368.49
1307.87
1249.16
)


20
(
9812.92
9786.47
9707.09
9574.8
9389.59
9151.46
8860.42
8516.46
8119.59
7669.79
7167.08
6611.46
6002.91
5341.45
4627.07
3859.78
1334.58
1274.43
1216.23
1159.88
)


20
(
9226.28
9201.34
9126.53
9001.85
8827.29
8602.86
8328.55
8004.37
7630.32
7206.39
6732.59
6208.92
5635.37
5011.95
4338.65
3615.48
1235.5
1178.81
1123.96
1070.85
)


20
(
8512.25
8489.23
8420.16
8305.05
8143.9
7936.7
7683.46
7384.17
7038.84
6647.47
6210.05
5726.59
5197.08
4621.53
3999.93
3332.29
1135.07
1082.72
1032.09
983.053
)


20
(
7680.99
7660.24
7598.01
7494.29
7349.08
7162.39
6934.2
6664.53
6353.37
6000.72
5606.58
5170.96
4693.85
4175.25
3615.16
3013.58
1033.76
986.601
940.976
896.791
)


20
(
6743.38
6725.24
6670.82
6580.13
6453.15
6289.9
6090.37
5854.56
5582.48
5274.11
4929.47
4548.55
4131.35
3677.87
3188.12
2662.09
930.888
889.649
849.754
811.117
)


20
(
5709.72
5694.47
5648.73
5572.49
5465.76
5328.52
5160.8
4962.57
4733.86
4474.64
4184.93
3864.72
3514.02
3132.82
2721.13
2278.94
823.668
789.002
755.466
722.987
)


20
(
4588.57
4576.46
4540.11
4479.53
4394.71
4285.66
4152.38
3994.87
3813.12
3607.14
3376.93
3122.49
2843.81
2540.9
2213.75
1862.37
705.977
678.43
651.781
625.973
)


20
(
3385.09
3376.3
3349.92
3305.95
3244.39
3165.25
3068.52
2954.2
2822.3
2672.81
2505.73
2321.06
2118.81
1898.97
1661.54
1406.52
567.257
547.265
527.924
509.193
)


20
(
2104.25
2098.91
2082.92
2056.26
2018.93
1970.94
1912.29
1842.97
1762.99
1672.34
1571.03
1459.05
1336.42
1203.11
1059.14
904.511
395.609
383.486
371.758
360.401
)


20
(
765.392
763.605
758.245
749.31
736.802
720.721
701.065
677.836
651.033
620.657
586.707
549.183
508.085
463.414
415.169
363.35
192.813
188.751
184.821
181.015
)


20
(
2452.65
2450.85
2445.43
2436.41
2423.77
2407.52
2387.66
2364.19
2337.11
2306.42
2272.11
2234.2
2192.67
2147.53
2098.79
2046.43
1874.1
1870
1866.03
1862.18
)


20
(
3651.66
3646.27
3630.11
3603.16
3565.44
3516.94
3457.67
3387.62
3306.78
3215.18
3112.79
2999.63
2875.68
2740.96
2595.47
2439.19
1924.88
1912.63
1900.78
1889.3
)


20
(
4810.03
4801.14
4774.48
4730.04
4667.84
4587.85
4490.1
4374.56
4241.26
4090.18
3921.32
3734.7
3530.29
3308.12
3068.16
2810.44
1962.25
1942.04
1922.5
1903.57
)


20
(
5909.88
5897.63
5860.9
5799.67
5713.96
5603.75
5469.05
5309.87
5126.19
4918.02
4685.36
4428.21
4146.57
3840.44
3509.82
3154.71
1986.01
1958.18
1931.24
1905.16
)


20
(
6934.19
6918.78
6872.55
6795.5
6687.63
6548.94
6379.43
6179.09
5947.94
5685.97
5393.17
5069.56
4715.12
4329.87
3913.79
3466.89
1996.13
1961.09
1927.2
1894.37
)


20
(
7867.08
7848.74
7793.75
7702.09
7573.76
7408.77
7207.12
6968.8
6693.82
6382.17
6033.86
5648.88
5227.24
4768.93
4273.96
3742.33
1992.69
1951.01
1910.69
1871.64
)


20
(
8694.04
8673.07
8610.18
8505.35
8358.6
8169.91
7939.29
7666.75
7352.27
6995.87
6597.53
6157.26
5675.07
5150.94
4584.88
3976.89
1975.97
1928.31
1882.2
1837.54
)


20
(
9402.2
9378.93
9309.13
9192.8
9029.92
8820.52
8564.58
8262.1
7913.1
7517.55
7075.47
6586.86
6051.71
5470.03
4841.81
4167.06
1946.41
1893.52
1842.34
1792.78
)


20
(
9980.53
9955.33
9879.72
9753.71
9577.29
9350.47
9073.24
8745.61
8367.57
7939.13
7460.28
6931.02
6351.36
5721.3
5040.83
4309.95
1904.61
1847.31
1791.88
1738.2
)


20
(
10420
10393.3
10313
10179.3
9992.16
9751.5
9457.36
9109.73
8708.63
8254.04
7745.97
7184.42
6569.39
5900.88
5178.89
4403.42
1851.3
1790.51
1731.7
1674.74
)


20
(
10713.8
10685.9
10602.3
10463
10268.1
10017.3
9710.92
9348.79
8930.94
8457.38
7928.11
7343.12
6702.42
6006.01
5253.88
4446.04
1787.41
1724.08
1662.81
1603.48
)


20
(
10857.2
10828.7
10743.1
10600.4
10400.7
10143.9
9830
9459.07
9031.07
8546
8003.87
7404.67
6748.41
6035.07
5264.67
4437.21
1713.98
1649.11
1586.35
1525.58
)


20
(
10848.1
10819.3
10733.1
10589.3
10387.9
10129.1
9812.74
9438.86
9007.46
8518.54
7972.1
7368.14
6706.65
5987.65
5211.13
4377.08
1632.21
1566.83
1503.57
1442.31
)


20
(
10686.7
10658.1
10572.5
10429.9
10230.1
9973.34
9659.48
9288.54
8860.54
8375.48
7833.34
7234.14
6577.88
5864.54
5094.14
4266.68
1543.45
1478.58
1415.82
1355.04
)


20
(
10375.5
10347.7
10264.1
10124.8
9929.81
9679.1
9372.68
9010.55
8592.7
8119.14
7589.86
7004.87
6364.17
5667.76
4915.63
4107.79
1449.15
1385.82
1324.55
1265.21
)


20
(
9919.58
9892.84
9812.62
9678.92
9491.73
9251.07
8956.93
8609.3
8208.19
7753.6
7245.53
6683.98
6068.95
5400.44
4678.44
3902.97
1350.85
1290.05
1231.24
1174.28
)


20
(
9325.99
9300.79
9225.18
9099.17
8922.75
8695.92
8418.69
8091.06
7713.02
7284.57
6805.72
6276.46
5696.8
5066.73
4386.26
3655.38
1250.02
1192.72
1137.29
1083.61
)


20
(
8603.71
8580.44
8510.64
8394.3
8231.43
8022.02
7766.08
7463.6
7114.59
6719.04
6276.96
5788.34
5253.19
4671.5
4043.28
3368.52
1147.87
1094.97
1043.8
994.236
)


20
(
7763.03
7742.06
7679.17
7574.34
7427.59
7238.9
7008.28
6735.73
6421.26
6064.85
5666.51
5226.24
4744.04
4219.91
3653.85
3045.86
1044.93
997.27
951.159
906.503
)


20
(
6815.01
6796.68
6741.68
6650.02
6521.69
6356.7
6155.04
5916.72
5641.73
5330.08
4981.76
4596.78
4175.13
3716.82
3221.85
2690.2
940.548
898.87
858.549
819.501
)


20
(
5770.08
5754.67
5708.44
5631.39
5523.51
5384.82
5215.3
5014.97
4783.81
4521.83
4229.03
3905.41
3550.97
3165.71
2749.62
2302.72
831.935
796.9
763.006
730.181
)


20
(
4636.89
4624.64
4587.9
4526.68
4440.96
4330.75
4196.04
4036.85
3853.17
3644.99
3412.32
3155.17
2873.52
2567.38
2236.74
1881.62
712.894
685.053
658.12
632.037
)


20
(
3420.55
3411.66
3385
3340.56
3278.35
3198.37
3100.61
2985.07
2851.76
2700.67
2531.81
2345.18
2140.77
1918.58
1678.62
1420.89
572.674
552.469
532.922
513.991
)


20
(
2125.96
2120.57
2104.41
2077.46
2039.74
1991.24
1931.96
1861.9
1781.07
1689.45
1587.06
1473.89
1349.95
1215.22
1069.72
913.437
399.109
386.857
375.005
363.526
)


20
(
772.688
770.882
765.464
756.435
743.794
727.54
707.675
684.199
657.11
626.41
592.098
554.174
512.638
467.49
418.731
366.36
194.005
189.899
185.927
182.081
)


20
(
2452.65
2450.85
2445.43
2436.41
2423.77
2407.52
2387.66
2364.19
2337.11
2306.42
2272.11
2234.2
2192.67
2147.53
2098.79
2046.43
1874.1
1870
1866.03
1862.18
)


20
(
3651.66
3646.27
3630.11
3603.16
3565.44
3516.94
3457.67
3387.62
3306.78
3215.18
3112.79
2999.63
2875.68
2740.96
2595.47
2439.19
1924.88
1912.63
1900.78
1889.3
)


20
(
4810.03
4801.14
4774.48
4730.05
4667.84
4587.85
4490.1
4374.56
4241.26
4090.18
3921.33
3734.7
3530.29
3308.12
3068.16
2810.44
1962.25
1942.04
1922.5
1903.57
)


20
(
5909.88
5897.64
5860.9
5799.67
5713.96
5603.75
5469.05
5309.87
5126.19
4918.02
4685.36
4428.21
4146.57
3840.44
3509.82
3154.71
1986.01
1958.18
1931.24
1905.16
)


20
(
6934.19
6918.78
6872.55
6795.5
6687.63
6548.94
6379.43
6179.09
5947.94
5685.97
5393.17
5069.56
4715.12
4329.86
3913.79
3466.89
1996.13
1961.09
1927.2
1894.37
)


20
(
7867.08
7848.74
7793.75
7702.09
7573.76
7408.77
7207.12
6968.8
6693.82
6382.17
6033.86
5648.88
5227.24
4768.93
4273.96
3742.33
1992.69
1951.01
1910.69
1871.64
)


20
(
8694.04
8673.07
8610.18
8505.35
8358.6
8169.91
7939.29
7666.75
7352.27
6995.87
6597.53
6157.26
5675.07
5150.94
4584.88
3976.89
1975.97
1928.31
1882.2
1837.54
)


20
(
9402.2
9378.93
9309.13
9192.79
9029.92
8820.52
8564.58
8262.1
7913.09
7517.55
7075.47
6586.86
6051.71
5470.03
4841.81
4167.06
1946.41
1893.52
1842.34
1792.78
)


20
(
9980.53
9955.33
9879.72
9753.71
9577.29
9350.47
9073.24
8745.61
8367.57
7939.13
7460.28
6931.02
6351.36
5721.3
5040.83
4309.95
1904.61
1847.31
1791.88
1738.2
)


20
(
10420
10393.3
10313
10179.3
9992.16
9751.5
9457.36
9109.73
8708.62
8254.04
7745.97
7184.42
6569.39
5900.88
5178.89
4403.42
1851.3
1790.51
1731.7
1674.74
)


20
(
10713.8
10685.9
10602.3
10463
10268.1
10017.3
9710.92
9348.79
8930.94
8457.38
7928.11
7343.12
6702.42
6006.01
5253.88
4446.04
1787.41
1724.08
1662.81
1603.48
)


20
(
10857.2
10828.7
10743.1
10600.4
10400.7
10143.9
9830
9459.07
9031.07
8546
8003.87
7404.67
6748.41
6035.07
5264.67
4437.21
1713.98
1649.11
1586.35
1525.58
)


20
(
10848.1
10819.3
10733.1
10589.3
10387.9
10129.1
9812.74
9438.86
9007.46
8518.54
7972.1
7368.14
6706.65
5987.65
5211.13
4377.08
1632.21
1566.83
1503.57
1442.31
)


20
(
10686.7
10658.1
10572.5
10429.9
10230.1
9973.34
9659.48
9288.54
8860.54
8375.48
7833.34
7234.14
6577.88
5864.54
5094.14
4266.67
1543.45
1478.58
1415.82
1355.04
)


20
(
10375.5
10347.7
10264.1
10124.8
9929.81
9679.1
9372.68
9010.54
8592.7
8119.13
7589.86
7004.87
6364.17
5667.76
4915.63
4107.79
1449.15
1385.82
1324.55
1265.21
)


20
(
9919.58
9892.84
9812.62
9678.92
9491.73
9251.07
8956.93
8609.3
8208.19
7753.6
7245.53
6683.98
6068.95
5400.44
4678.44
3902.97
1350.85
1290.05
1231.24
1174.28
)


20
(
9325.99
9300.79
9225.18
9099.17
8922.75
8695.92
8418.69
8091.06
7713.02
7284.57
6805.72
6276.46
5696.8
5066.73
4386.26
3655.38
1250.02
1192.72
1137.29
1083.61
)


20
(
8603.71
8580.44
8510.64
8394.3
8231.43
8022.02
7766.08
7463.6
7114.59
6719.04
6276.96
5788.34
5253.19
4671.5
4043.28
3368.52
1147.87
1094.97
1043.8
994.236
)


20
(
7763.03
7742.06
7679.17
7574.34
7427.58
7238.9
7008.28
6735.73
6421.26
6064.85
5666.51
5226.24
4744.04
4219.91
3653.85
3045.86
1044.93
997.27
951.159
906.503
)


20
(
6815.01
6796.68
6741.68
6650.02
6521.69
6356.7
6155.04
5916.72
5641.73
5330.08
4981.76
4596.78
4175.13
3716.82
3221.84
2690.2
940.548
898.87
858.549
819.501
)


20
(
5770.08
5754.67
5708.44
5631.39
5523.51
5384.82
5215.3
5014.97
4783.81
4521.83
4229.03
3905.41
3550.97
3165.71
2749.62
2302.72
831.935
796.9
763.006
730.181
)


20
(
4636.89
4624.64
4587.91
4526.68
4440.96
4330.75
4196.05
4036.85
3853.17
3644.99
3412.33
3155.17
2873.52
2567.38
2236.74
1881.62
712.894
685.053
658.12
632.037
)


20
(
3420.55
3411.66
3385
3340.57
3278.35
3198.37
3100.61
2985.07
2851.76
2700.67
2531.81
2345.18
2140.77
1918.58
1678.62
1420.89
572.674
552.469
532.922
513.992
)


20
(
2125.96
2120.57
2104.41
2077.46
2039.74
1991.24
1931.96
1861.9
1781.07
1689.45
1587.06
1473.89
1349.95
1215.22
1069.72
913.437
399.109
386.857
375.005
363.526
)


20
(
772.688
770.882
765.464
756.435
743.794
727.54
707.676
684.199
657.11
626.41
592.098
554.174
512.638
467.49
418.731
366.36
194.005
189.899
185.927
182.081
)


20
(
2419.81
2418.02
2412.66
2403.73
2391.23
2375.15
2355.5
2332.28
2305.48
2275.11
2241.17
2203.66
2162.57
2117.91
2069.67
2017.87
1847.36
1843.3
1839.37
1835.57
)


20
(
3606.04
3600.71
3584.71
3558.05
3520.73
3472.74
3414.09
3344.78
3264.8
3174.16
3072.85
2960.88
2838.25
2704.95
2560.99
2406.36
1897.47
1885.35
1873.62
1862.26
)


20
(
4752.13
4743.34
4716.96
4672.99
4611.44
4532.3
4435.57
4321.26
4189.36
4039.87
3872.8
3688.14
3485.89
3266.06
3028.64
2773.63
1934.39
1914.4
1895.06
1876.33
)


20
(
5840.4
5828.28
5791.93
5731.35
5646.54
5537.5
5404.22
5246.71
5064.97
4859
4628.79
4374.36
4095.69
3792.79
3465.65
3114.29
1957.92
1930.38
1903.73
1877.92
)


20
(
6853.99
6838.74
6793
6716.76
6610.03
6472.8
6305.08
6106.86
5878.14
5618.93
5329.23
5009.03
4658.33
4277.14
3865.45
3423.26
1968.02
1933.35
1899.81
1867.34
)


20
(
7777.2
7759.06
7704.64
7613.95
7486.98
7323.73
7124.2
6888.4
6616.31
6307.95
5963.32
5582.4
5165.21
4711.73
4221.98
3695.96
1964.78
1923.54
1883.64
1845.01
)


20
(
8595.66
8574.92
8512.69
8408.97
8263.76
8077.07
7848.89
7579.21
7268.06
6915.41
6521.28
6085.65
5608.54
5089.94
4529.86
3928.28
1948.47
1901.31
1855.68
1811.5
)


20
(
9296.66
9273.64
9204.57
9089.46
8928.31
8721.11
8467.87
8168.59
7823.26
7431.89
6994.47
6511.02
5981.51
5405.97
4784.37
4116.74
1919.52
1867.18
1816.55
1767.51
)


20
(
9869.25
9844.32
9769.51
9644.82
9470.27
9245.84
8971.53
8647.36
8273.31
7849.38
7375.58
6851.91
6278.37
5654.95
4981.66
4258.49
1878.52
1821.83
1766.98
1713.86
)


20
(
10304.5
10278.1
10198.7
10066.4
9881.18
9643.06
9352.02
9008.06
8611.18
8161.39
7658.69
7103.06
6494.52
5833.06
5118.68
4351.39
1826.2
1766.05
1707.86
1651.5
)


20
(
10595.6
10568.1
10485.4
10347.6
10154.6
9906.58
9603.39
9245.07
8831.63
8363.07
7839.38
7260.56
6626.62
5937.56
5193.36
4394.05
1763.46
1700.8
1640.17
1581.46
)


20
(
10738.1
10709.9
10625.2
10484
10286.4
10032.3
9721.74
9354.72
8931.23
8451.28
7914.87
7321.99
6672.65
5966.84
5204.57
4385.83
1691.33
1627.15
1565.05
1504.92
)


20
(
10729.7
10701.2
10615.9
10473.6
10274.4
10018.3
9705.24
9335.3
8908.45
8424.69
7884.01
7286.42
6631.91
5920.5
5152.16
4326.92
1611
1546.31
1483.72
1423.11
)


20
(
10570.6
10542.3
10457.6
10316.5
10118.9
9864.77
9554.21
9187.19
8763.71
8283.76
7747.34
7154.46
6505.12
5799.31
5037.04
4218.3
1523.8
1459.61
1397.52
1337.38
)


20
(
10263.4
10235.8
10153.1
10015.3
9822.36
9574.29
9271.1
8912.79
8499.35
8030.78
7507.09
6928.27
6294.33
5605.26
4861.07
4061.75
1431.16
1368.49
1307.87
1249.16
)


20
(
9812.93
9786.47
9707.09
9574.8
9389.59
9151.47
8860.42
8516.46
8119.59
7669.79
7167.08
6611.46
6002.91
5341.45
4627.07
3859.78
1334.58
1274.43
1216.23
1159.88
)


20
(
9226.28
9201.34
9126.53
9001.85
8827.29
8602.86
8328.55
8004.37
7630.32
7206.39
6732.59
6208.92
5635.37
5011.95
4338.65
3615.48
1235.5
1178.81
1123.96
1070.85
)


20
(
8512.25
8489.23
8420.16
8305.05
8143.9
7936.7
7683.46
7384.17
7038.84
6647.47
6210.05
5726.59
5197.08
4621.53
3999.93
3332.29
1135.07
1082.73
1032.09
983.053
)


20
(
7680.99
7660.24
7598.01
7494.29
7349.08
7162.39
6934.2
6664.53
6353.37
6000.72
5606.58
5170.96
4693.85
4175.25
3615.16
3013.58
1033.76
986.602
940.977
896.792
)


20
(
6743.38
6725.24
6670.82
6580.13
6453.15
6289.9
6090.37
5854.56
5582.48
5274.11
4929.47
4548.55
4131.35
3677.88
3188.12
2662.09
930.889
889.65
849.755
811.118
)


20
(
5709.72
5694.47
5648.73
5572.49
5465.76
5328.52
5160.8
4962.57
4733.86
4474.64
4184.93
3864.72
3514.02
3132.82
2721.13
2278.94
823.669
789.003
755.466
722.988
)


20
(
4588.58
4576.46
4540.11
4479.53
4394.71
4285.67
4152.38
3994.87
3813.12
3607.14
3376.93
3122.49
2843.81
2540.9
2213.75
1862.37
705.978
678.431
651.782
625.973
)


20
(
3385.09
3376.3
3349.92
3305.95
3244.4
3165.25
3068.52
2954.21
2822.3
2672.81
2505.73
2321.06
2118.81
1898.97
1661.54
1406.52
567.258
547.266
527.925
509.194
)


20
(
2104.25
2098.91
2082.92
2056.26
2018.93
1970.94
1912.29
1842.97
1762.99
1672.34
1571.03
1459.06
1336.42
1203.11
1059.14
904.511
395.609
383.487
371.759
360.401
)


20
(
765.392
763.605
758.245
749.311
736.803
720.721
701.065
677.836
651.034
620.657
586.707
549.183
508.085
463.414
415.169
363.35
192.813
188.751
184.821
181.015
)


20
(
2460.58
2458.77
2453.34
2444.29
2431.62
2415.33
2395.42
2371.88
2344.73
2313.96
2279.57
2241.55
2199.92
2154.66
2105.79
2053.29
1880.52
1876.4
1872.42
1868.57
)


20
(
3662.78
3657.38
3641.17
3614.15
3576.34
3527.71
3468.28
3398.04
3317
3225.15
3122.5
3009.04
2884.77
2749.7
2603.82
2447.14
1931.48
1919.2
1907.32
1895.81
)


20
(
4824.21
4815.3
4788.57
4744.02
4681.65
4601.46
4503.44
4387.61
4253.96
4102.48
3933.19
3746.07
3541.13
3318.37
3077.79
2819.39
1968.99
1948.73
1929.13
1910.15
)


20
(
5926.96
5914.68
5877.85
5816.46
5730.52
5620.03
5484.98
5325.38
5141.22
4932.51
4699.24
4441.42
4159.04
3852.11
3520.62
3164.58
1992.84
1964.92
1937.92
1911.77
)


20
(
6953.95
6938.5
6892.15
6814.89
6706.74
6567.69
6397.73
6196.87
5965.12
5702.46
5408.9
5084.44
4729.08
4342.81
3925.65
3477.58
2002.97
1967.85
1933.87
1900.96
)


20
(
7889.25
7870.87
7815.73
7723.83
7595.17
7429.75
7227.57
6988.63
6712.93
6400.46
6051.24
5665.26
5242.52
4783.01
4286.75
3753.72
1999.51
1957.72
1917.3
1878.15
)


20
(
8718.34
8697.32
8634.26
8529.16
8382.02
8192.84
7961.62
7688.36
7373.07
7015.73
6616.35
6174.93
5691.48
5165.98
4598.44
3988.86
1982.71
1934.93
1888.69
1843.92
)


20
(
9428.3
9404.97
9334.98
9218.34
9055.05
8845.09
8588.49
8285.22
7935.3
7538.72
7095.49
6605.6
6069.05
5485.85
4855.99
4179.47
1953.02
1899.99
1848.68
1798.99
)


20
(
10008.1
9982.8
9907
9780.65
9603.78
9376.36
9098.41
8769.92
8390.89
7961.33
7481.23
6950.59
6369.41
5737.7
5055.45
4322.67
1911.03
1853.59
1798.01
1744.19
)


20
(
10448.6
10421.8
10341.4
10207.3
10019.6
9778.35
9483.44
9134.9
8732.75
8276.97
7767.58
7204.56
6587.92
5917.67
5193.79
4416.29
1857.5
1796.55
1737.58
1680.48
)


20
(
10743
10715.1
10631.3
10491.7
10296.2
10044.8
9737.56
9374.48
8955.54
8480.75
7950.09
7363.57
6721.2
6022.97
5268.87
4458.92
1793.34
1729.84
1668.41
1608.92
)


20
(
10886.7
10858.1
10772.3
10629.2
10429
10171.5
9856.83
9484.93
9055.81
8569.48
8025.93
7425.16
6767.18
6051.99
5279.57
4449.94
1719.6
1654.56
1591.64
1530.7
)


20
(
10877.5
10848.6
10762.1
10617.9
10416.1
10156.6
9839.4
9464.54
9032.01
8541.81
7993.94
7388.4
6725.19
6004.31
5225.75
4389.53
1637.48
1571.93
1508.51
1447.09
)


20
(
10715.5
10686.9
10601
10458
10257.7
10000.3
9685.58
9313.68
8884.56
8398.23
7854.68
7253.91
6595.93
5880.73
5108.32
4278.69
1548.34
1483.3
1420.38
1359.44
)


20
(
10403.3
10375.4
10291.6
10152
9956.47
9705.1
9397.88
9034.8
8615.86
8141.06
7610.4
7023.88
6381.51
5683.27
4929.18
4119.22
1453.64
1390.14
1328.71
1269.22
)


20
(
9946.05
9919.24
9838.8
9704.75
9517.08
9275.79
8980.87
8632.34
8230.18
7774.4
7265.01
6701.99
6085.35
5415.09
4691.21
3913.7
1354.91
1293.96
1234.99
1177.88
)


20
(
9350.73
9325.47
9249.66
9123.32
8946.44
8719.02
8441.07
8112.57
7733.55
7303.98
6823.88
6293.23
5712.06
5080.34
4398.09
3665.3
1253.66
1196.21
1140.63
1086.81
)


20
(
8626.4
8603.08
8533.09
8416.45
8253.15
8043.2
7786.59
7483.32
7133.39
6736.81
6293.58
5803.68
5267.13
4683.92
4054.06
3377.54
1151.08
1098.04
1046.73
997.042
)


20
(
7783.39
7762.37
7699.31
7594.21
7447.07
7257.89
7026.67
6753.41
6438.11
6080.77
5681.39
5239.97
4756.51
4231.01
3663.47
3053.89
1047.74
999.947
953.716
908.943
)


20
(
6832.79
6814.41
6759.27
6667.37
6538.7
6373.28
6171.1
5932.15
5656.45
5343.98
4994.75
4608.76
4186.01
3726.5
3230.23
2697.2
942.974
901.186
860.76
821.609
)


20
(
5785.07
5769.62
5723.27
5646.01
5537.86
5398.8
5228.84
5027.98
4796.22
4533.56
4239.99
3915.52
3560.16
3173.89
2756.71
2308.64
834.014
798.886
764.904
731.993
)


20
(
4648.89
4636.61
4599.78
4538.39
4452.45
4341.95
4206.89
4047.28
3863.12
3654.4
3421.12
3163.29
2880.91
2573.97
2242.47
1886.42
714.637
686.724
659.72
633.569
)


20
(
3429.37
3420.46
3393.72
3349.17
3286.8
3206.6
3108.58
2992.75
2859.09
2707.61
2538.3
2351.18
2146.24
1923.47
1682.88
1424.48
574.044
553.786
534.188
515.208
)


20
(
2131.36
2125.96
2109.75
2082.74
2044.91
1996.29
1936.85
1866.61
1785.57
1693.71
1591.06
1477.59