/*--------------------------------*- C++ -*----------------------------------*\
| =========                 |                                                 |
| \\      /  F ield         | OpenFOAM: The Open Source CFD Toolbox           |
|  \\    /   O peration     | Version:  2212                                  |
|   \\  /    A nd           | Website:  www.openfoam.com                      |
|    \\/     M anipulation  |                                                 |
\*---------------------------------------------------------------------------*/
FoamFile
{
    version     2.0;
    format      ascii;
    arch        "LSB;label=32;scalar=64";
    class       surfaceScalarField;
    location    "34/fluidRegion";
    object      alphaRhoPhi;
}
// * * * * * * * * * * * * * * * * * * * * * * * * * * * * * * * * * * * * * //

dimensions      [1 0 -1 0 0 0 0];

oriented        oriented;

internalField   nonuniform List<scalar> 
661
(
-0.00584892
-5.12814e-10
-0.00584903
-5.77104e-10
-0.00584916
-4.37204e-10
-0.00584929
-2.59775e-10
-0.0058494
-6.90452e-11
-0.00584948
1.58301e-10
-0.00584954
4.15229e-10
-0.00584955
6.55313e-10
-0.00584953
8.14105e-10
-0.00584949
8.36302e-10
-0.00584942
6.9954e-10
-0.00584934
4.20025e-10
-0.00584927
4.686e-11
-0.0058492
-3.46015e-10
-0.00584915
-6.70506e-10
-0.00584912
-8.43312e-10
-0.00584912
-8.12438e-10
-0.00584915
-5.8039e-10
-0.00584919
-2.07375e-10
-0.00584925
2.15593e-10
-0.0058493
6.03816e-10
-0.00584934
8.80372e-10
-0.00584935
9.17276e-10
-0.00584932
3.28782e-10
-7.253e-10
-0.00584892
-0.00584903
-0.00584916
-0.00584929
-0.0058494
-0.00584948
-0.00584954
-0.00584955
-0.00584953
-0.00584949
-0.00584942
-0.00584934
-0.00584927
-0.0058492
-0.00584915
-0.00584912
-0.00584912
-0.00584915
-0.00584919
-0.00584925
-0.0058493
-0.00584934
-0.00584935
-0.00584932
-0.00937069
6.36996e-07
-0.00937093
3.20015e-07
-0.00937121
3.57823e-07
-0.00937146
3.31727e-07
-0.0093717
3.11422e-07
-0.00937192
2.93429e-07
-0.00937213
2.77441e-07
-0.00937233
2.61606e-07
-0.00937251
2.41885e-07
-0.00937267
2.10435e-07
-0.00937279
1.55238e-07
-0.00937284
5.94978e-08
-0.00937276
-9.26986e-08
-0.0093725
-3.08761e-07
-0.00937199
-5.88078e-07
-0.00937119
-9.12291e-07
-0.00937006
-1.25651e-06
-0.00936859
-1.60577e-06
-0.00936677
-1.97269e-06
-0.00936451
-2.40707e-06
-0.00936167
-2.99824e-06
-0.00935801
-3.83663e-06
-0.00935323
-4.94205e-06
-0.0093476
-5.80466e-06
-7.0411e-06
-0.00928736
-2.12397e-08
-1.94152e-08
-0.0092869
-8.60701e-08
-8.63378e-08
-0.00928641
-8.31941e-08
-8.2863e-08
-0.00928596
-7.44417e-08
-7.38034e-08
-0.00928554
-6.71477e-08
-6.61412e-08
-0.00928515
-6.0416e-08
-5.91856e-08
-0.0092848
-5.4127e-08
-5.25907e-08
-0.00928447
-4.78524e-08
-4.59591e-08
-0.00928417
-4.04018e-08
-3.80021e-08
-0.00928393
-2.96258e-08
-2.65944e-08
-0.00928377
-1.17032e-08
-7.77779e-09
-0.00928376
1.81243e-08
2.29613e-08
-0.00928398
6.44949e-08
7.09078e-08
-0.00928456
1.34166e-07
1.42431e-07
-0.00928558
2.25181e-07
2.3584e-07
-0.00928714
3.33325e-07
3.47133e-07
-0.00928928
4.51196e-07
4.69219e-07
-0.00929202
5.74283e-07
5.98089e-07
-0.0092954
7.06943e-07
7.39208e-07
-0.00929953
8.66527e-07
9.10466e-07
-0.0093047
1.08157e-06
1.14237e-06
-0.00931132
1.37731e-06
1.45799e-06
-0.00931977
1.72803e-06
1.83599e-06
-0.00932934
1.84045e-06
1.96637e-06
1.78965e-06
1.90847e-06
-0.00938436
3.20515e-07
-0.0093847
3.17023e-07
-0.00938504
3.12612e-07
-0.00938534
2.86535e-07
-0.00938562
2.64125e-07
-0.00938588
2.43995e-07
-0.00938611
2.25328e-07
-0.00938632
2.06084e-07
-0.00938651
1.81431e-07
-0.00938665
1.42799e-07
-0.00938673
7.67371e-08
-0.00938669
-3.35827e-08
-0.00938645
-2.04906e-07
-0.00938594
-4.46146e-07
-0.00938506
-7.54229e-07
-0.00938373
-1.10914e-06
-0.00938193
-1.48506e-06
-0.00937963
-1.86825e-06
-0.00937679
-2.27542e-06
-0.0093733
-2.76228e-06
-0.00936893
-3.41994e-06
-0.00936334
-4.33495e-06
-0.00935625
-5.43916e-06
-0.00934837
-6.08242e-06
-6.3211e-06
-0.00930605
1.11411e-09
-0.00930577
-4.88356e-10
-0.00930549
-3.97724e-10
-0.00930524
-4.67659e-10
-0.00930501
-4.66593e-10
-0.00930479
-4.66678e-10
-0.0093046
-4.85862e-10
-0.00930442
-4.41583e-10
-0.00930426
-3.71378e-10
-0.00930414
-2.60933e-10
-0.00930407
-1.79178e-11
-0.00930411
3.95673e-10
-0.0093043
9.49861e-10
-0.00930472
1.70479e-09
-0.00930543
2.67267e-09
-0.00930648
3.91007e-09
-0.0093079
5.55092e-09
-0.00930971
7.78374e-09
-0.00931192
1.05635e-08
-0.00931462
1.41416e-08
-0.00931799
1.89524e-08
-0.00932228
2.41872e-08
-0.00932772
2.99974e-08
-0.00933383
3.29965e-08
3.02568e-08
-0.00930606
-3.18206e-07
-0.00930578
-3.18181e-07
-0.0093055
-3.13495e-07
-0.00930525
-2.87597e-07
-0.00930502
-2.65254e-07
-0.0093048
-2.45207e-07
-0.00930461
-2.26636e-07
-0.00930443
-2.074e-07
-0.00930427
-1.82722e-07
-0.00930415
-1.43981e-07
-0.00930409
-7.75692e-08
-0.00930412
3.3222e-08
-0.00930431
2.05373e-07
-0.00930473
4.47695e-07
-0.00930544
7.57196e-07
-0.00930649
1.114e-06
-0.00930791
1.49261e-06
-0.00930972
1.87974e-06
-0.00931193
2.29242e-06
-0.00931463
2.78726e-06
-0.009318
3.45687e-06
-0.00932229
4.38725e-06
-0.00932773
5.5111e-06
-0.00933384
6.16809e-06
6.40686e-06
-0.00938437
1.89704e-08
-0.0093847
8.56709e-08
-0.00938504
8.26573e-08
-0.00938534
7.38852e-08
-0.00938562
6.65868e-08
-0.00938588
5.96409e-08
-0.00938611
5.31688e-08
-0.00938632
4.65338e-08
-0.00938651
3.87095e-08
-0.00938665
2.73071e-08
-0.00938673
8.73857e-09
-0.00938669
-2.18762e-08
-0.00938645
-6.93281e-08
-0.00938594
-1.40389e-07
-0.00938505
-2.33098e-07
-0.00938373
-3.43387e-07
-0.00938192
-4.63823e-07
-0.00937962
-5.89851e-07
-0.00937678
-7.26086e-07
-0.00937329
-8.89416e-07
-0.00936892
-1.10885e-06
-0.00936332
-1.40851e-06
-0.00935623
-1.76372e-06
-0.00934835
-1.87745e-06
-1.80616e-06
-0.00928736
-6.37439e-07
-2.10874e-08
-0.0092869
-3.20561e-07
-8.5914e-08
-0.00928641
-3.58011e-07
-8.27671e-08
-0.00928596
-3.3178e-07
-7.37102e-08
-0.00928554
-3.11283e-07
-6.61403e-08
-0.00928515
-2.93374e-07
-5.92256e-08
-0.0092848
-2.77342e-07
-5.27232e-08
-0.00928447
-2.61627e-07
-4.62361e-08
-0.00928417
-2.41903e-07
-3.85159e-08
-0.00928393
-2.10594e-07
-2.7446e-08
-0.00928377
-1.55338e-07
-9.24497e-09
-0.00928376
-5.95862e-08
2.09255e-08
-0.00928398
9.2935e-08
6.75441e-08
-0.00928456
3.09325e-07
1.37372e-07
-0.00928558
5.89436e-07
2.28314e-07
-0.00928714
9.1509e-07
3.35926e-07
-0.00928928
1.26218e-06
4.52226e-07
-0.00929202
1.61691e-06
5.71842e-07
-0.0092954
1.99416e-06
6.97847e-07
-0.00929953
2.44763e-06
8.4483e-07
-0.0093047
3.0745e-06
1.03512e-06
-0.00931132
3.96994e-06
1.28993e-06
-0.00931977
5.16383e-06
1.58057e-06
-0.00932933
6.11559e-06
1.63031e-06
7.41929e-06
1.54985e-06
-0.00937069
-0.00937093
-0.00937121
-0.00937146
-0.0093717
-0.00937192
-0.00937213
-0.00937233
-0.00937251
-0.00937267
-0.00937279
-0.00937284
-0.00937276
-0.0093725
-0.00937199
-0.00937119
-0.00937006
-0.00936859
-0.00936677
-0.00936451
-0.00936167
-0.009358
-0.00935323
-0.0093476
-0.00930605
-3.21453e-07
1.80858e-09
-0.00930577
-3.18145e-07
3.52073e-10
-0.00930549
-3.13858e-07
6.90704e-10
-0.00930524
-2.87954e-07
8.16969e-10
-0.00930501
-2.65679e-07
9.75608e-10
-0.00930479
-2.45811e-07
1.14946e-09
-0.0093046
-2.27443e-07
1.43053e-09
-0.00930442
-2.08597e-07
1.74377e-09
-0.00930426
-1.84381e-07
2.18665e-09
-0.00930414
-1.46351e-07
2.79792e-09
-0.00930407
-8.08322e-08
3.61292e-09
-0.00930411
2.88612e-08
4.19544e-09
-0.0093043
1.9931e-07
5.61866e-09
-0.00930472
4.39424e-07
7.33332e-09
-0.00930543
7.4592e-07
9.78124e-09
-0.00930648
1.09839e-06
1.33338e-08
-0.0093079
1.4704e-06
1.86545e-08
-0.00930971
1.8471e-06
2.66946e-08
-0.00931192
2.24223e-06
4.00935e-08
-0.00931462
2.70817e-06
6.15865e-08
-0.00931799
3.32576e-06
9.89456e-08
-0.00932228
4.17528e-06
1.54816e-07
-0.00932772
5.17425e-06
2.39388e-07
-0.00933383
5.69915e-06
3.18831e-07
5.88857e-06
3.53897e-07
-0.00938436
-0.0093847
-0.00938504
-0.00938534
-0.00938562
-0.00938588
-0.00938611
-0.00938632
-0.00938651
-0.00938665
-0.00938673
-0.00938669
-0.00938645
-0.00938594
-0.00938506
-0.00938373
-0.00938193
-0.00937963
-0.00937679
-0.0093733
-0.00936893
-0.00936334
-0.00935625
-0.00934838
-0.00938437
3.1712e-07
-0.0093847
3.16832e-07
-0.00938504
3.12386e-07
-0.00938535
2.86483e-07
-0.00938562
2.6425e-07
-0.00938588
2.4393e-07
-0.00938611
2.25223e-07
-0.00938632
2.0563e-07
-0.00938651
1.80729e-07
-0.00938665
1.4148e-07
-0.00938673
7.47926e-08
-0.00938669
-3.62121e-08
-0.00938645
-2.08747e-07
-0.00938594
-4.51577e-07
-0.00938505
-7.61557e-07
-0.00938373
-1.11896e-06
-0.00938192
-1.49785e-06
-0.00937962
-1.88434e-06
-0.00937678
-2.29436e-06
-0.00937329
-2.78175e-06
-0.00936892
-3.43621e-06
-0.00936332
-4.33736e-06
-0.00935623
-5.41007e-06
-0.00934835
-6.0061e-06
-6.15763e-06
-0.00930606
-0.00930578
-0.0093055
-0.00930525
-0.00930502
-0.0093048
-0.00930461
-0.00930443
-0.00930427
-0.00930415
-0.00930409
-0.00930412
-0.00930431
-0.00930473
-0.00930544
-0.00930649
-0.00930791
-0.00930972
-0.00931193
-0.00931463
-0.009318
-0.00932229
-0.00932773
-0.00933385
)
;

boundaryField
{
    outletCentralUnloaded
    {
        type            calculated;
        value           nonuniform List<scalar> 2(0.00584888 0.00584888);
    }
    inletCentralUnloaded
    {
        type            calculated;
        value           nonuniform List<scalar> 2(-0.00587369 -0.00587369);
    }
    outletFuelElement
    {
        type            calculated;
        value           nonuniform List<scalar> 
12
(
0.00937013
0.00928801
0.00938408
0.00930633
0.00930635
0.00938409
0.00928801
0.00937013
0.00930633
0.00938408
0.00938409
0.00930635
)
;
    }
    inletFuelElement
    {
        type            calculated;
        value           nonuniform List<scalar> 
12
(
-0.00951516
-0.00951517
-0.00951515
-0.00951516
-0.00951517
-0.00951516
-0.00951517
-0.00951516
-0.00951516
-0.00951515
-0.00951516
-0.00951517
)
;
    }
    defaultFaces
    {
        type            calculated;
        value           nonuniform List<scalar> 
450
(
7.37941e-24
-2.25172e-23
0
6.82155e-24
-2.58425e-24
0
1.93786e-23
8.11682e-25
0
-2.20926e-23
-1.40408e-23
0
-8.30167e-24
-1.88696e-23
0
-1.92506e-23
-8.53688e-24
0
-2.18704e-23
-1.9792e-24
0
-1.73486e-23
-1.0729e-23
0
-1.42559e-23
-9.11396e-25
0
-1.50184e-23
-1.29961e-24
0
-8.37756e-24
-3.1976e-24
0
-3.73716e-24
-1.27428e-24
0
5.83691e-24
3.38658e-24
0
1.93023e-23
1.00267e-23
0
4.55282e-23
2.4074e-23
0
5.94951e-23
2.9552e-23
0
9.82216e-23
1.50182e-23
0
9.75121e-23
6.21794e-23
0
7.45194e-23
-1.31926e-22
0
-4.61565e-23
-7.83687e-23
0
-6.66577e-23
-8.90943e-23
0
1.03551e-22
-1.51053e-22
0
-1.16718e-22
8.51498e-23
0
-1.79428e-22
-8.09198e-23
0
-2.09554e-22
-3.38955e-22
0
8.43322e-24
0
1.14413e-23
0
3.90611e-24
0
1.20812e-23
0
-2.08973e-24
0
6.55102e-24
0
6.89418e-24
0
9.74609e-24
0
-2.60391e-24
0
4.21004e-24
0
3.81697e-24
0
-8.39079e-25
0
-9.3273e-24
0
-1.25979e-23
0
0
0
-2.22052e-23
0
6.539e-23
0
-6.27665e-23
0
3.84405e-23
0
-9.63862e-23
0
-6.20038e-23
0
1.6391e-22
0
1.10751e-22
0
-2.99514e-22
0
-3.83085e-22
0
-7.3898e-24
-3.75909e-24
0
-3.96831e-24
8.23604e-24
-4.30267e-24
-4.5276e-24
0
5.12929e-24
-2.76419e-24
-1.5036e-24
8.26333e-25
0
8.27268e-24
9.44246e-24
0
-7.73851e-23
3.09726e-23
-3.79718e-23
0
6.1401e-23
-2.43898e-22
-1.10103e-22
-7.463e-23
9.56791e-23
0
0
0
0
0
0
0
0
0
0
0
0
0
0
0
0
0
0
0
0
0
0
0
0
0
-4.68512e-24
3.7481e-24
0
1.14413e-23
1.17183e-23
1.56244e-23
-8.05411e-24
-6.04058e-24
6.2692e-24
-2.08973e-24
-6.55101e-24
-4.36734e-24
-4.59611e-24
-4.59611e-24
-4.87304e-24
-7.30956e-24
1.04156e-23
-7.81172e-24
-4.21003e-24
-4.21003e-24
-1.52679e-24
-2.29018e-24
8.39078e-25
7.86636e-25
7.46183e-24
3.73091e-24
8.39862e-24
4.19931e-24
2.87512e-23
1.43756e-23
4.44103e-23
3.33077e-23
-2.6156e-23
9.15459e-23
6.27664e-23
3.13832e-23
-1.53762e-22
7.68808e-23
-1.44579e-22
-9.6386e-23
0
-9.30056e-23
-2.04887e-22
1.6391e-22
-1.66126e-22
-5.53752e-23
7.48784e-23
-2.24635e-22
-2.87314e-22
-1.43657e-22
3.47508e-24
0
-1.49551e-23
2.70057e-24
0
7.60839e-24
1.27837e-23
0
-3.117e-23
-3.28001e-23
0
8.03368e-24
1.24835e-23
0
0
-2.44992e-23
0
8.71232e-24
-2.58486e-23
0
4.5843e-24
-2.14938e-23
0
4.86048e-24
-1.29855e-23
0
-5.19435e-24
-1.75448e-23
0
2.79943e-24
-1.61116e-23
0
0
-4.98985e-24
0
1.67383e-24
7.83714e-24
-0
0
2.671e-23
-0
-4.18871e-24
6.15066e-23
-0
-9.56007e-24
7.66588e-23
-0
-2.21521e-23
6.54508e-23
-0
0
1.23515e-22
-0
0
7.72128e-23
-0
-3.83637e-23
-6.44464e-23
-0
4.81062e-23
-2.49495e-23
-0
6.19067e-23
1.80828e-22
-0
8.18502e-23
-1.03594e-22
-0
0
-2.34345e-23
-0
1.49677e-22
-1.94305e-22
-0
9.57555e-23
0
0
3.8496e-24
-3.96831e-24
4.11802e-24
-4.30267e-24
0
-4.79996e-24
0
0
-1.5036e-24
-4.13166e-25
7.34889e-24
8.27268e-24
1.88849e-23
2.18866e-23
-5.15901e-23
6.19451e-23
-1.13915e-22
0
0
-1.62598e-22
-1.10103e-22
7.463e-23
0
9.37025e-24
0
1.5255e-23
0
-3.90611e-24
0
1.20812e-23
0
-6.2692e-24
0
6.55102e-24
0
6.89418e-24
0
7.30957e-24
0
-1.30195e-24
0
4.21004e-24
0
2.67188e-24
0
-8.39079e-25
0
-3.73092e-24
-0
-8.39863e-24
-0
-1.91675e-23
-0
-5.5513e-23
-0
6.539e-23
-0
-6.27665e-23
-0
1.53762e-22
-0
-7.22896e-23
-0
-1.24008e-22
-0
1.6391e-22
-0
5.53752e-23
-0
-2.24635e-22
-0
-2.39428e-22
-0
-1.21813e-23
0
-7.62751e-24
1.5255e-23
-7.81222e-24
1.56244e-23
-4.02706e-24
-2.41623e-23
4.17947e-24
4.17947e-24
-6.55101e-24
-1.74694e-23
-4.59611e-24
-1.37883e-23
-4.87304e-24
-1.70557e-23
0
-7.81172e-24
-2.80669e-24
-9.82341e-24
-2.29018e-24
-3.81696e-24
0
4.79848e-24
3.73091e-24
1.86546e-23
1.25979e-23
3.35945e-23
1.91675e-23
6.70861e-23
3.33077e-23
9.99232e-23
0
9.15459e-23
3.13832e-23
1.41224e-22
0
1.34541e-22
0
-7.22895e-23
0
-9.30056e-23
4.09774e-23
1.6391e-22
1.1075e-22
-1.66126e-22
7.48784e-23
-1.87196e-22
-9.57714e-23
-1.91543e-22
-0
-0
-0
-0
-0
-0
-0
-0
-0
-0
-0
0
0
0
0
0
0
0
0
0
0
0
0
0
0
)
;
    }
    baffle_master
    {
        type            calculated;
        value           nonuniform List<scalar> 
150
(
1.94529e-27
0
0
-1.89388e-27
0
0
1.71045e-27
0
-7.95205e-27
6.89413e-28
0
3.97636e-27
-4.47834e-27
0
-1.98834e-27
-3.56483e-28
0
-1.98851e-27
3.25557e-27
0
0
-1.54677e-27
0
0
1.16288e-27
0
0
-2.96111e-27
0
1.59134e-26
-9.16646e-27
0
-1.59147e-26
4.71413e-27
0
0
-7.84757e-28
0
9.94833e-28
1.37496e-27
0
0
-8.75001e-27
0
0
5.05909e-27
0
0
8.88224e-26
0
3.18452e-26
4.59383e-28
0
0
1.16375e-26
0
7.9626e-27
2.65749e-27
0
-3.98163e-27
-4.7009e-27
0
-1.59278e-26
6.22006e-26
0
4.77874e-26
-4.95973e-27
0
1.59304e-26
-2.15103e-27
0
-3.98294e-27
-2.51674e-27
0
1.5933e-26
0
-1.54702e-26
0
7.9514e-27
-1.78898e-26
0
7.95205e-27
-8.92187e-27
0
7.95271e-27
-8.39312e-27
0
9.94171e-28
1.93851e-27
0
-1.98851e-27
5.30664e-27
-0
7.95469e-27
1.4755e-26
-0
-1.59107e-26
2.74482e-26
-0
1.5912e-26
2.11337e-26
-0
-3.18267e-26
3.07206e-26
-0
1.59147e-26
1.35488e-26
-0
-7.958e-27
1.79083e-26
-0
0
1.99094e-27
-0
0
-9.34456e-27
0
1.592e-26
-1.86762e-26
0
1.59213e-26
-7.31005e-27
0
-4.77677e-26
-1.29983e-26
0
1.59239e-26
-2.05577e-26
0
-3.9813e-27
1.25672e-27
0
-3.98163e-27
-3.89019e-27
-0
-7.96391e-27
-1.55849e-26
-0
3.18583e-26
-7.5374e-26
-0
1.59304e-26
1.12149e-26
-0
3.98294e-27
-4.90521e-27
-0
0
1.88019e-26
0
)
;
    }
    baffle_slave
    {
        type            calculated;
        value           nonuniform List<scalar> 
150
(
-1.15074e-24
-0
7.3898e-24
7.31673e-25
-0
-3.75909e-24
1.64837e-25
-0
3.8496e-24
-2.78039e-25
-0
0
-1.42335e-23
-0
-1.64721e-23
3.55033e-24
-0
0
1.12779e-24
-0
0
6.72522e-25
-0
0
-2.71487e-24
-0
-2.56465e-24
-2.58179e-25
-0
2.76419e-24
2.80871e-24
-0
1.5036e-24
-2.05808e-25
0
8.26333e-25
-2.28792e-25
0
3.67445e-24
-7.72676e-25
0
0
-2.05795e-24
0
-9.44246e-24
6.13354e-24
0
0
-7.39045e-23
0
-1.0318e-22
-4.82357e-24
0
-3.09726e-23
-7.33447e-23
0
-1.13915e-22
2.22775e-23
0
-4.76586e-23
9.57031e-24
0
-6.1401e-23
1.57198e-22
0
8.12992e-23
-1.71781e-23
0
1.10103e-22
-4.66045e-24
0
0
-1.79356e-23
0
0
-4.52577e-24
1.48446e-23
0
7.83523e-25
8.67032e-24
0
-1.69534e-24
9.22336e-24
0
-2.80263e-24
1.07045e-23
0
-6.08956e-25
-1.58684e-23
0
-3.4036e-24
8.20595e-24
0
-5.50627e-24
9.97389e-24
0
-3.05194e-24
1.05175e-23
0
5.68152e-24
6.5676e-24
0
-1.89141e-24
7.32582e-24
0
-5.781e-25
7.25583e-24
0
2.50126e-26
1.74937e-24
0
5.2345e-24
-4.57584e-25
0
3.57265e-24
-5.66629e-24
0
1.24872e-23
-7.64383e-24
0
6.75736e-24
-2.38527e-23
0
-5.69704e-23
-3.65506e-23
0
7.27365e-24
-4.92004e-23
0
-6.70665e-23
-1.41957e-23
0
4.40375e-23
6.08918e-23
0
-3.09264e-23
3.0625e-23
0
-1.61773e-22
1.31843e-22
0
-2.07127e-22
-7.55836e-23
0
-1.65228e-23
4.66045e-23
0
-4.05606e-23
9.56564e-23
0
)
;
    }
}


// ************************************************************************* //
