/*--------------------------------*- C++ -*----------------------------------*\
| =========                 |                                                 |
| \\      /  F ield         | OpenFOAM: The Open Source CFD Toolbox           |
|  \\    /   O peration     | Version:  2212                                  |
|   \\  /    A nd           | Website:  www.openfoam.com                      |
|    \\/     M anipulation  |                                                 |
\*---------------------------------------------------------------------------*/
FoamFile
{
    version     2.0;
    format      ascii;
    arch        "LSB;label=32;scalar=64";
    class       surfaceScalarField;
    location    "34/fluidRegion";
    object      alphaPhi;
}
// * * * * * * * * * * * * * * * * * * * * * * * * * * * * * * * * * * * * * //

dimensions      [0 3 -1 0 0 0 0];

oriented        oriented;

internalField   nonuniform List<scalar> 
661
(
-0.000538902
-4.7251e-11
-0.000538867
-5.31704e-11
-0.000538835
-4.02777e-11
-0.000538802
-2.39299e-11
-0.000538768
-6.35978e-12
-0.000538731
1.458e-11
-0.000538691
3.82406e-11
-0.000538648
6.03461e-11
-0.000538601
7.49626e-11
-0.000538552
7.70001e-11
-0.000538501
6.44028e-11
-0.00053845
3.86661e-11
-0.000538398
4.31342e-12
-0.000538347
-3.18478e-11
-0.000538298
-6.17093e-11
-0.000538251
-7.76069e-11
-0.000538207
-7.47595e-11
-0.000538165
-5.34023e-11
-0.000538125
-1.90793e-11
-0.000538086
1.98337e-11
-0.000538046
5.55441e-11
-0.000538005
8.09774e-11
-0.000537962
8.43649e-11
-0.000537916
3.02367e-11
-6.66974e-11
-0.000538902
-0.000538867
-0.000538835
-0.000538802
-0.000538768
-0.000538731
-0.000538691
-0.000538648
-0.000538601
-0.000538552
-0.000538501
-0.00053845
-0.000538398
-0.000538347
-0.000538298
-0.000538251
-0.000538207
-0.000538165
-0.000538125
-0.000538086
-0.000538046
-0.000538005
-0.000537962
-0.000537916
-0.0199334
1.37726e-06
-0.0195262
6.8007e-07
-0.019002
7.4251e-07
-0.0183698
6.67742e-07
-0.0176391
6.04062e-07
-0.0168197
5.44717e-07
-0.015922
4.89436e-07
-0.0149563
4.35303e-07
-0.0139334
3.76638e-07
-0.0128645
3.04007e-07
-0.0117615
2.06142e-07
-0.0106373
7.18811e-08
-0.0095062
-1.00743e-07
-0.00838387
-2.98099e-07
-0.00728711
-4.9747e-07
-0.00623296
-6.65969e-07
-0.00523748
-7.78393e-07
-0.00431472
-8.28644e-07
-0.00347619
-8.30569e-07
-0.00273163
-8.07733e-07
-0.0020898
-7.81249e-07
-0.00156007
-7.55414e-07
-0.00115298
-7.18964e-07
-0.000879198
-6.2339e-07
-5.90231e-07
-0.0200604
-4.58652e-08
-4.19252e-08
-0.0196525
-1.82678e-07
-1.83246e-07
-0.0191263
-1.72414e-07
-1.71728e-07
-0.0184913
-1.49654e-07
-1.48371e-07
-0.0177569
-1.30078e-07
-1.28128e-07
-0.0169332
-1.1201e-07
-1.09729e-07
-0.0160303
-9.53621e-08
-9.26555e-08
-0.0150588
-7.95212e-08
-7.63749e-08
-0.0140296
-6.28274e-08
-5.90956e-08
-0.0129537
-4.27434e-08
-3.83698e-08
-0.0118433
-1.55204e-08
-1.03147e-08
-0.0107111
2.1868e-08
2.77042e-08
-0.00957162
7.00016e-08
7.69621e-08
-0.00844064
1.29368e-07
1.37337e-07
-0.00733516
1.90249e-07
1.99254e-07
-0.0062725
2.43032e-07
2.531e-07
-0.00526896
2.79188e-07
2.90341e-07
-0.0043388
2.96032e-07
3.08304e-07
-0.00349371
2.97347e-07
3.10919e-07
-0.00274354
2.90514e-07
3.05246e-07
-0.00209711
2.81601e-07
2.97433e-07
-0.00156385
2.71011e-07
2.86887e-07
-0.0011544
2.51275e-07
2.66974e-07
-0.00087939
1.97602e-07
2.11122e-07
1.50008e-07
1.59968e-07
-0.0199125
6.90957e-07
-0.0195057
6.7171e-07
-0.0189819
6.46747e-07
-0.0183502
5.75029e-07
-0.0176201
5.10756e-07
-0.0168016
4.51555e-07
-0.0159047
3.96272e-07
-0.0149399
3.41848e-07
-0.0139181
2.81619e-07
-0.0128503
2.05647e-07
-0.0117485
1.01578e-07
-0.0106257
-4.0444e-08
-0.0094959
-2.21987e-07
-0.00837493
-4.29395e-07
-0.00727954
-6.36066e-07
-0.00622672
-8.0725e-07
-0.00523249
-9.17339e-07
-0.00431086
-9.61477e-07
-0.00347334
-9.55607e-07
-0.00272963
-9.24801e-07
-0.00208849
-8.89337e-07
-0.00155928
-8.52118e-07
-0.00115254
-7.90329e-07
-0.000878983
-6.52771e-07
-5.29769e-07
-0.0200321
2.41905e-09
-0.0196243
-1.04226e-09
-0.0190985
-8.28871e-10
-0.018464
-9.45463e-10
-0.0177304
-9.09015e-10
-0.0169076
-8.70161e-10
-0.0160059
-8.60925e-10
-0.0150357
-7.38066e-10
-0.0140078
-5.8087e-10
-0.0129335
-3.78662e-10
-0.0118247
-2.39009e-11
-0.0106943
4.80188e-10
-0.00955673
1.03695e-09
-0.0084277
1.65327e-09
-0.0073242
2.27081e-09
-0.00626347
2.86653e-09
-0.00526177
3.45286e-09
-0.0043333
4.03238e-09
-0.00348971
4.46372e-09
-0.00274083
4.76109e-09
-0.00209545
4.95267e-09
-0.00156301
4.77364e-09
-0.00115409
4.37154e-09
-0.000879372
3.54711e-09
2.53703e-09
-0.0200322
-6.8598e-07
-0.0196243
-6.74165e-07
-0.0190985
-6.48574e-07
-0.0184641
-5.77161e-07
-0.0177305
-5.1294e-07
-0.0169077
-4.538e-07
-0.0160059
-3.98573e-07
-0.0150357
-3.44032e-07
-0.0140078
-2.83623e-07
-0.0129335
-2.07349e-07
-0.0118247
-1.02679e-07
-0.0106943
4.00096e-08
-0.00955674
2.22493e-07
-0.00842771
4.30886e-07
-0.00732421
6.38567e-07
-0.00626348
8.10788e-07
-0.00526177
9.22005e-07
-0.0043333
9.67389e-07
-0.00348972
9.62747e-07
-0.00274083
9.33164e-07
-0.00209546
8.98941e-07
-0.00156301
8.624e-07
-0.0011541
8.00783e-07
-0.000879373
6.61965e-07
5.36956e-07
-0.0199126
4.09648e-08
-0.0195057
1.81831e-07
-0.0189819
1.71302e-07
-0.0183502
1.48535e-07
-0.0176202
1.28991e-07
-0.0168016
1.10573e-07
-0.0159047
9.36739e-08
-0.0149399
7.733e-08
-0.0139181
6.01957e-08
-0.0128503
3.9398e-08
-0.0117486
1.15888e-08
-0.0106257
-2.63949e-08
-0.00949591
-7.52475e-08
-0.00837494
-1.35368e-07
-0.00727954
-1.96938e-07
-0.00622672
-2.50369e-07
-0.0052325
-2.87002e-07
-0.00431087
-3.04057e-07
-0.00347334
-3.054e-07
-0.00272963
-2.98188e-07
-0.00208849
-2.88703e-07
-0.00155928
-2.7715e-07
-0.00115254
-2.56464e-07
-0.000878982
-2.01575e-07
-1.51392e-07
-0.0200604
-1.37822e-06
-4.55363e-08
-0.0196525
-6.81229e-07
-1.82346e-07
-0.0191263
-7.429e-07
-1.71529e-07
-0.0184913
-6.6785e-07
-1.48183e-07
-0.0177569
-6.03792e-07
-1.28126e-07
-0.0169332
-5.44615e-07
-1.09803e-07
-0.0160303
-4.89262e-07
-9.28888e-08
-0.0150588
-4.3534e-07
-7.68352e-08
-0.0140296
-3.76666e-07
-5.98947e-08
-0.0129537
-3.04238e-07
-3.95984e-08
-0.0118433
-2.06274e-07
-1.22604e-08
-0.0107111
-7.19879e-08
2.52478e-08
-0.00957162
1.01e-07
7.33112e-08
-0.00844064
2.98644e-07
1.32459e-07
-0.00733516
4.98619e-07
1.92896e-07
-0.0062725
6.68013e-07
2.44929e-07
-0.00526896
7.81907e-07
2.79825e-07
-0.0043388
8.34396e-07
2.94774e-07
-0.00349371
8.39609e-07
2.93522e-07
-0.00274354
8.21345e-07
2.8324e-07
-0.00209711
8.01119e-07
2.69508e-07
-0.00156385
7.81662e-07
2.53818e-07
-0.0011544
7.51228e-07
2.29833e-07
-0.00087939
6.56782e-07
1.7504e-07
6.21934e-07
1.29907e-07
-0.0199334
-0.0195262
-0.019002
-0.0183698
-0.0176391
-0.0168197
-0.015922
-0.0149563
-0.0139334
-0.0128645
-0.0117615
-0.0106373
-0.0095062
-0.00838387
-0.00728711
-0.00623296
-0.00523748
-0.00431472
-0.00347619
-0.00273163
-0.0020898
-0.00156007
-0.00115298
-0.000879198
-0.0200321
-6.92978e-07
3.92696e-09
-0.0196243
-6.74087e-07
7.51399e-10
-0.0190985
-6.49325e-07
1.43945e-09
-0.018464
-5.77876e-07
1.65166e-09
-0.0177304
-5.1376e-07
1.90067e-09
-0.0169076
-4.54916e-07
2.14327e-09
-0.0160059
-3.99992e-07
2.53483e-09
-0.0150357
-3.46016e-07
2.91455e-09
-0.0140078
-2.86198e-07
3.42013e-09
-0.0129335
-2.10762e-07
4.06029e-09
-0.0118247
-1.06998e-07
4.81932e-09
-0.0106943
3.47578e-08
5.09159e-09
-0.00955673
2.15925e-07
6.13382e-09
-0.0084277
4.22926e-07
7.11172e-09
-0.0073242
6.29058e-07
8.31054e-09
-0.00626347
7.99425e-07
9.77526e-09
-0.00526177
9.08284e-07
1.16038e-08
-0.0043333
9.50591e-07
1.38292e-08
-0.00348971
9.41666e-07
1.6942e-08
-0.00274083
9.06687e-07
2.07345e-08
-0.00209545
8.64847e-07
2.58566e-08
-0.00156301
8.20733e-07
3.05548e-08
-0.00115409
7.51836e-07
3.48861e-08
-0.000879372
6.11638e-07
3.42743e-08
4.93519e-07
2.96743e-08
-0.0199125
-0.0195057
-0.0189819
-0.0183502
-0.0176201
-0.0168016
-0.0159047
-0.0149399
-0.0139181
-0.0128503
-0.0117485
-0.0106257
-0.0094959
-0.00837493
-0.00727954
-0.00622672
-0.00523249
-0.00431086
-0.00347334
-0.00272963
-0.00208849
-0.00155928
-0.00115254
-0.000878984
-0.0199126
6.83639e-07
-0.0195057
6.71306e-07
-0.0189819
6.46279e-07
-0.0183502
5.74926e-07
-0.0176202
5.10999e-07
-0.0168016
4.51436e-07
-0.0159047
3.96088e-07
-0.0149399
3.41095e-07
-0.0139181
2.8053e-07
-0.0128503
2.03748e-07
-0.0117486
9.90036e-08
-0.0106257
-4.36107e-08
-0.00949591
-2.26149e-07
-0.00837494
-4.34623e-07
-0.00727954
-6.42245e-07
-0.00622672
-8.14402e-07
-0.0052325
-9.25243e-07
-0.00431087
-9.69757e-07
-0.00347334
-9.63561e-07
-0.00272963
-9.31322e-07
-0.00208849
-8.93571e-07
-0.00155928
-8.52593e-07
-0.00115254
-7.86102e-07
-0.000878982
-6.44581e-07
-5.16068e-07
-0.0200322
-0.0196243
-0.0190985
-0.0184641
-0.0177305
-0.0169077
-0.0160059
-0.0150357
-0.0140078
-0.0129335
-0.0118247
-0.0106943
-0.00955674
-0.00842771
-0.00732421
-0.00626348
-0.00526177
-0.0043333
-0.00348972
-0.00274083
-0.00209545
-0.00156301
-0.0011541
-0.000879373
)
;

boundaryField
{
    outletCentralUnloaded
    {
        type            calculated;
        value           nonuniform List<scalar> 2(0.000538942 0.000538942);
    }
    inletCentralUnloaded
    {
        type            calculated;
        value           uniform -0.000540134;
    }
    outletFuelElement
    {
        type            calculated;
        value           nonuniform List<scalar> 
12
(
0.0202582
0.0203883
0.0202379
0.0203592
0.0203592
0.0202379
0.0203883
0.0202582
0.0203592
0.0202379
0.0202379
0.0203592
)
;
    }
    inletFuelElement
    {
        type            calculated;
        value           nonuniform List<scalar> 
12
(
-0.000722059
-0.00072206
-0.000722059
-0.000722059
-0.00072206
-0.000722059
-0.00072206
-0.000722059
-0.000722059
-0.000722059
-0.000722059
-0.00072206
)
;
    }
    defaultFaces
    {
        type            calculated;
        value           nonuniform List<scalar> 
450
(
1.58349e-23
-4.83177e-23
0
1.4386e-23
-5.44994e-24
0
3.99021e-23
1.67132e-24
0
-4.41248e-23
-2.80433e-23
0
-1.59762e-23
-3.63138e-23
0
-3.54537e-23
-1.57223e-23
0
-3.8274e-23
-3.46367e-24
0
-2.86356e-23
-1.77092e-23
0
-2.20182e-23
-1.40765e-24
0
-2.15201e-23
-1.86224e-24
0
-1.10338e-23
-4.21145e-24
0
-4.47807e-24
-1.52691e-24
0
6.29173e-24
3.65047e-24
0
1.8485e-23
9.6021e-24
0
3.82068e-23
2.02026e-23
0
4.30941e-23
2.14054e-23
0
6.03922e-23
9.23405e-24
0
4.99631e-23
3.18594e-23
0
3.11673e-23
-5.51772e-23
0
-1.53951e-23
-2.61392e-23
0
-1.72768e-23
-2.30921e-23
0
2.02995e-23
-2.96114e-23
0
-1.69256e-23
1.23479e-23
0
-1.92347e-23
-8.67461e-24
0
-1.75571e-23
-2.83987e-23
0
1.80511e-23
0
2.40681e-23
0
8.0227e-24
0
2.40681e-23
0
-4.01135e-24
0
1.2034e-23
0
1.2034e-23
0
1.60454e-23
0
-4.01135e-24
0
6.01702e-24
0
5.01419e-24
0
-1.00284e-24
0
-1.00284e-23
0
-1.2034e-23
0
0
0
-1.60454e-23
0
4.01135e-23
0
-3.20908e-23
0
1.60454e-23
0
-3.20908e-23
0
-1.60454e-23
0
3.20908e-23
0
1.60454e-23
0
-3.20908e-23
0
-3.20908e-23
0
-1.60454e-23
-8.0227e-24
0
-8.0227e-24
1.60454e-23
-8.0227e-24
-8.0227e-24
0
8.0227e-24
-4.01135e-24
-2.00567e-24
1.00284e-24
0
8.0227e-24
8.0227e-24
0
-4.81362e-23
1.60454e-23
-1.60454e-23
0
1.60454e-23
-4.81362e-23
-1.60454e-23
-8.0227e-24
8.0227e-24
0
0
0
0
0
0
0
0
0
0
0
0
0
0
0
0
0
0
0
0
0
0
0
0
0
-1.00284e-23
8.0227e-24
0
2.40681e-23
2.40681e-23
3.20908e-23
-1.60454e-23
-1.2034e-23
1.2034e-23
-4.01135e-24
-1.2034e-23
-8.0227e-24
-8.0227e-24
-8.0227e-24
-8.0227e-24
-1.2034e-23
1.60454e-23
-1.2034e-23
-6.01702e-24
-6.01702e-24
-2.00567e-24
-3.00851e-24
1.00284e-24
9.4016e-25
8.0227e-24
4.01135e-24
8.0227e-24
4.01135e-24
2.40681e-23
1.2034e-23
3.20908e-23
2.40681e-23
-1.60454e-23
5.61589e-23
3.20908e-23
1.60454e-23
-6.41816e-23
3.20908e-23
-4.81362e-23
-3.20908e-23
0
-2.40681e-23
-4.01135e-23
3.20908e-23
-2.40681e-23
-8.0227e-24
8.0227e-24
-2.40681e-23
-2.40681e-23
-1.2034e-23
7.45687e-24
0
-3.20908e-23
5.69525e-24
0
1.60454e-23
2.63227e-23
0
-6.41816e-23
-6.55106e-23
0
1.60454e-23
2.4024e-23
0
0
-4.512e-23
0
1.60454e-23
-4.5236e-23
0
8.0227e-24
-3.54777e-23
0
8.0227e-24
-2.00561e-23
0
-8.0227e-24
-2.51402e-23
0
4.01135e-24
-2.122e-23
0
0
-5.97911e-24
0
2.00567e-24
8.44783e-24
-0
0
2.5579e-23
-0
-4.01135e-24
5.16157e-23
-0
-8.0227e-24
5.55262e-23
-0
-1.60454e-23
4.02429e-23
-0
0
6.32865e-23
-0
0
3.22938e-23
-0
-1.60454e-23
-2.14955e-23
-0
1.60454e-23
-6.46659e-24
-0
1.60454e-23
3.54483e-23
-0
1.60454e-23
-1.50225e-23
-0
0
-2.51217e-24
-0
1.60454e-23
-1.62795e-23
-0
8.0227e-24
0
0
8.0227e-24
-8.0227e-24
8.0227e-24
-8.0227e-24
0
-8.0227e-24
0
0
-2.00567e-24
-5.01419e-25
8.0227e-24
8.0227e-24
1.60454e-23
1.60454e-23
-3.20908e-23
3.20908e-23
-4.81362e-23
0
0
-3.20908e-23
-1.60454e-23
8.0227e-24
0
2.00567e-23
0
3.20908e-23
0
-8.0227e-24
0
2.40681e-23
0
-1.2034e-23
0
1.2034e-23
0
1.2034e-23
0
1.2034e-23
0
-2.00567e-24
0
6.01702e-24
0
3.50993e-24
0
-1.00284e-24
0
-4.01135e-24
-0
-8.0227e-24
-0
-1.60454e-23
-0
-4.01135e-23
-0
4.01135e-23
-0
-3.20908e-23
-0
6.41816e-23
-0
-2.40681e-23
-0
-3.20908e-23
-0
3.20908e-23
-0
8.0227e-24
-0
-2.40681e-23
-0
-2.00567e-23
-0
-2.60738e-23
0
-1.60454e-23
3.20908e-23
-1.60454e-23
3.20908e-23
-8.0227e-24
-4.81362e-23
8.0227e-24
8.0227e-24
-1.2034e-23
-3.20908e-23
-8.0227e-24
-2.40681e-23
-8.0227e-24
-2.80794e-23
0
-1.2034e-23
-4.01135e-24
-1.40397e-23
-3.00851e-24
-5.01419e-24
0
5.73498e-24
4.01135e-24
2.00567e-23
1.2034e-23
3.20908e-23
1.60454e-23
5.61589e-23
2.40681e-23
7.22043e-23
0
5.61589e-23
1.60454e-23
7.22043e-23
0
5.61589e-23
0
-2.40681e-23
0
-2.40681e-23
8.0227e-24
3.20908e-23
1.60454e-23
-2.40681e-23
8.0227e-24
-2.00567e-23
-8.0227e-24
-1.60454e-23
-0
-0
-0
-0
-0
-0
-0
-0
-0
-0
-0
0
0
0
0
0
0
0
0
0
0
0
0
0
0
)
;
    }
    baffle_master
    {
        type            calculated;
        value           nonuniform List<scalar> 
150
(
1.7924e-28
0
0
-1.74489e-28
0
0
1.57576e-28
0
-7.32588e-28
6.35073e-29
0
3.66294e-28
-4.12502e-28
0
-1.83147e-28
-3.28331e-29
0
-1.83147e-28
2.99822e-28
0
0
-1.42438e-28
0
0
1.07078e-28
0
0
-2.72636e-28
0
1.46518e-27
-8.43905e-28
0
-1.46518e-27
4.33968e-28
0
0
-7.22363e-29
0
9.15735e-29
1.26554e-28
0
0
-8.05298e-28
0
0
4.65569e-28
0
0
8.17333e-27
0
2.93035e-27
4.22683e-29
0
0
1.07069e-27
0
7.32588e-28
2.44479e-28
0
-3.66294e-28
-4.32428e-28
0
-1.46518e-27
5.72126e-27
0
4.39553e-27
-4.56163e-28
0
1.46518e-27
-1.97821e-28
0
-3.66294e-28
-2.31435e-28
0
1.46518e-27
0
-1.42543e-27
0
7.32588e-28
-1.64824e-27
0
7.32588e-28
-8.21932e-28
0
7.32588e-28
-7.73157e-28
0
9.15735e-29
1.78557e-28
0
-1.83147e-28
4.88756e-28
-0
7.32588e-28
1.35886e-27
-0
-1.46518e-27
2.52763e-27
-0
1.46518e-27
1.94599e-27
-0
-2.93035e-27
2.82851e-27
-0
1.46518e-27
1.24736e-27
-0
-7.32588e-28
1.64858e-27
-0
0
1.83265e-28
-0
0
-8.60087e-28
0
1.46518e-27
-1.71884e-27
0
1.46518e-27
-6.72717e-28
0
-4.39553e-27
-1.19609e-27
0
1.46518e-27
-1.89154e-27
0
-3.66294e-28
1.15623e-28
0
-3.66294e-28
-3.57882e-28
-0
-7.32588e-28
-1.43363e-27
-0
2.93035e-27
-6.93297e-27
-0
1.46518e-27
1.03147e-27
-0
3.66294e-28
-4.51112e-28
-0
0
1.72899e-27
0
)
;
    }
    baffle_slave
    {
        type            calculated;
        value           nonuniform List<scalar> 
150
(
-2.50709e-24
-0
1.60454e-23
1.56693e-24
-0
-8.0227e-24
3.44725e-25
-0
8.0227e-24
-5.64096e-25
-0
0
-2.78287e-23
-0
-3.20908e-23
6.6438e-24
-0
0
2.00567e-24
-0
0
1.12819e-24
-0
0
-4.26206e-24
-0
-4.01135e-24
-3.76064e-25
-0
4.01135e-24
3.76064e-24
-0
2.00567e-24
-2.50709e-25
0
1.00284e-24
-2.50709e-25
0
4.01135e-24
-7.52128e-25
0
0
-1.75497e-24
0
-8.0227e-24
4.51277e-24
0
0
-4.61305e-23
0
-6.41816e-23
-2.50709e-24
0
-1.60454e-23
-3.1088e-23
0
-4.81362e-23
7.52128e-24
0
-1.60454e-23
2.50709e-24
0
-1.60454e-23
3.1088e-23
0
1.60454e-23
-2.50709e-24
0
1.60454e-23
-5.01419e-25
0
0
-1.50426e-24
0
0
-9.82677e-24
3.23415e-23
0
1.67221e-24
1.85682e-23
0
-3.53315e-24
1.9289e-23
0
-5.66606e-24
2.17177e-23
0
-1.18637e-24
-3.10253e-23
0
-6.3463e-24
1.53559e-23
0
-9.75685e-24
1.77377e-23
0
-5.10104e-24
1.76437e-23
0
8.88643e-24
1.03104e-23
0
-2.74479e-24
1.06708e-23
0
-7.71136e-25
9.71499e-24
0
3.03553e-26
2.13103e-24
0
5.71444e-24
-5.01419e-25
0
3.46469e-24
-5.51561e-24
0
1.06096e-23
-6.51844e-24
0
4.95393e-24
-1.75497e-23
0
-3.54376e-23
-2.28146e-23
0
3.76813e-24
-2.55724e-23
0
-2.83397e-23
-6.01702e-24
0
1.48263e-23
2.05582e-23
0
-8.08172e-24
8.0227e-24
0
-3.19279e-23
2.60738e-23
0
-3.01847e-23
-1.10312e-23
0
-1.77619e-24
5.01419e-24
0
-3.401e-24
8.0227e-24
0
)
;
    }
}


// ************************************************************************* //
