/*--------------------------------*- C++ -*----------------------------------*\
| =========                 |                                                 |
| \\      /  F ield         | OpenFOAM: The Open Source CFD Toolbox           |
|  \\    /   O peration     | Version:  2212                                  |
|   \\  /    A nd           | Website:  www.openfoam.com                      |
|    \\/     M anipulation  |                                                 |
\*---------------------------------------------------------------------------*/
FoamFile
{
    version     2.0;
    format      ascii;
    arch        "LSB;label=32;scalar=64";
    class       volTensorField;
    location    "34/fluidRegion";
    object      Kd;
}
// * * * * * * * * * * * * * * * * * * * * * * * * * * * * * * * * * * * * * //

dimensions      [1 -3 -1 0 0 0 0];

internalField   nonuniform List<tensor> 
350
(
(84.7339 0 0 0 84.7339 0 0 0 84.7339)
(84.7347 0 0 0 84.7347 0 0 0 84.7347)
(84.7359 0 0 0 84.7359 0 0 0 84.7359)
(84.7373 0 0 0 84.7373 0 0 0 84.7373)
(84.7386 0 0 0 84.7386 0 0 0 84.7386)
(84.7397 0 0 0 84.7397 0 0 0 84.7397)
(84.7405 0 0 0 84.7405 0 0 0 84.7405)
(84.7408 0 0 0 84.7408 0 0 0 84.7408)
(84.7408 0 0 0 84.7408 0 0 0 84.7408)
(84.7405 0 0 0 84.7405 0 0 0 84.7405)
(84.7399 0 0 0 84.7399 0 0 0 84.7399)
(84.7391 0 0 0 84.7391 0 0 0 84.7391)
(84.7383 0 0 0 84.7383 0 0 0 84.7383)
(84.7375 0 0 0 84.7375 0 0 0 84.7375)
(84.7368 0 0 0 84.7368 0 0 0 84.7368)
(84.7364 0 0 0 84.7364 0 0 0 84.7364)
(84.7362 0 0 0 84.7362 0 0 0 84.7362)
(84.7364 0 0 0 84.7364 0 0 0 84.7364)
(84.7368 0 0 0 84.7368 0 0 0 84.7368)
(84.7373 0 0 0 84.7373 0 0 0 84.7373)
(84.7379 0 0 0 84.7379 0 0 0 84.7379)
(84.7384 0 0 0 84.7384 0 0 0 84.7384)
(84.7387 0 0 0 84.7387 0 0 0 84.7387)
(84.7386 0 0 0 84.7386 0 0 0 84.7386)
(84.8721 0 0 0 84.8721 0 0 0 84.8721)
(84.7339 0 0 0 84.7339 0 0 0 84.7339)
(84.7347 0 0 0 84.7347 0 0 0 84.7347)
(84.7359 0 0 0 84.7359 0 0 0 84.7359)
(84.7373 0 0 0 84.7373 0 0 0 84.7373)
(84.7386 0 0 0 84.7386 0 0 0 84.7386)
(84.7397 0 0 0 84.7397 0 0 0 84.7397)
(84.7405 0 0 0 84.7405 0 0 0 84.7405)
(84.7408 0 0 0 84.7408 0 0 0 84.7408)
(84.7408 0 0 0 84.7408 0 0 0 84.7408)
(84.7405 0 0 0 84.7405 0 0 0 84.7405)
(84.7399 0 0 0 84.7399 0 0 0 84.7399)
(84.7391 0 0 0 84.7391 0 0 0 84.7391)
(84.7383 0 0 0 84.7383 0 0 0 84.7383)
(84.7375 0 0 0 84.7375 0 0 0 84.7375)
(84.7368 0 0 0 84.7368 0 0 0 84.7368)
(84.7364 0 0 0 84.7364 0 0 0 84.7364)
(84.7362 0 0 0 84.7362 0 0 0 84.7362)
(84.7364 0 0 0 84.7364 0 0 0 84.7364)
(84.7368 0 0 0 84.7368 0 0 0 84.7368)
(84.7373 0 0 0 84.7373 0 0 0 84.7373)
(84.7379 0 0 0 84.7379 0 0 0 84.7379)
(84.7384 0 0 0 84.7384 0 0 0 84.7384)
(84.7387 0 0 0 84.7387 0 0 0 84.7387)
(84.7386 0 0 0 84.7386 0 0 0 84.7386)
(84.8721 0 0 0 84.8721 0 0 0 84.8721)
(681.287 0 0 0 681.287 0 0 0 681.287)
(680.759 0 0 0 680.759 0 0 0 680.759)
(680.772 0 0 0 680.772 0 0 0 680.772)
(680.776 0 0 0 680.776 0 0 0 680.776)
(680.768 0 0 0 680.768 0 0 0 680.768)
(680.747 0 0 0 680.747 0 0 0 680.747)
(680.712 0 0 0 680.712 0 0 0 680.712)
(680.662 0 0 0 680.662 0 0 0 680.662)
(680.593 0 0 0 680.593 0 0 0 680.593)
(680.506 0 0 0 680.506 0 0 0 680.506)
(680.397 0 0 0 680.397 0 0 0 680.397)
(680.267 0 0 0 680.267 0 0 0 680.267)
(680.117 0 0 0 680.117 0 0 0 680.117)
(679.946 0 0 0 679.946 0 0 0 679.946)
(679.752 0 0 0 679.752 0 0 0 679.752)
(679.524 0 0 0 679.524 0 0 0 679.524)
(679.246 0 0 0 679.246 0 0 0 679.246)
(678.903 0 0 0 678.903 0 0 0 678.903)
(678.487 0 0 0 678.487 0 0 0 678.487)
(678.055 0 0 0 678.055 0 0 0 678.055)
(677.79 0 0 0 677.79 0 0 0 677.79)
(678.24 0 0 0 678.24 0 0 0 678.24)
(680.706 0 0 0 680.706 0 0 0 680.706)
(687.46 0 0 0 687.46 0 0 0 687.46)
(691.673 0 0 0 691.673 0 0 0 691.673)
(676.793 0 0 0 676.793 0 0 0 676.793)
(676.193 0 0 0 676.193 0 0 0 676.193)
(676.167 0 0 0 676.167 0 0 0 676.167)
(676.13 0 0 0 676.13 0 0 0 676.13)
(676.085 0 0 0 676.085 0 0 0 676.085)
(676.03 0 0 0 676.03 0 0 0 676.03)
(675.964 0 0 0 675.964 0 0 0 675.964)
(675.883 0 0 0 675.883 0 0 0 675.883)
(675.788 0 0 0 675.788 0 0 0 675.788)
(675.675 0 0 0 675.675 0 0 0 675.675)
(675.547 0 0 0 675.547 0 0 0 675.547)
(675.406 0 0 0 675.406 0 0 0 675.406)
(675.259 0 0 0 675.259 0 0 0 675.259)
(675.115 0 0 0 675.115 0 0 0 675.115)
(674.981 0 0 0 674.981 0 0 0 674.981)
(674.857 0 0 0 674.857 0 0 0 674.857)
(674.73 0 0 0 674.73 0 0 0 674.73)
(674.587 0 0 0 674.587 0 0 0 674.587)
(674.421 0 0 0 674.421 0 0 0 674.421)
(674.293 0 0 0 674.293 0 0 0 674.293)
(674.399 0 0 0 674.399 0 0 0 674.399)
(675.32 0 0 0 675.32 0 0 0 675.32)
(678.412 0 0 0 678.412 0 0 0 678.412)
(685.998 0 0 0 685.998 0 0 0 685.998)
(691.199 0 0 0 691.199 0 0 0 691.199)
(682.038 0 0 0 682.038 0 0 0 682.038)
(681.507 0 0 0 681.507 0 0 0 681.507)
(681.525 0 0 0 681.525 0 0 0 681.525)
(681.531 0 0 0 681.531 0 0 0 681.531)
(681.525 0 0 0 681.525 0 0 0 681.525)
(681.507 0 0 0 681.507 0 0 0 681.507)
(681.473 0 0 0 681.473 0 0 0 681.473)
(681.424 0 0 0 681.424 0 0 0 681.424)
(681.356 0 0 0 681.356 0 0 0 681.356)
(681.268 0 0 0 681.268 0 0 0 681.268)
(681.158 0 0 0 681.158 0 0 0 681.158)
(681.025 0 0 0 681.025 0 0 0 681.025)
(680.869 0 0 0 680.869 0 0 0 680.869)
(680.687 0 0 0 680.687 0 0 0 680.687)
(680.476 0 0 0 680.476 0 0 0 680.476)
(680.225 0 0 0 680.225 0 0 0 680.225)
(679.915 0 0 0 679.915 0 0 0 679.915)
(679.531 0 0 0 679.531 0 0 0 679.531)
(679.066 0 0 0 679.066 0 0 0 679.066)
(678.576 0 0 0 678.576 0 0 0 678.576)
(678.238 0 0 0 678.238 0 0 0 678.238)
(678.597 0 0 0 678.597 0 0 0 678.597)
(680.95 0 0 0 680.95 0 0 0 680.95)
(687.57 0 0 0 687.57 0 0 0 687.57)
(691.69 0 0 0 691.69 0 0 0 691.69)
(677.799 0 0 0 677.799 0 0 0 677.799)
(677.219 0 0 0 677.219 0 0 0 677.219)
(677.203 0 0 0 677.203 0 0 0 677.203)
(677.178 0 0 0 677.178 0 0 0 677.178)
(677.144 0 0 0 677.144 0 0 0 677.144)
(677.098 0 0 0 677.098 0 0 0 677.098)
(677.041 0 0 0 677.041 0 0 0 677.041)
(676.969 0 0 0 676.969 0 0 0 676.969)
(676.881 0 0 0 676.881 0 0 0 676.881)
(676.776 0 0 0 676.776 0 0 0 676.776)
(676.654 0 0 0 676.654 0 0 0 676.654)
(676.517 0 0 0 676.517 0 0 0 676.517)
(676.371 0 0 0 676.371 0 0 0 676.371)
(676.223 0 0 0 676.223 0 0 0 676.223)
(676.077 0 0 0 676.077 0 0 0 676.077)
(675.931 0 0 0 675.931 0 0 0 675.931)
(675.772 0 0 0 675.772 0 0 0 675.772)
(675.584 0 0 0 675.584 0 0 0 675.584)
(675.362 0 0 0 675.362 0 0 0 675.362)
(675.166 0 0 0 675.166 0 0 0 675.166)
(675.189 0 0 0 675.189 0 0 0 675.189)
(676.003 0 0 0 676.003 0 0 0 676.003)
(678.953 0 0 0 678.953 0 0 0 678.953)
(686.35 0 0 0 686.35 0 0 0 686.35)
(691.316 0 0 0 691.316 0 0 0 691.316)
(677.799 0 0 0 677.799 0 0 0 677.799)
(677.219 0 0 0 677.219 0 0 0 677.219)
(677.203 0 0 0 677.203 0 0 0 677.203)
(677.178 0 0 0 677.178 0 0 0 677.178)
(677.144 0 0 0 677.144 0 0 0 677.144)
(677.098 0 0 0 677.098 0 0 0 677.098)
(677.041 0 0 0 677.041 0 0 0 677.041)
(676.969 0 0 0 676.969 0 0 0 676.969)
(676.881 0 0 0 676.881 0 0 0 676.881)
(676.776 0 0 0 676.776 0 0 0 676.776)
(676.654 0 0 0 676.654 0 0 0 676.654)
(676.517 0 0 0 676.517 0 0 0 676.517)
(676.371 0 0 0 676.371 0 0 0 676.371)
(676.223 0 0 0 676.223 0 0 0 676.223)
(676.077 0 0 0 676.077 0 0 0 676.077)
(675.931 0 0 0 675.931 0 0 0 675.931)
(675.772 0 0 0 675.772 0 0 0 675.772)
(675.584 0 0 0 675.584 0 0 0 675.584)
(675.362 0 0 0 675.362 0 0 0 675.362)
(675.166 0 0 0 675.166 0 0 0 675.166)
(675.189 0 0 0 675.189 0 0 0 675.189)
(676.003 0 0 0 676.003 0 0 0 676.003)
(678.953 0 0 0 678.953 0 0 0 678.953)
(686.35 0 0 0 686.35 0 0 0 686.35)
(691.316 0 0 0 691.316 0 0 0 691.316)
(682.038 0 0 0 682.038 0 0 0 682.038)
(681.507 0 0 0 681.507 0 0 0 681.507)
(681.525 0 0 0 681.525 0 0 0 681.525)
(681.531 0 0 0 681.531 0 0 0 681.531)
(681.525 0 0 0 681.525 0 0 0 681.525)
(681.506 0 0 0 681.506 0 0 0 681.506)
(681.473 0 0 0 681.473 0 0 0 681.473)
(681.424 0 0 0 681.424 0 0 0 681.424)
(681.356 0 0 0 681.356 0 0 0 681.356)
(681.268 0 0 0 681.268 0 0 0 681.268)
(681.158 0 0 0 681.158 0 0 0 681.158)
(681.025 0 0 0 681.025 0 0 0 681.025)
(680.868 0 0 0 680.868 0 0 0 680.868)
(680.687 0 0 0 680.687 0 0 0 680.687)
(680.476 0 0 0 680.476 0 0 0 680.476)
(680.224 0 0 0 680.224 0 0 0 680.224)
(679.915 0 0 0 679.915 0 0 0 679.915)
(679.53 0 0 0 679.53 0 0 0 679.53)
(679.065 0 0 0 679.065 0 0 0 679.065)
(678.575 0 0 0 678.575 0 0 0 678.575)
(678.237 0 0 0 678.237 0 0 0 678.237)
(678.596 0 0 0 678.596 0 0 0 678.596)
(680.948 0 0 0 680.948 0 0 0 680.948)
(687.569 0 0 0 687.569 0 0 0 687.569)
(691.689 0 0 0 691.689 0 0 0 691.689)
(676.793 0 0 0 676.793 0 0 0 676.793)
(676.193 0 0 0 676.193 0 0 0 676.193)
(676.167 0 0 0 676.167 0 0 0 676.167)
(676.13 0 0 0 676.13 0 0 0 676.13)
(676.085 0 0 0 676.085 0 0 0 676.085)
(676.03 0 0 0 676.03 0 0 0 676.03)
(675.964 0 0 0 675.964 0 0 0 675.964)
(675.883 0 0 0 675.883 0 0 0 675.883)
(675.788 0 0 0 675.788 0 0 0 675.788)
(675.675 0 0 0 675.675 0 0 0 675.675)
(675.547 0 0 0 675.547 0 0 0 675.547)
(675.406 0 0 0 675.406 0 0 0 675.406)
(675.259 0 0 0 675.259 0 0 0 675.259)
(675.115 0 0 0 675.115 0 0 0 675.115)
(674.981 0 0 0 674.981 0 0 0 674.981)
(674.857 0 0 0 674.857 0 0 0 674.857)
(674.73 0 0 0 674.73 0 0 0 674.73)
(674.587 0 0 0 674.587 0 0 0 674.587)
(674.421 0 0 0 674.421 0 0 0 674.421)
(674.293 0 0 0 674.293 0 0 0 674.293)
(674.399 0 0 0 674.399 0 0 0 674.399)
(675.32 0 0 0 675.32 0 0 0 675.32)
(678.412 0 0 0 678.412 0 0 0 678.412)
(685.998 0 0 0 685.998 0 0 0 685.998)
(691.199 0 0 0 691.199 0 0 0 691.199)
(681.287 0 0 0 681.287 0 0 0 681.287)
(680.759 0 0 0 680.759 0 0 0 680.759)
(680.772 0 0 0 680.772 0 0 0 680.772)
(680.776 0 0 0 680.776 0 0 0 680.776)
(680.768 0 0 0 680.768 0 0 0 680.768)
(680.747 0 0 0 680.747 0 0 0 680.747)
(680.712 0 0 0 680.712 0 0 0 680.712)
(680.662 0 0 0 680.662 0 0 0 680.662)
(680.593 0 0 0 680.593 0 0 0 680.593)
(680.506 0 0 0 680.506 0 0 0 680.506)
(680.397 0 0 0 680.397 0 0 0 680.397)
(680.267 0 0 0 680.267 0 0 0 680.267)
(680.117 0 0 0 680.117 0 0 0 680.117)
(679.946 0 0 0 679.946 0 0 0 679.946)
(679.752 0 0 0 679.752 0 0 0 679.752)
(679.524 0 0 0 679.524 0 0 0 679.524)
(679.246 0 0 0 679.246 0 0 0 679.246)
(678.903 0 0 0 678.903 0 0 0 678.903)
(678.487 0 0 0 678.487 0 0 0 678.487)
(678.055 0 0 0 678.055 0 0 0 678.055)
(677.79 0 0 0 677.79 0 0 0 677.79)
(678.24 0 0 0 678.24 0 0 0 678.24)
(680.706 0 0 0 680.706 0 0 0 680.706)
(687.46 0 0 0 687.46 0 0 0 687.46)
(691.674 0 0 0 691.674 0 0 0 691.674)
(677.799 0 0 0 677.799 0 0 0 677.799)
(677.219 0 0 0 677.219 0 0 0 677.219)
(677.203 0 0 0 677.203 0 0 0 677.203)
(677.178 0 0 0 677.178 0 0 0 677.178)
(677.144 0 0 0 677.144 0 0 0 677.144)
(677.098 0 0 0 677.098 0 0 0 677.098)
(677.041 0 0 0 677.041 0 0 0 677.041)
(676.969 0 0 0 676.969 0 0 0 676.969)
(676.881 0 0 0 676.881 0 0 0 676.881)
(676.776 0 0 0 676.776 0 0 0 676.776)
(676.654 0 0 0 676.654 0 0 0 676.654)
(676.517 0 0 0 676.517 0 0 0 676.517)
(676.371 0 0 0 676.371 0 0 0 676.371)
(676.223 0 0 0 676.223 0 0 0 676.223)
(676.077 0 0 0 676.077 0 0 0 676.077)
(675.931 0 0 0 675.931 0 0 0 675.931)
(675.772 0 0 0 675.772 0 0 0 675.772)
(675.584 0 0 0 675.584 0 0 0 675.584)
(675.362 0 0 0 675.362 0 0 0 675.362)
(675.166 0 0 0 675.166 0 0 0 675.166)
(675.189 0 0 0 675.189 0 0 0 675.189)
(676.004 0 0 0 676.004 0 0 0 676.004)
(678.953 0 0 0 678.953 0 0 0 678.953)
(686.35 0 0 0 686.35 0 0 0 686.35)
(691.316 0 0 0 691.316 0 0 0 691.316)
(682.038 0 0 0 682.038 0 0 0 682.038)
(681.507 0 0 0 681.507 0 0 0 681.507)
(681.525 0 0 0 681.525 0 0 0 681.525)
(681.531 0 0 0 681.531 0 0 0 681.531)
(681.525 0 0 0 681.525 0 0 0 681.525)
(681.507 0 0 0 681.507 0 0 0 681.507)
(681.473 0 0 0 681.473 0 0 0 681.473)
(681.424 0 0 0 681.424 0 0 0 681.424)
(681.356 0 0 0 681.356 0 0 0 681.356)
(681.268 0 0 0 681.268 0 0 0 681.268)
(681.158 0 0 0 681.158 0 0 0 681.158)
(681.025 0 0 0 681.025 0 0 0 681.025)
(680.869 0 0 0 680.869 0 0 0 680.869)
(680.687 0 0 0 680.687 0 0 0 680.687)
(680.476 0 0 0 680.476 0 0 0 680.476)
(680.225 0 0 0 680.225 0 0 0 680.225)
(679.915 0 0 0 679.915 0 0 0 679.915)
(679.531 0 0 0 679.531 0 0 0 679.531)
(679.066 0 0 0 679.066 0 0 0 679.066)
(678.576 0 0 0 678.576 0 0 0 678.576)
(678.238 0 0 0 678.238 0 0 0 678.238)
(678.597 0 0 0 678.597 0 0 0 678.597)
(680.95 0 0 0 680.95 0 0 0 680.95)
(687.57 0 0 0 687.57 0 0 0 687.57)
(691.69 0 0 0 691.69 0 0 0 691.69)
(682.038 0 0 0 682.038 0 0 0 682.038)
(681.507 0 0 0 681.507 0 0 0 681.507)
(681.525 0 0 0 681.525 0 0 0 681.525)
(681.531 0 0 0 681.531 0 0 0 681.531)
(681.525 0 0 0 681.525 0 0 0 681.525)
(681.507 0 0 0 681.507 0 0 0 681.507)
(681.473 0 0 0 681.473 0 0 0 681.473)
(681.424 0 0 0 681.424 0 0 0 681.424)
(681.356 0 0 0 681.356 0 0 0 681.356)
(681.268 0 0 0 681.268 0 0 0 681.268)
(681.158 0 0 0 681.158 0 0 0 681.158)
(681.025 0 0 0 681.025 0 0 0 681.025)
(680.868 0 0 0 680.868 0 0 0 680.868)
(680.687 0 0 0 680.687 0 0 0 680.687)
(680.476 0 0 0 680.476 0 0 0 680.476)
(680.224 0 0 0 680.224 0 0 0 680.224)
(679.915 0 0 0 679.915 0 0 0 679.915)
(679.53 0 0 0 679.53 0 0 0 679.53)
(679.065 0 0 0 679.065 0 0 0 679.065)
(678.575 0 0 0 678.575 0 0 0 678.575)
(678.237 0 0 0 678.237 0 0 0 678.237)
(678.596 0 0 0 678.596 0 0 0 678.596)
(680.948 0 0 0 680.948 0 0 0 680.948)
(687.569 0 0 0 687.569 0 0 0 687.569)
(691.689 0 0 0 691.689 0 0 0 691.689)
(677.799 0 0 0 677.799 0 0 0 677.799)
(677.219 0 0 0 677.219 0 0 0 677.219)
(677.203 0 0 0 677.203 0 0 0 677.203)
(677.178 0 0 0 677.178 0 0 0 677.178)
(677.144 0 0 0 677.144 0 0 0 677.144)
(677.098 0 0 0 677.098 0 0 0 677.098)
(677.041 0 0 0 677.041 0 0 0 677.041)
(676.969 0 0 0 676.969 0 0 0 676.969)
(676.881 0 0 0 676.881 0 0 0 676.881)
(676.776 0 0 0 676.776 0 0 0 676.776)
(676.654 0 0 0 676.654 0 0 0 676.654)
(676.517 0 0 0 676.517 0 0 0 676.517)
(676.371 0 0 0 676.371 0 0 0 676.371)
(676.223 0 0 0 676.223 0 0 0 676.223)
(676.077 0 0 0 676.077 0 0 0 676.077)
(675.931 0 0 0 675.931 0 0 0 675.931)
(675.772 0 0 0 675.772 0 0 0 675.772)
(675.584 0 0 0 675.584 0 0 0 675.584)
(675.362 0 0 0 675.362 0 0 0 675.362)
(675.166 0 0 0 675.166 0 0 0 675.166)
(675.189 0 0 0 675.189 0 0 0 675.189)
(676.003 0 0 0 676.003 0 0 0 676.003)
(678.953 0 0 0 678.953 0 0 0 678.953)
(686.35 0 0 0 686.35 0 0 0 686.35)
(691.316 0 0 0 691.316 0 0 0 691.316)
)
;

boundaryField
{
    outletCentralUnloaded
    {
        type            zeroGradient;
    }
    inletCentralUnloaded
    {
        type            zeroGradient;
    }
    outletFuelElement
    {
        type            zeroGradient;
    }
    inletFuelElement
    {
        type            zeroGradient;
    }
    defaultFaces
    {
        type            zeroGradient;
    }
    baffle_master
    {
        type            zeroGradient;
    }
    baffle_slave
    {
        type            zeroGradient;
    }
}


// ************************************************************************* //
