/*--------------------------------*- C++ -*----------------------------------*\
| =========                 |                                                 |
| \\      /  F ield         | OpenFOAM: The Open Source CFD Toolbox           |
|  \\    /   O peration     | Version:  2212                                  |
|   \\  /    A nd           | Website:  www.openfoam.com                      |
|    \\/     M anipulation  |                                                 |
\*---------------------------------------------------------------------------*/
FoamFile
{
    version     2.0;
    format      ascii;
    arch        "LSB;label=32;scalar=64";
    class       volScalarField;
    location    "34/fluidRegion";
    object      p_rgh;
}
// * * * * * * * * * * * * * * * * * * * * * * * * * * * * * * * * * * * * * //

dimensions      [1 -1 -2 0 0 0 0];

internalField   nonuniform List<scalar> 
350
(
3.44743e+06
3.44772e+06
3.44802e+06
3.44831e+06
3.44861e+06
3.44891e+06
3.4492e+06
3.4495e+06
3.44979e+06
3.45009e+06
3.45039e+06
3.45068e+06
3.45098e+06
3.45127e+06
3.45157e+06
3.45186e+06
3.45216e+06
3.45245e+06
3.45275e+06
3.45304e+06
3.45334e+06
3.45363e+06
3.45393e+06
3.45422e+06
3.45451e+06
3.44743e+06
3.44772e+06
3.44802e+06
3.44831e+06
3.44861e+06
3.44891e+06
3.4492e+06
3.4495e+06
3.44979e+06
3.45009e+06
3.45039e+06
3.45068e+06
3.45098e+06
3.45127e+06
3.45157e+06
3.45186e+06
3.45216e+06
3.45245e+06
3.45275e+06
3.45304e+06
3.45334e+06
3.45363e+06
3.45393e+06
3.45422e+06
3.45451e+06
3.47336e+06
3.52428e+06
3.57464e+06
3.62414e+06
3.67246e+06
3.71934e+06
3.76449e+06
3.8077e+06
3.84874e+06
3.88743e+06
3.92361e+06
3.95713e+06
3.98789e+06
4.01581e+06
4.04083e+06
4.06296e+06
4.08224e+06
4.09876e+06
4.11265e+06
4.12408e+06
4.13326e+06
4.1404e+06
4.14574e+06
4.14957e+06
4.15224e+06
3.47336e+06
3.52428e+06
3.57464e+06
3.62414e+06
3.67246e+06
3.71934e+06
3.76449e+06
3.8077e+06
3.84874e+06
3.88743e+06
3.92361e+06
3.95713e+06
3.98789e+06
4.01581e+06
4.04083e+06
4.06296e+06
4.08224e+06
4.09876e+06
4.11265e+06
4.12408e+06
4.13326e+06
4.1404e+06
4.14574e+06
4.14957e+06
4.15224e+06
3.47336e+06
3.52428e+06
3.57464e+06
3.62414e+06
3.67246e+06
3.71934e+06
3.76449e+06
3.8077e+06
3.84874e+06
3.88743e+06
3.92361e+06
3.95713e+06
3.98789e+06
4.01581e+06
4.04083e+06
4.06296e+06
4.08224e+06
4.09876e+06
4.11265e+06
4.12408e+06
4.13326e+06
4.1404e+06
4.14573e+06
4.14957e+06
4.15224e+06
3.47336e+06
3.52428e+06
3.57464e+06
3.62414e+06
3.67246e+06
3.71934e+06
3.76449e+06
3.8077e+06
3.84874e+06
3.88743e+06
3.92361e+06
3.95713e+06
3.98789e+06
4.01581e+06
4.04083e+06
4.06296e+06
4.08224e+06
4.09876e+06
4.11265e+06
4.12408e+06
4.13326e+06
4.1404e+06
4.14574e+06
4.14957e+06
4.15224e+06
3.47336e+06
3.52428e+06
3.57464e+06
3.62414e+06
3.67246e+06
3.71934e+06
3.76449e+06
3.8077e+06
3.84874e+06
3.88743e+06
3.92361e+06
3.95713e+06
3.98789e+06
4.01581e+06
4.04083e+06
4.06296e+06
4.08224e+06
4.09876e+06
4.11265e+06
4.12408e+06
4.13326e+06
4.1404e+06
4.14574e+06
4.14957e+06
4.15224e+06
3.47336e+06
3.52428e+06
3.57464e+06
3.62414e+06
3.67246e+06
3.71934e+06
3.76449e+06
3.8077e+06
3.84874e+06
3.88743e+06
3.92361e+06
3.95713e+06
3.98789e+06
4.01581e+06
4.04083e+06
4.06296e+06
4.08224e+06
4.09876e+06
4.11265e+06
4.12408e+06
4.13326e+06
4.1404e+06
4.14573e+06
4.14957e+06
4.15224e+06
3.47336e+06
3.52428e+06
3.57464e+06
3.62414e+06
3.67246e+06
3.71934e+06
3.76449e+06
3.8077e+06
3.84874e+06
3.88743e+06
3.92361e+06
3.95713e+06
3.98789e+06
4.01581e+06
4.04083e+06
4.06296e+06
4.08224e+06
4.09876e+06
4.11265e+06
4.12408e+06
4.13326e+06
4.1404e+06
4.14574e+06
4.14957e+06
4.15224e+06
3.47336e+06
3.52428e+06
3.57464e+06
3.62414e+06
3.67246e+06
3.71934e+06
3.76449e+06
3.8077e+06
3.84874e+06
3.88743e+06
3.92361e+06
3.95713e+06
3.98789e+06
4.01581e+06
4.04083e+06
4.06296e+06
4.08224e+06
4.09876e+06
4.11265e+06
4.12408e+06
4.13326e+06
4.1404e+06
4.14574e+06
4.14957e+06
4.15224e+06
3.47336e+06
3.52428e+06
3.57464e+06
3.62414e+06
3.67246e+06
3.71934e+06
3.76449e+06
3.8077e+06
3.84874e+06
3.88743e+06
3.92361e+06
3.95713e+06
3.98789e+06
4.01581e+06
4.04083e+06
4.06296e+06
4.08224e+06
4.09876e+06
4.11265e+06
4.12408e+06
4.13326e+06
4.1404e+06
4.14574e+06
4.14957e+06
4.15224e+06
3.47336e+06
3.52428e+06
3.57464e+06
3.62414e+06
3.67246e+06
3.71934e+06
3.76449e+06
3.8077e+06
3.84874e+06
3.88743e+06
3.92361e+06
3.95713e+06
3.98789e+06
4.01581e+06
4.04083e+06
4.06296e+06
4.08224e+06
4.09876e+06
4.11265e+06
4.12408e+06
4.13326e+06
4.1404e+06
4.14574e+06
4.14957e+06
4.15224e+06
3.47336e+06
3.52428e+06
3.57464e+06
3.62414e+06
3.67246e+06
3.71934e+06
3.76449e+06
3.8077e+06
3.84874e+06
3.88743e+06
3.92361e+06
3.95713e+06
3.98789e+06
4.01581e+06
4.04083e+06
4.06296e+06
4.08224e+06
4.09876e+06
4.11265e+06
4.12408e+06
4.13326e+06
4.1404e+06
4.14573e+06
4.14957e+06
4.15224e+06
3.47336e+06
3.52428e+06
3.57464e+06
3.62414e+06
3.67246e+06
3.71934e+06
3.76449e+06
3.8077e+06
3.84874e+06
3.88743e+06
3.92361e+06
3.95713e+06
3.98789e+06
4.01581e+06
4.04083e+06
4.06296e+06
4.08224e+06
4.09876e+06
4.11265e+06
4.12408e+06
4.13326e+06
4.1404e+06
4.14574e+06
4.14957e+06
4.15224e+06
)
;

boundaryField
{
    outletCentralUnloaded
    {
        type            fixedValue;
        value           uniform 3.44728e+06;
    }
    inletCentralUnloaded
    {
        type            zeroGradient;
    }
    outletFuelElement
    {
        type            fixedValue;
        value           uniform 3.44728e+06;
    }
    inletFuelElement
    {
        type            zeroGradient;
    }
    defaultFaces
    {
        type            zeroGradient;
    }
    baffle_master
    {
        type            zeroGradient;
    }
    baffle_slave
    {
        type            zeroGradient;
    }
}


// ************************************************************************* //
