/*--------------------------------*- C++ -*----------------------------------*\
| =========                 |                                                 |
| \\      /  F ield         | OpenFOAM: The Open Source CFD Toolbox           |
|  \\    /   O peration     | Version:  2212                                  |
|   \\  /    A nd           | Website:  www.openfoam.com                      |
|    \\/     M anipulation  |                                                 |
\*---------------------------------------------------------------------------*/
FoamFile
{
    version     2.0;
    format      ascii;
    arch        "LSB;label=32;scalar=64";
    class       volScalarField;
    location    "34/fluidRegion";
    object      Re;
}
// * * * * * * * * * * * * * * * * * * * * * * * * * * * * * * * * * * * * * //

dimensions      [0 0 0 0 0 0 0];

internalField   nonuniform List<scalar> 
350
(
174010
174012
174016
174019
174023
174026
174028
174029
174029
174028
174026
174024
174022
174020
174018
174017
174016
174017
174018
174019
174021
174022
174023
174023
174388
174010
174012
174016
174019
174023
174026
174028
174029
174029
174028
174026
174024
174022
174020
174018
174017
174016
174017
174018
174019
174021
174022
174023
174023
174388
55284.1
55227
55228.4
55228.8
55227.9
55225.7
55221.9
55216.5
55209.1
55199.6
55187.8
55173.8
55157.6
55139.1
55118
55093.4
55063.4
55026.3
54981.4
54934.7
54906.1
54954.6
55221.2
55953
56410.7
54798.4
54733.7
54730.8
54726.9
54722
54716.1
54708.9
54700.2
54689.9
54677.8
54663.9
54648.7
54632.9
54617.4
54602.9
54589.5
54575.8
54560.3
54542.4
54528.7
54540.2
54639.4
54973.2
55794.4
56359.1
55365.4
55307.9
55309.8
55310.5
55309.9
55307.9
55304.3
55298.9
55291.6
55282.1
55270.2
55255.8
55238.8
55219.2
55196.4
55169.2
55135.7
55094.2
55044
54990.9
54954.5
54993.3
55247.6
55964.9
56412.5
54907
54844.5
54842.7
54840
54836.3
54831.4
54825.2
54817.4
54807.9
54796.6
54783.4
54768.6
54752.9
54736.9
54721.2
54705.4
54688.2
54667.9
54644
54622.8
54625.3
54713.2
55031.8
55832.6
56371.9
54907
54844.5
54842.7
54840
54836.3
54831.4
54825.2
54817.4
54807.9
54796.6
54783.4
54768.6
54752.9
54736.9
54721.2
54705.4
54688.2
54667.9
54644
54622.8
54625.3
54713.2
55031.8
55832.6
56371.9
55365.4
55307.9
55309.8
55310.5
55309.9
55307.9
55304.2
55298.9
55291.6
55282
55270.1
55255.7
55238.8
55219.2
55196.3
55169.1
55135.7
55094.1
55043.9
54990.8
54954.4
54993.2
55247.5
55964.8
56412.5
54798.4
54733.7
54730.8
54726.9
54722
54716.1
54708.9
54700.2
54689.9
54677.8
54663.9
54648.7
54632.9
54617.4
54602.9
54589.5
54575.8
54560.3
54542.4
54528.7
54540.1
54639.4
54973.2
55794.4
56359.1
55284.1
55227
55228.4
55228.8
55227.9
55225.7
55221.9
55216.5
55209.1
55199.6
55187.8
55173.8
55157.6
55139.1
55118
55093.4
55063.4
55026.3
54981.3
54934.7
54906.1
54954.6
55221.2
55953
56410.7
54907
54844.5
54842.7
54840
54836.3
54831.4
54825.2
54817.4
54807.9
54796.6
54783.4
54768.6
54752.9
54736.9
54721.2
54705.4
54688.2
54667.9
54644
54622.8
54625.3
54713.2
55031.8
55832.6
56371.9
55365.4
55307.9
55309.8
55310.5
55309.9
55307.9
55304.3
55298.9
55291.6
55282.1
55270.2
55255.8
55238.8
55219.2
55196.4
55169.2
55135.7
55094.2
55044
54990.9
54954.5
54993.3
55247.6
55964.9
56412.5
55365.4
55307.9
55309.8
55310.5
55309.9
55307.9
55304.3
55298.9
55291.6
55282
55270.1
55255.7
55238.8
55219.2
55196.3
55169.1
55135.7
55094.1
55043.9
54990.8
54954.4
54993.2
55247.5
55964.8
56412.5
54907
54844.5
54842.7
54840
54836.3
54831.4
54825.2
54817.4
54807.9
54796.6
54783.4
54768.6
54752.9
54736.9
54721.2
54705.4
54688.2
54667.9
54644
54622.8
54625.3
54713.2
55031.8
55832.6
56371.9
)
;

boundaryField
{
    outletCentralUnloaded
    {
        type            zeroGradient;
    }
    inletCentralUnloaded
    {
        type            zeroGradient;
    }
    outletFuelElement
    {
        type            zeroGradient;
    }
    inletFuelElement
    {
        type            zeroGradient;
    }
    defaultFaces
    {
        type            zeroGradient;
    }
    baffle_master
    {
        type            zeroGradient;
    }
    baffle_slave
    {
        type            zeroGradient;
    }
}


// ************************************************************************* //
