/*--------------------------------*- C++ -*----------------------------------*\
| =========                 |                                                 |
| \\      /  F ield         | OpenFOAM: The Open Source CFD Toolbox           |
|  \\    /   O peration     | Version:  2212                                  |
|   \\  /    A nd           | Website:  www.openfoam.com                      |
|    \\/     M anipulation  |                                                 |
\*---------------------------------------------------------------------------*/
FoamFile
{
    version     2.0;
    format      ascii;
    arch        "LSB;label=32;scalar=64";
    class       volScalarField;
    location    "34/fluidRegion";
    object      Tci.nuclearFuelPin;
}
// * * * * * * * * * * * * * * * * * * * * * * * * * * * * * * * * * * * * * //

dimensions      [0 0 0 1 0 0 0];

internalField   nonuniform List<scalar> 
350
(
0
0
0
0
0
0
0
0
0
0
0
0
0
0
0
0
0
0
0
0
0
0
0
0
0
0
0
0
0
0
0
0
0
0
0
0
0
0
0
0
0
0
0
0
0
0
0
0
0
0
1824.4
1875.58
1913.55
1938.12
1949.25
1947.04
1931.75
1903.81
1863.81
1812.49
1750.74
1679.58
1600.22
1513.96
1422.25
1326.57
1228.35
1128.71
1028.12
925.862
819.153
701.949
563.993
394.002
194.015
1852.24
1904.19
1942.71
1967.6
1978.81
1976.45
1960.78
1932.25
1891.44
1839.12
1776.18
1703.67
1622.8
1534.9
1441.44
1343.94
1243.87
1142.41
1040.09
936.22
828.027
709.381
569.815
397.762
195.286
1819.87
1870.94
1908.85
1933.39
1944.52
1942.35
1927.14
1899.32
1859.46
1808.31
1746.75
1675.83
1596.71
1510.72
1419.28
1323.89
1225.97
1126.61
1026.29
924.283
817.808
700.834
563.131
393.45
193.821
1845.98
1897.74
1936.12
1960.92
1972.1
1969.75
1954.16
1925.75
1885.12
1833.02
1770.34
1698.14
1617.61
1530.08
1437.02
1339.93
1240.29
1139.25
1037.32
933.825
825.975
707.661
568.467
396.89
194.992
1845.98
1897.74
1936.12
1960.92
1972.1
1969.75
1954.16
1925.75
1885.12
1833.02
1770.34
1698.14
1617.61
1530.08
1437.02
1339.93
1240.29
1139.25
1037.32
933.825
825.975
707.661
568.467
396.89
194.992
1819.87
1870.95
1908.85
1933.39
1944.53
1942.35
1927.14
1899.32
1859.46
1808.31
1746.75
1675.83
1596.71
1510.72
1419.28
1323.9
1225.97
1126.61
1026.3
924.284
817.809
700.835
563.132
393.45
193.821
1852.24
1904.19
1942.71
1967.6
1978.81
1976.45
1960.78
1932.25
1891.44
1839.12
1776.18
1703.67
1622.8
1534.9
1441.44
1343.94
1243.87
1142.41
1040.09
936.22
828.027
709.381
569.815
397.762
195.286
1824.4
1875.58
1913.55
1938.12
1949.25
1947.04
1931.75
1903.81
1863.81
1812.49
1750.74
1679.58
1600.22
1513.96
1422.25
1326.57
1228.35
1128.71
1028.12
925.862
819.153
701.949
563.993
394.002
194.015
1845.98
1897.74
1936.12
1960.92
1972.1
1969.75
1954.16
1925.75
1885.12
1833.02
1770.34
1698.14
1617.61
1530.08
1437.02
1339.93
1240.29
1139.25
1037.32
933.825
825.975
707.661
568.467
396.89
194.992
1819.87
1870.94
1908.85
1933.39
1944.52
1942.35
1927.14
1899.32
1859.46
1808.31
1746.75
1675.83
1596.71
1510.72
1419.28
1323.89
1225.97
1126.61
1026.29
924.283
817.808
700.834
563.131
393.45
193.821
1819.87
1870.95
1908.85
1933.39
1944.53
1942.35
1927.14
1899.32
1859.46
1808.31
1746.75
1675.83
1596.71
1510.72
1419.28
1323.9
1225.97
1126.61
1026.29
924.284
817.809
700.835
563.132
393.45
193.821
1845.98
1897.74
1936.12
1960.92
1972.1
1969.75
1954.16
1925.75
1885.12
1833.02
1770.34
1698.14
1617.61
1530.08
1437.02
1339.93
1240.29
1139.25
1037.32
933.825
825.975
707.661
568.467
396.89
194.992
)
;

boundaryField
{
    outletCentralUnloaded
    {
        type            zeroGradient;
    }
    inletCentralUnloaded
    {
        type            zeroGradient;
    }
    outletFuelElement
    {
        type            zeroGradient;
    }
    inletFuelElement
    {
        type            zeroGradient;
    }
    defaultFaces
    {
        type            zeroGradient;
    }
    baffle_master
    {
        type            zeroGradient;
    }
    baffle_slave
    {
        type            zeroGradient;
    }
}


// ************************************************************************* //
