/*--------------------------------*- C++ -*----------------------------------*\
| =========                 |                                                 |
| \\      /  F ield         | OpenFOAM: The Open Source CFD Toolbox           |
|  \\    /   O peration     | Version:  2212                                  |
|   \\  /    A nd           | Website:  www.openfoam.com                      |
|    \\/     M anipulation  |                                                 |
\*---------------------------------------------------------------------------*/
FoamFile
{
    version     2.0;
    format      ascii;
    arch        "LSB;label=32;scalar=64";
    class       volScalarField;
    location    "34/fluidRegion";
    object      Tco.nuclearFuelPin;
}
// * * * * * * * * * * * * * * * * * * * * * * * * * * * * * * * * * * * * * //

dimensions      [0 0 0 1 0 0 0];

internalField   nonuniform List<scalar> 
350
(
0
0
0
0
0
0
0
0
0
0
0
0
0
0
0
0
0
0
0
0
0
0
0
0
0
0
0
0
0
0
0
0
0
0
0
0
0
0
0
0
0
0
0
0
0
0
0
0
0
0
1814.59
1842.48
1857.71
1860.44
1850.98
1829.74
1797.29
1754.34
1701.69
1640.3
1571.21
1495.57
1414.64
1329.75
1242.33
1153.8
1065.47
978.299
892.571
807.321
719.507
622.77
506.511
359.068
182.116
1842.34
1870.74
1886.26
1889.06
1879.43
1857.82
1824.8
1781.08
1727.48
1664.97
1594.61
1517.56
1435.1
1348.59
1259.47
1169.2
1079.13
990.282
902.989
816.326
727.244
629.299
511.679
362.432
183.254
1810.07
1837.91
1853.11
1855.85
1846.43
1825.26
1792.92
1750.11
1697.63
1636.43
1567.55
1492.15
1411.46
1326.84
1239.69
1151.44
1063.38
976.471
890.987
805.958
718.344
621.799
505.753
358.579
181.943
1836.1
1864.37
1879.81
1882.57
1872.97
1851.43
1818.53
1774.97
1721.59
1659.32
1589.24
1512.51
1430.39
1344.25
1255.52
1165.65
1075.97
987.512
900.58
814.243
725.453
627.787
510.481
361.651
182.991
1836.1
1864.37
1879.81
1882.57
1872.97
1851.43
1818.53
1774.97
1721.59
1659.32
1589.24
1512.51
1430.39
1344.25
1255.52
1165.65
1075.97
987.512
900.58
814.243
725.453
627.787
510.481
361.651
182.991
1810.08
1837.91
1853.11
1855.85
1846.43
1825.26
1792.93
1750.11
1697.63
1636.43
1567.55
1492.15
1411.46
1326.84
1239.69
1151.44
1063.38
976.472
890.988
805.959
718.344
621.8
505.754
358.579
181.943
1842.34
1870.74
1886.26
1889.06
1879.43
1857.82
1824.8
1781.08
1727.48
1664.97
1594.61
1517.56
1435.1
1348.59
1259.47
1169.2
1079.13
990.282
902.989
816.326
727.244
629.3
511.679
362.432
183.254
1814.59
1842.48
1857.71
1860.44
1850.98
1829.74
1797.29
1754.34
1701.69
1640.3
1571.21
1495.57
1414.64
1329.75
1242.33
1153.8
1065.47
978.299
892.571
807.321
719.507
622.77
506.511
359.068
182.116
1836.1
1864.37
1879.81
1882.57
1872.97
1851.43
1818.53
1774.97
1721.59
1659.32
1589.24
1512.51
1430.39
1344.25
1255.52
1165.65
1075.97
987.512
900.58
814.243
725.453
627.787
510.481
361.651
182.991
1810.07
1837.91
1853.11
1855.85
1846.43
1825.26
1792.92
1750.11
1697.63
1636.43
1567.55
1492.15
1411.46
1326.84
1239.69
1151.44
1063.38
976.471
890.987
805.958
718.344
621.799
505.753
358.579
181.943
1810.08
1837.91
1853.11
1855.85
1846.43
1825.26
1792.93
1750.11
1697.63
1636.43
1567.55
1492.15
1411.46
1326.84
1239.69
1151.44
1063.38
976.472
890.988
805.959
718.344
621.8
505.754
358.579
181.943
1836.1
1864.37
1879.81
1882.57
1872.97
1851.43
1818.53
1774.97
1721.59
1659.32
1589.24
1512.51
1430.39
1344.25
1255.52
1165.65
1075.97
987.512
900.58
814.243
725.453
627.787
510.481
361.651
182.99
)
;

boundaryField
{
    outletCentralUnloaded
    {
        type            zeroGradient;
    }
    inletCentralUnloaded
    {
        type            zeroGradient;
    }
    outletFuelElement
    {
        type            zeroGradient;
    }
    inletFuelElement
    {
        type            zeroGradient;
    }
    defaultFaces
    {
        type            zeroGradient;
    }
    baffle_master
    {
        type            zeroGradient;
    }
    baffle_slave
    {
        type            zeroGradient;
    }
}


// ************************************************************************* //
