/*--------------------------------*- C++ -*----------------------------------*\
| =========                 |                                                 |
| \\      /  F ield         | OpenFOAM: The Open Source CFD Toolbox           |
|  \\    /   O peration     | Version:  2212                                  |
|   \\  /    A nd           | Website:  www.openfoam.com                      |
|    \\/     M anipulation  |                                                 |
\*---------------------------------------------------------------------------*/
FoamFile
{
    version     2.0;
    format      ascii;
    arch        "LSB;label=32;scalar=64";
    class       volScalarField;
    location    "34/fluidRegion";
    object      Tfav.nuclearFuelPin;
}
// * * * * * * * * * * * * * * * * * * * * * * * * * * * * * * * * * * * * * //

dimensions      [0 0 0 1 0 0 0];

internalField   nonuniform List<scalar> 
350
(
0
0
0
0
0
0
0
0
0
0
0
0
0
0
0
0
0
0
0
0
0
0
0
0
0
0
0
0
0
0
0
0
0
0
0
0
0
0
0
0
0
0
0
0
0
0
0
0
0
0
2130.3
2912.24
3663.98
4374.06
5031.65
5626.67
6149.96
6593.49
6950.41
7215.21
7383.83
7453.67
7423.71
7294.52
7068.2
6748.38
6339.99
5849.03
5282.13
4646.01
3946.37
3186.91
2368.16
1490.68
567.982
2160.98
2952.07
3712.54
4430.81
5095.9
5697.63
6226.74
6675.09
7035.78
7303.23
7473.32
7543.45
7512.59
7381.3
7151.72
6827.54
6413.79
5916.58
5342.64
4698.82
3990.93
3222.68
2394.51
1506.87
573.419
2125.33
2905.83
3656.19
4364.99
5021.4
5615.36
6137.75
6580.52
6936.85
7201.25
7369.64
7439.44
7409.64
7280.78
7054.98
6735.85
6328.31
5838.35
5272.57
4637.66
3939.34
3181.28
2364.02
1488.14
567.125
2154.06
2943.03
3701.47
4417.84
5081.2
5681.36
6209.12
6656.35
7016.16
7282.99
7452.74
7522.8
7492.14
7361.32
7132.49
6809.31
6396.79
5901.02
5328.7
4686.65
3980.66
3214.44
2388.43
1503.14
572.166
2154.06
2943.03
3701.47
4417.84
5081.2
5681.36
6209.12
6656.35
7016.16
7282.99
7452.74
7522.8
7492.13
7361.32
7132.49
6809.31
6396.79
5901.02
5328.7
4686.65
3980.66
3214.44
2388.44
1503.13
572.166
2125.33
2905.83
3656.19
4364.99
5021.4
5615.36
6137.75
6580.52
6936.85
7201.25
7369.64
7439.44
7409.64
7280.78
7054.98
6735.85
6328.31
5838.35
5272.57
4637.66
3939.34
3181.28
2364.02
1488.14
567.125
2160.98
2952.07
3712.54
4430.81
5095.9
5697.63
6226.74
6675.09
7035.78
7303.23
7473.32
7543.45
7512.59
7381.3
7151.72
6827.55
6413.79
5916.58
5342.64
4698.82
3990.93
3222.68
2394.51
1506.87
573.419
2130.3
2912.24
3663.98
4374.06
5031.65
5626.67
6149.96
6593.49
6950.41
7215.21
7383.83
7453.67
7423.71
7294.52
7068.2
6748.38
6339.99
5849.03
5282.13
4646.01
3946.37
3186.91
2368.16
1490.68
567.982
2154.06
2943.03
3701.47
4417.84
5081.2
5681.36
6209.12
6656.35
7016.16
7282.99
7452.74
7522.8
7492.13
7361.32
7132.49
6809.31
6396.79
5901.02
5328.7
4686.65
3980.66
3214.44
2388.44
1503.14
572.166
2125.33
2905.83
3656.19
4364.99
5021.4
5615.36
6137.75
6580.52
6936.85
7201.25
7369.64
7439.44
7409.64
7280.78
7054.98
6735.85
6328.31
5838.35
5272.57
4637.66
3939.34
3181.28
2364.02
1488.14
567.125
2125.33
2905.83
3656.19
4364.99
5021.4
5615.36
6137.75
6580.52
6936.85
7201.25
7369.64
7439.44
7409.64
7280.78
7054.98
6735.85
6328.31
5838.35
5272.57
4637.66
3939.34
3181.28
2364.02
1488.14
567.125
2154.06
2943.03
3701.47
4417.84
5081.2
5681.36
6209.12
6656.35
7016.16
7282.99
7452.74
7522.8
7492.13
7361.32
7132.49
6809.31
6396.79
5901.02
5328.7
4686.65
3980.66
3214.44
2388.44
1503.13
572.166
)
;

boundaryField
{
    outletCentralUnloaded
    {
        type            zeroGradient;
    }
    inletCentralUnloaded
    {
        type            zeroGradient;
    }
    outletFuelElement
    {
        type            zeroGradient;
    }
    inletFuelElement
    {
        type            zeroGradient;
    }
    defaultFaces
    {
        type            zeroGradient;
    }
    baffle_master
    {
        type            zeroGradient;
    }
    baffle_slave
    {
        type            zeroGradient;
    }
}


// ************************************************************************* //
