/*--------------------------------*- C++ -*----------------------------------*\
| =========                 |                                                 |
| \\      /  F ield         | OpenFOAM: The Open Source CFD Toolbox           |
|  \\    /   O peration     | Version:  2212                                  |
|   \\  /    A nd           | Website:  www.openfoam.com                      |
|    \\/     M anipulation  |                                                 |
\*---------------------------------------------------------------------------*/
FoamFile
{
    version     2.0;
    format      ascii;
    arch        "LSB;label=32;scalar=64";
    class       volScalarField;
    location    "34/fluidRegion";
    object      Tfi.nuclearFuelPin;
}
// * * * * * * * * * * * * * * * * * * * * * * * * * * * * * * * * * * * * * //

dimensions      [0 0 0 1 0 0 0];

internalField   nonuniform List<scalar> 
350
(
0
0
0
0
0
0
0
0
0
0
0
0
0
0
0
0
0
0
0
0
0
0
0
0
0
0
0
0
0
0
0
0
0
0
0
0
0
0
0
0
0
0
0
0
0
0
0
0
0
0
2290.21
3469.15
4608.68
5691.27
6700.19
7619.82
8435.91
9135.8
9708.61
10145.5
10439.5
10586.3
10583.5
10431.4
10132.3
9691.05
9114.5
8411.29
7591.37
6665.51
5644.05
4535.99
3347.79
2086.54
771.99
2322.29
3514.93
4667.65
5762.69
6783.15
7713.22
8538.5
9246.16
9825.24
10266.7
10563.7
10711.7
10708.3
10553.8
10250.7
9803.73
9219.92
8508.04
7678.21
6741.36
5707.96
4587.12
3385.27
2109.47
779.684
2285.01
3461.78
4599.23
5679.85
6686.95
7604.94
8419.58
9118.25
9690.08
10126.2
10419.8
10566.4
10563.7
10411.9
10113.5
9673.18
9097.79
8395.96
7577.61
6653.5
5633.94
4527.91
3341.87
2082.93
770.773
2315.04
3504.52
4654.19
5746.35
6764.13
7691.79
8514.94
9220.81
9798.43
10238.8
10535.2
10682.8
10679.6
10525.6
10223.4
9777.78
9195.64
8485.76
7658.21
6723.89
5693.24
4575.34
3376.63
2104.18
777.912
2315.04
3504.52
4654.19
5746.35
6764.13
7691.79
8514.94
9220.81
9798.43
10238.8
10535.2
10682.8
10679.6
10525.6
10223.4
9777.78
9195.64
8485.76
7658.21
6723.89
5693.24
4575.34
3376.63
2104.18
777.912
2285.01
3461.78
4599.24
5679.86
6686.95
7604.94
8419.58
9118.25
9690.08
10126.2
10419.8
10566.4
10563.7
10411.9
10113.5
9673.19
9097.79
8395.96
7577.61
6653.5
5633.94
4527.91
3341.88
2082.93
770.773
2322.29
3514.93
4667.65
5762.69
6783.15
7713.22
8538.5
9246.16
9825.24
10266.7
10563.7
10711.7
10708.3
10553.8
10250.7
9803.73
9219.92
8508.04
7678.21
6741.35
5707.96
4587.12
3385.27
2109.47
779.684
2290.21
3469.15
4608.68
5691.27
6700.18
7619.82
8435.91
9135.8
9708.61
10145.5
10439.5
10586.3
10583.5
10431.4
10132.3
9691.05
9114.5
8411.29
7591.37
6665.51
5644.05
4535.99
3347.79
2086.54
771.99
2315.04
3504.52
4654.19
5746.35
6764.13
7691.79
8514.94
9220.81
9798.43
10238.8
10535.2
10682.8
10679.6
10525.6
10223.4
9777.78
9195.64
8485.76
7658.21
6723.89
5693.24
4575.34
3376.63
2104.18
777.912
2285.01
3461.78
4599.24
5679.86
6686.95
7604.94
8419.58
9118.25
9690.08
10126.2
10419.8
10566.4
10563.7
10411.9
10113.5
9673.18
9097.79
8395.96
7577.61
6653.5
5633.93
4527.91
3341.88
2082.93
770.773
2285.01
3461.78
4599.24
5679.86
6686.95
7604.94
8419.58
9118.25
9690.08
10126.2
10419.8
10566.4
10563.7
10411.9
10113.5
9673.18
9097.79
8395.96
7577.61
6653.5
5633.94
4527.91
3341.88
2082.93
770.773
2315.04
3504.52
4654.19
5746.35
6764.13
7691.79
8514.94
9220.81
9798.43
10238.8
10535.2
10682.8
10679.6
10525.6
10223.4
9777.78
9195.64
8485.76
7658.21
6723.89
5693.24
4575.34
3376.63
2104.18
777.912
)
;

boundaryField
{
    outletCentralUnloaded
    {
        type            zeroGradient;
    }
    inletCentralUnloaded
    {
        type            zeroGradient;
    }
    outletFuelElement
    {
        type            zeroGradient;
    }
    inletFuelElement
    {
        type            zeroGradient;
    }
    defaultFaces
    {
        type            zeroGradient;
    }
    baffle_master
    {
        type            zeroGradient;
    }
    baffle_slave
    {
        type            zeroGradient;
    }
}


// ************************************************************************* //
