/*--------------------------------*- C++ -*----------------------------------*\
| =========                 |                                                 |
| \\      /  F ield         | OpenFOAM: The Open Source CFD Toolbox           |
|  \\    /   O peration     | Version:  2212                                  |
|   \\  /    A nd           | Website:  www.openfoam.com                      |
|    \\/     M anipulation  |                                                 |
\*---------------------------------------------------------------------------*/
FoamFile
{
    version     2.0;
    format      ascii;
    arch        "LSB;label=32;scalar=64";
    class       volScalarField;
    location    "34/fluidRegion";
    object      Tfo.nuclearFuelPin;
}
// * * * * * * * * * * * * * * * * * * * * * * * * * * * * * * * * * * * * * //

dimensions      [0 0 0 1 0 0 0];

internalField   nonuniform List<scalar> 
350
(
0
0
0
0
0
0
0
0
0
0
0
0
0
0
0
0
0
0
0
0
0
0
0
0
0
0
0
0
0
0
0
0
0
0
0
0
0
0
0
0
0
0
0
0
0
0
0
0
0
0
1967.2
2354.91
2721.58
3061.82
3370.62
3643.39
3876.08
4065.19
4207.9
4302.07
4346.31
4339.99
4283.27
4177.13
4023.32
3824.31
3583.14
3303.19
2987.76
2639.55
2259.7
1846.62
1395.02
899.03
365.982
1996.39
2388.74
2759.72
3103.9
3416.2
3691.98
3927.13
4118.15
4262.15
4357
4401.28
4394.36
4336.41
4228.42
4072.16
3870.16
3625.52
3341.7
3022.09
2669.47
2285.01
1867.11
1410.3
908.519
369.173
1962.46
2349.45
2715.45
3055.08
3363.34
3635.65
3867.96
4056.78
4199.3
4293.38
4337.62
4331.4
4274.89
4169.05
4015.63
3817.09
3576.48
3297.14
2982.36
2634.85
2255.73
1843.43
1392.65
897.564
365.482
1989.82
2381.08
2751.05
3094.31
3405.79
3680.87
3915.44
4106
4249.7
4344.39
4388.65
4381.85
4324.18
4216.61
4060.91
3859.59
3615.75
3332.83
3014.18
2662.57
2279.18
1862.38
1406.77
906.328
368.437
1989.82
2381.08
2751.05
3094.31
3405.79
3680.87
3915.44
4106
4249.7
4344.39
4388.65
4381.85
4324.18
4216.61
4060.91
3859.59
3615.75
3332.83
3014.18
2662.57
2279.17
1862.38
1406.77
906.328
368.437
1962.46
2349.46
2715.45
3055.08
3363.34
3635.66
3867.96
4056.79
4199.3
4293.38
4337.62
4331.41
4274.89
4169.05
4015.63
3817.09
3576.48
3297.14
2982.36
2634.85
2255.73
1843.43
1392.65
897.564
365.483
1996.39
2388.74
2759.72
3103.9
3416.2
3691.98
3927.13
4118.15
4262.15
4357
4401.28
4394.36
4336.41
4228.42
4072.16
3870.16
3625.52
3341.7
3022.09
2669.47
2285.01
1867.11
1410.3
908.519
369.173
1967.2
2354.91
2721.58
3061.82
3370.62
3643.39
3876.08
4065.19
4207.9
4302.07
4346.31
4339.99
4283.27
4177.13
4023.32
3824.31
3583.14
3303.19
2987.76
2639.55
2259.7
1846.62
1395.02
899.029
365.982
1989.82
2381.08
2751.05
3094.31
3405.79
3680.87
3915.44
4106
4249.7
4344.39
4388.65
4381.85
4324.18
4216.61
4060.91
3859.59
3615.75
3332.83
3014.18
2662.57
2279.17
1862.38
1406.77
906.328
368.437
1962.46
2349.45
2715.45
3055.08
3363.34
3635.65
3867.96
4056.78
4199.3
4293.38
4337.62
4331.4
4274.89
4169.05
4015.63
3817.09
3576.47
3297.14
2982.36
2634.85
2255.73
1843.43
1392.65
897.564
365.482
1962.46
2349.46
2715.45
3055.08
3363.34
3635.66
3867.96
4056.79
4199.3
4293.38
4337.62
4331.41
4274.89
4169.05
4015.63
3817.09
3576.48
3297.14
2982.36
2634.85
2255.73
1843.43
1392.65
897.564
365.482
1989.82
2381.08
2751.05
3094.31
3405.79
3680.87
3915.44
4106
4249.7
4344.39
4388.65
4381.85
4324.18
4216.61
4060.91
3859.59
3615.75
3332.83
3014.18
2662.57
2279.17
1862.38
1406.77
906.328
368.437
)
;

boundaryField
{
    outletCentralUnloaded
    {
        type            zeroGradient;
    }
    inletCentralUnloaded
    {
        type            zeroGradient;
    }
    outletFuelElement
    {
        type            zeroGradient;
    }
    inletFuelElement
    {
        type            zeroGradient;
    }
    defaultFaces
    {
        type            zeroGradient;
    }
    baffle_master
    {
        type            zeroGradient;
    }
    baffle_slave
    {
        type            zeroGradient;
    }
}


// ************************************************************************* //
