/*--------------------------------*- C++ -*----------------------------------*\
| =========                 |                                                 |
| \\      /  F ield         | OpenFOAM: The Open Source CFD Toolbox           |
|  \\    /   O peration     | Version:  2212                                  |
|   \\  /    A nd           | Website:  www.openfoam.com                      |
|    \\/     M anipulation  |                                                 |
\*---------------------------------------------------------------------------*/
FoamFile
{
    version     2.0;
    format      ascii;
    arch        "LSB;label=32;scalar=64";
    class       scalarFieldField;
    location    "34/fluidRegion";
    object      Trad.nuclearFuelPin;
}
// * * * * * * * * * * * * * * * * * * * * * * * * * * * * * * * * * * * * * //


350
(
0()
0()
0()
0()
0()
0()
0()
0()
0()
0()
0()
0()
0()
0()
0()
0()
0()
0()
0()
0()
0()
0()
0()
0()
0()
0()
0()
0()
0()
0()
0()
0()
0()
0()
0()
0()
0()
0()
0()
0()
0()
0()
0()
0()
0()
0()
0()
0()
0()
0()

20
(
2290.21
2288.84
2284.72
2277.85
2268.19
2255.74
2240.46
2222.3
2201.23
2177.19
2150.12
2119.98
2086.68
2050.17
2010.37
1967.2
1824.4
1821.02
1817.75
1814.59
)


20
(
3469.15
3464.27
3449.63
3425.22
3391.02
3347
3293.11
3229.32
3155.58
3071.81
2977.97
2873.97
2759.75
2635.22
2500.3
2354.91
1875.58
1864.18
1853.16
1842.48
)


20
(
4608.68
4600.38
4575.47
4533.93
4475.75
4400.88
4309.29
4200.92
4075.71
3933.61
3774.53
3598.4
3405.12
3194.63
2966.81
2721.58
1913.55
1894.32
1875.72
1857.71
)


20
(
5691.27
5679.68
5644.89
5586.9
5505.68
5401.18
5273.37
5122.18
4947.55
4749.41
4527.67
4282.25
4013.05
3719.98
3402.94
3061.82
1938.12
1911.37
1885.5
1860.44
)


20
(
6700.19
6685.49
6641.39
6567.88
6464.93
6332.49
6170.51
5978.93
5757.69
5506.69
5225.85
4915.09
4574.29
4203.35
3802.16
3370.62
1949.25
1915.41
1882.68
1850.98
)


20
(
7619.82
7602.25
7549.56
7461.7
7338.67
7180.4
6986.86
6757.96
6493.64
6193.81
5858.37
5487.23
5080.27
4637.39
4158.47
3643.39
1947.04
1906.65
1867.57
1829.74
)


20
(
8435.91
8415.76
8355.3
8254.51
8113.36
7931.8
7709.78
7447.22
7144.04
6800.16
6415.48
5989.88
5523.26
5015.5
4466.48
3876.08
1931.75
1885.45
1840.66
1797.29
)


20
(
9135.8
9113.38
9046.13
8934.01
8776.99
8575.04
8328.08
8036.04
7698.85
7316.4
6888.6
6415.33
5896.47
5331.92
4721.53
4065.19
1903.81
1852.34
1802.55
1754.34
)


20
(
9708.61
9684.29
9611.31
9489.65
9319.27
9100.13
8832.17
8515.31
8149.46
7734.54
7270.42
6757.01
6194.18
5581.8
4919.75
4207.9
1863.81
1807.99
1753.99
1701.69
)


20
(
10145.5
10119.6
10042.1
9912.79
9731.77
9498.94
9214.24
8877.59
8488.91
8048.1
7555.06
7009.66
6411.79
5761.32
5058.13
4302.07
1812.49
1753.2
1695.85
1640.3
)


20
(
10439.5
10412.6
10331.7
10196.9
10008.1
9765.26
9468.35
9117.27
8711.94
8252.25
7738.11
7169.39
6545.98
5867.75
5134.57
4346.31
1750.74
1688.92
1629.12
1571.21
)


20
(
10586.3
10558.7
10475.7
10337.5
10144
9895
9590.59
9230.66
8815.11
8343.85
7816.78
7233.77
6594.72
5899.49
5147.95
4339.99
1679.58
1616.22
1554.93
1495.57
)


20
(
10583.5
10555.7
10472
10332.6
10137.3
9886.18
9579.12
9216.05
8796.88
8321.53
7789.89
7201.85
6557.29
5856.09
5098.13
4283.27
1600.22
1536.32
1474.5
1414.64
)


20
(
10431.4
10403.7
10320.6
10182.2
9988.36
9739.04
9434.19
9073.75
8657.63
8185.73
7657.96
7074.22
6434.38
5738.34
4985.96
4177.13
1513.96
1450.54
1389.17
1329.75
)


20
(
10132.3
10105.2
10024.1
9888.9
9699.53
9455.98
9158.19
8806.1
8399.62
7938.67
7423.16
6852.97
6228.01
5548.16
4813.3
4023.32
1422.25
1360.3
1300.37
1242.33
)


20
(
9691.05
9665.08
9587.16
9457.29
9275.42
9041.51
8755.51
8417.36
8026.98
7584.3
7089.22
6541.64
5941.47
5288.59
4582.91
3824.31
1326.57
1267.08
1209.53
1153.8
)


20
(
9114.5
9090.02
9016.55
8894.09
8722.6
8502.05
8232.39
7913.56
7545.49
7128.1
6661.31
6145.04
5579.18
4963.65
4298.33
3583.14
1228.35
1172.27
1118.01
1065.47
)


20
(
8411.29
8388.68
8320.83
8207.73
8049.36
7845.68
7596.64
7302.19
6962.27
6576.82
6145.74
5668.98
5146.43
4578.01
3963.62
3303.19
1128.71
1076.92
1026.82
978.299
)


20
(
7591.37
7570.99
7509.84
7407.91
7265.17
7081.6
6857.15
6591.77
6285.42
5938.02
5549.52
5119.84
4648.9
4136.63
3582.94
2987.76
1028.12
981.451
936.298
892.571
)


20
(
6665.51
6647.69
6594.21
6505.06
6380.23
6219.69
6023.4
5791.32
5523.4
5219.59
4879.83
4504.07
4092.23
3644.24
3160.04
2639.55
925.862
885.046
845.56
807.321
)


20
(
5644.05
5629.07
5584.11
5509.17
5404.23
5269.27
5104.25
4909.15
4683.93
4428.54
4142.93
3827.05
3480.84
3104.25
2697.22
2259.7
819.153
784.843
751.651
719.507
)


20
(
4535.99
4524.08
4488.35
4428.8
4345.41
4238.15
4107.02
3951.98
3773.01
3570.06
3343.09
3092.08
2816.97
2517.72
2194.29
1846.62
701.949
674.686
648.312
622.77
)


20
(
3347.79
3339.14
3313.19
3269.94
3209.38
3131.49
3036.26
2923.68
2793.71
2646.34
2481.53
2299.27
2099.52
1882.25
1647.42
1395.02
563.993
544.201
525.053
506.511
)


20
(
2086.54
2081.28
2065.49
2039.17
2002.32
1954.92
1896.99
1828.49
1749.43
1659.79
1559.56
1448.72
1327.26
1195.17
1052.44
899.03
394.002
381.973
370.337
359.068
)


20
(
771.99
770.183
764.761
755.725
743.076
726.816
706.944
683.464
656.376
625.684
591.39
553.496
512.005
466.921
418.245
365.982
194.015
189.918
185.954
182.116
)


20
(
2322.29
2320.91
2316.75
2309.82
2300.09
2287.53
2272.11
2253.8
2232.54
2208.29
2180.99
2150.57
2116.98
2080.13
2039.96
1996.39
1852.24
1848.83
1845.53
1842.34
)


20
(
3514.93
3510
3495.21
3470.54
3435.98
3391.49
3337.03
3272.56
3198.03
3113.37
3018.52
2913.4
2797.95
2672.08
2535.7
2388.74
1904.19
1892.67
1881.53
1870.74
)


20
(
4667.65
4659.26
4634.07
4592.08
4533.26
4457.57
4364.97
4255.41
4128.83
3985.16
3824.33
3646.25
3450.84
3238.01
3007.67
2759.72
1942.71
1923.27
1904.47
1886.26
)


20
(
5762.69
5750.97
5715.8
5657.17
5575.04
5469.38
5340.15
5187.28
5010.7
4810.35
4586.14
4337.98
4065.78
3769.43
3448.84
3103.9
1967.6
1940.56
1914.39
1889.06
)


20
(
6783.15
6768.29
6723.7
6649.37
6545.26
6411.34
6247.54
6053.82
5830.09
5576.28
5292.3
4978.04
4633.41
4258.3
3852.6
3416.2
1978.81
1944.59
1911.49
1879.43
)


20
(
7713.22
7695.46
7642.17
7553.33
7428.91
7268.87
7073.14
6841.67
6574.38
6271.17
5931.95
5556.63
5145.08
4697.2
4212.88
3691.98
1976.45
1935.6
1896.09
1857.82
)


20
(
8538.5
8518.12
8456.98
8355.05
8212.31
8028.7
7804.17
7538.65
7232.06
6884.29
6495.26
6064.86
5592.96
5079.46
4524.23
3927.13
1960.78
1913.96
1868.67
1824.8
)


20
(
9246.16
9223.49
9155.48
9042.09
8883.31
8679.07
8429.32
8133.98
7792.97
7406.19
6973.55
6494.92
5970.19
5399.24
4781.93
4118.15
1932.25
1880.2
1829.84
1781.08
)


20
(
9825.24
9800.64
9726.83
9603.79
9431.49
9209.87
8938.87
8618.42
8248.43
7828.8
7359.43
6840.19
6270.98
5651.65
4982.09
4262.15
1891.44
1834.99
1780.37
1727.48
)


20
(
10266.7
10240.6
10162.1
10031.4
9848.34
9612.87
9324.94
8984.47
8591.39
8145.58
7646.94
7095.35
6490.69
5832.84
5121.65
4357
1839.12
1779.16
1721.15
1664.97
)


20
(
10563.7
10536.5
10454.7
10318.3
10127.4
9881.81
9581.52
9226.46
8816.52
8351.62
7831.64
7256.46
6625.97
5940.03
5198.51
4401.28
1776.18
1713.66
1653.18
1594.61
)


20
(
10711.7
10683.7
10599.9
10460.1
10264.3
10012.5
9704.67
9340.65
8920.38
8443.76
7910.7
7321.06
6674.74
5971.61
5211.52
4394.36
1703.67
1639.59
1577.6
1517.56
)


20
(
10708.3
10680.1
10595.5
10454.5
10257
10003.1
9692.51
9325.31
8901.38
8420.63
7882.94
7288.21
6636.32
5927.14
5160.55
4336.41
1622.8
1558.17
1495.65
1435.1
)


20
(
10553.8
10525.8
10441.9
10301.8
10105.8
9853.63
9545.32
9180.78
8759.92
8282.66
7748.89
7158.5
6511.38
5807.41
5046.46
4228.42
1534.9
1470.75
1408.69
1348.59
)


20
(
10250.7
10223.3
10141.3
10004.5
9813
9566.69
9265.51
8909.41
8498.31
8032.11
7510.73
6934.05
6301.97
5614.37
4871.14
4072.16
1441.44
1378.79
1318.17
1259.47
)


20
(
9803.73
9777.46
9698.66
9567.31
9383.36
9146.79
8857.54
8515.54
8120.72
7673
7172.27
6618.46
6011.45
5351.14
4637.41
3870.16
1343.94
1283.77
1225.57
1169.2
)


20
(
9219.92
9195.15
9120.85
8996.99
8823.56
8600.5
8327.76
8005.3
7633.03
7210.89
6738.78
6216.63
5644.32
5021.77
4348.87
3625.52
1243.87
1187.15
1132.27
1079.13
)


20
(
8508.04
8485.17
8416.55
8302.16
8141.99
7935.98
7684.11
7386.3
7042.51
6652.66
6216.68
5734.47
5205.96
4631.06
4009.67
3341.7
1142.41
1090.03
1039.36
990.282
)


20
(
7678.21
7657.59
7595.75
7492.65
7348.29
7162.62
6935.61
6667.21
6357.37
6006.01
5613.08
5178.5
4702.19
4184.07
3624.07
3022.09
1040.09
992.884
947.215
902.989
)


20
(
6741.36
6723.33
6669.24
6579.08
6452.82
6290.45
6091.92
5857.19
5586.22
5278.95
4935.32
4555.27
4138.72
3685.63
3195.9
2669.47
936.22
894.938
855.002
816.326
)


20
(
5707.96
5692.8
5647.34
5571.54
5465.41
5328.91
5162.01
4964.69
4736.9
4478.6
4189.73
3870.24
3520.09
3139.21
2727.53
2285.01
828.027
793.325
759.754
727.244
)


20
(
4587.12
4575.07
4538.94
4478.71
4394.37
4285.89
4153.27
3996.46
3815.45
3610.19
3380.64
3126.77
2848.52
2545.86
2218.74
1867.11
709.381
681.807
655.132
629.299
)


20
(
3385.27
3376.52
3350.28
3306.54
3245.29
3166.52
3070.21
2956.34
2824.9
2675.85
2509.18
2324.84
2122.82
1903.08
1665.58
1410.3
569.815
549.797
530.432
511.679
)


20
(
2109.47
2104.15
2088.18
2061.56
2024.29
1976.37
1917.77
1848.5
1768.55
1677.89
1576.53
1464.44
1341.61
1208.02
1063.66
908.519
397.762
385.597
373.829
362.432
)


20
(
779.684
777.857
772.376
763.24
750.452
734.012
713.921
690.181
662.794
631.763
597.088
558.774
516.822
471.236
422.019
369.173
195.286
191.143
187.135
183.254
)


20
(
2285.01
2283.64
2279.53
2272.66
2263.02
2250.59
2235.32
2217.19
2196.15
2172.14
2145.12
2115.01
2081.77
2045.31
2005.56
1962.46
1819.87
1816.49
1813.23
1810.07
)


20
(
3461.78
3456.91
3442.3
3417.93
3383.79
3339.84
3286.05
3222.37
3148.74
3065.12
2971.44
2867.62
2753.59
2629.28
2494.59
2349.45
1870.94
1859.57
1848.56
1837.91
)


20
(
4599.23
4590.95
4566.08
4524.61
4466.53
4391.79
4300.36
4192.18
4067.2
3925.34
3766.54
3590.72
3397.79
3187.66
2960.24
2715.45
1908.85
1889.65
1871.09
1853.11
)


20
(
5679.85
5668.28
5633.56
5575.67
5494.59
5390.28
5262.7
5111.77
4937.46
4739.66
4518.32
4273.33
4004.62
3712.07
3395.59
3055.08
1933.39
1906.69
1880.86
1855.85
)


20
(
6686.95
6672.28
6628.27
6554.89
6452.11
6319.91
6158.22
5966.99
5746.13
5495.59
5215.25
4905.04
4564.85
4194.58
3794.11
3363.34
1944.52
1910.75
1878.07
1846.43
)


20
(
7604.94
7587.4
7534.8
7447.11
7324.29
7166.31
6973.11
6744.62
6480.77
6181.48
5846.65
5476.17
5069.95
4627.86
4149.8
3635.65
1942.35
1902.03
1863.03
1825.26
)


20
(
8419.58
8399.47
8339.12
8238.51
8097.61
7916.38
7694.75
7432.67
7130.04
6786.78
6402.78
5977.95
5512.18
5005.33
4457.3
3867.96
1927.14
1880.93
1836.22
1792.92
)


20
(
9118.25
9095.87
9028.74
8916.82
8760.09
8558.5
8311.98
8020.47
7683.88
7302.13
6875.09
6402.68
5884.76
5321.22
4711.94
4056.78
1899.32
1847.94
1798.24
1750.11
)


20
(
9690.08
9665.8
9592.95
9471.51
9301.44
9082.7
8815.22
8498.93
8133.74
7719.56
7256.29
6743.8
6181.99
5570.72
4909.86
4199.3
1859.46
1803.74
1749.83
1697.63
)


20
(
10126.2
10100.4
10023
9893.95
9713.26
9480.84
9196.66
8860.62
8472.64
8032.63
7540.48
6996.07
6399.28
5749.99
5048.07
4293.38
1808.31
1749.13
1691.88
1636.43
)


20
(
10419.8
10392.9
10312.2
10177.6
9989.15
9746.76
9450.39
9099.94
8695.34
8236.49
7723.28
7155.59
6533.31
5856.31
5124.46
4337.62
1746.75
1685.05
1625.36
1567.55
)


20
(
10566.4
10538.8
10456
10318.1
10124.9
9876.35
9572.49
9213.21
8798.42
8328.01
7801.89
7219.94
6582.04
5888.08
5137.9
4331.4
1675.83
1612.58
1551.4
1492.15
)


20
(
10563.7
10535.9
10452.4
10313.2
10118.3
9867.64
9561.14
9198.72
8780.32
8305.83
7775.15
7188.18
6544.79
5844.86
5088.27
4274.89
1596.71
1532.92
1471.22
1411.46
)


20
(
10411.9
10384.3
10301.4
10163.2
9969.74
9720.87
9416.58
9056.79
8641.42
8170.38
7643.57
7060.88
6422.21
5727.42
4976.41
4169.05
1510.72
1447.4
1386.15
1326.84
)


20
(
10113.5
10086.5
10005.5
9870.56
9681.54
9438.43
9141.18
8789.73
8383.99
7923.87
7409.29
6840.14
6216.31
5537.7
4804.17
4015.63
1419.28
1357.44
1297.62
1239.69
)


20
(
9673.18
9647.26
9569.49
9439.85
9258.3
9024.82
8739.34
8401.81
8012.14
7570.26
7076.07
6529.49
5930.41
5278.72
4574.32
3817.09
1323.89
1264.51
1207.07
1151.44
)


20
(
9097.79
9073.35
9000.02
8877.78
8706.6
8486.45
8217.28
7899.03
7531.62
7114.99
6649.05
6133.72
5568.89
4954.47
4290.37
3576.48
1225.97
1169.98
1115.82
1063.38
)


20
(
8395.96
8373.39
8305.66
8192.77
8034.68
7831.37
7582.78
7288.87
6949.57
6564.81
6134.52
5658.62
5137.02
4569.63
3956.37
3297.14
1126.61
1074.92
1024.9
976.471
)


20
(
7577.61
7557.27
7496.23
7394.48
7252
7068.76
6844.72
6579.83
6274.03
5927.27
5539.47
5110.57
4640.49
4129.15
3576.47
2982.36
1026.29
979.705
934.634
890.987
)


20
(
6653.5
6635.71
6582.33
6493.34
6368.74
6208.49
6012.55
5780.89
5513.46
5210.2
4871.07
4495.98
4084.89
3637.72
3154.39
2634.85
924.283
883.542
844.128
805.958
)


20
(
5633.94
5618.98
5574.1
5499.3
5394.55
5259.83
5095.12
4900.37
4675.56
4420.63
4135.54
3820.23
3474.66
3098.75
2692.46
2255.73
817.808
783.561
750.429
718.344
)


20
(
4527.91
4516.02
4480.36
4420.91
4337.67
4230.61
4099.72
3944.96
3766.31
3563.73
3337.18
3086.62
2812.01
2513.31
2190.46
1843.43
700.834
673.621
647.294
621.799
)


20
(
3341.87
3333.24
3307.34
3264.17
3203.72
3125.97
3030.92
2918.53
2788.8
2641.7
2477.19
2295.26
2095.87
1878.99
1644.6
1392.65
563.131
543.375
524.262
505.753
)


20
(
2082.93
2077.68
2061.92
2035.64
1998.86
1951.55
1893.72
1825.35
1746.43
1656.95
1556.9
1446.26
1325.03
1193.17
1050.69
897.564
393.45
381.443
369.828
358.579
)


20
(
770.773
768.969
763.556
754.536
741.91
725.677
705.841
682.402
655.362
624.724
590.49
552.663
511.246
466.241
417.652
365.482
193.821
189.731
185.775
181.943
)


20
(
2315.04
2313.66
2309.52
2302.6
2292.88
2280.35
2264.96
2246.69
2225.47
2201.27
2174.03
2143.67
2110.15
2073.38
2033.29
1989.82
1845.98
1842.57
1839.28
1836.1
)


20
(
3504.52
3499.6
3484.84
3460.23
3425.75
3381.37
3327.04
3262.73
3188.38
3103.93
3009.31
2904.45
2789.28
2663.72
2527.68
2381.08
1897.74
1886.25
1875.13
1864.37
)


20
(
4654.19
4645.81
4620.69
4578.8
4520.13
4444.63
4352.26
4242.98
4116.71
3973.41
3812.98
3635.35
3440.43
3228.14
2998.38
2751.05
1936.12
1916.73
1897.97
1879.81
)


20
(
5746.35
5734.66
5699.58
5641.09
5559.17
5453.78
5324.87
5172.39
4996.26
4796.42
4572.78
4325.25
4053.74
3758.15
3438.37
3094.31
1960.92
1933.94
1907.85
1882.57
)


20
(
6764.13
6749.31
6704.84
6630.69
6526.85
6393.27
6229.9
6036.67
5813.51
5560.35
5277.09
4963.63
4619.89
4245.74
3841.08
3405.79
1972.1
1937.97
1904.95
1872.97
)


20
(
7691.79
7674.07
7620.92
7532.31
7408.21
7248.57
7053.35
6822.47
6555.86
6253.43
5915.08
5540.72
5130.24
4683.51
4200.43
3680.87
1969.75
1929.01
1889.6
1851.43
)


20
(
8514.94
8494.61
8433.63
8331.97
8189.59
8006.46
7782.5
7517.66
7211.86
6864.99
6476.96
6047.66
5576.98
5064.8
4510.99
3915.44
1954.16
1907.46
1862.28
1818.53
)


20
(
9220.81
9198.19
9130.35
9017.26
8858.88
8655.17
8406.06
8111.48
7771.35
7385.57
6954.04
6476.65
5953.27
5383.79
4768.08
4106
1925.75
1873.84
1823.61
1774.97
)


20
(
9798.43
9773.89
9700.27
9577.55
9405.69
9184.65
8914.35
8594.72
8225.69
7807.14
7338.98
6821.08
6253.34
5635.61
4967.78
4249.7
1885.12
1828.81
1774.34
1721.59
)


20
(
10238.8
10212.7
10134.5
10004.1
9821.53
9586.67
9299.48
8959.9
8567.82
8123.17
7625.81
7075.65
6472.56
5816.4
5107.06
4344.39
1833.02
1773.21
1715.35
1659.32
)


20
(
10535.2
10508
10426.4
10290.4
10099.9
9855
9555.49
9201.34
8792.47
8328.76
7810.13
7236.44
6607.57
5923.41
5183.81
4388.65
1770.34
1707.98
1647.66
1589.24
)


20
(
10682.8
10655
10571.3
10431.9
10236.6
9985.49
9678.42
9315.34
8896.16
8420.77
7889.09
7300.98
6656.33
5955.01
5196.9
4381.85
1698.14
1634.22
1572.39
1512.51
)


20
(
10679.6
10651.5
10567.1
10426.5
10229.5
9976.16
9666.41
9300.16
8877.33
8397.82
7861.53
7268.34
6618.13
5910.79
5146.18
4324.18
1617.61
1553.14
1490.78
1430.39
)


20
(
10525.6
10497.7
10413.9
10274.3
10078.8
9827.25
9519.74
9156.14
8736.37
8260.34
7727.95
7139.1
6493.65
5791.51
5032.53
4216.61
1530.08
1466.1
1404.2
1344.25
)


20
(
10223.4
10196.1
10114.3
9977.9
9786.88
9541.2
9240.8
8885.62
8475.58
8010.6
7490.56
6915.38
6284.94
5599.12
4857.82
4060.91
1437.02
1374.52
1314.07
1255.52
)


20
(
9777.78
9751.58
9672.99
9541.97
9358.51
9122.55
8834.05
8492.93
8099.14
7652.57
7153.15
6600.77
5995.33
5336.73
4624.85
3859.59
1339.93
1279.92
1221.87
1165.65
)


20
(
9195.64
9170.94
9096.83
8973.3
8800.31
8577.82
8305.8
7984.17
7612.87
7191.82
6720.94
6200.14
5629.32
5008.38
4337.23
3615.75
1240.29
1183.71
1128.98
1075.97
)


20
(
8485.76
8462.95
8394.5
8280.41
8120.65
7915.18
7663.96
7366.93
7024.03
6635.19
6200.34
5719.38
5192.25
4618.84
3999.06
3332.83
1139.25
1087
1036.46
987.512
)


20
(
7658.21
7637.65
7575.96
7473.13
7329.14
7143.96
6917.54
6649.84
6340.79
5990.35
5598.44
5164.98
4689.91
4173.14
3614.59
3014.18
1037.32
990.241
944.691
900.58
)


20
(
6723.89
6705.91
6651.96
6562.03
6436.1
6274.15
6076.14
5842.02
5571.75
5265.27
4922.54
4543.47
4128.01
3676.09
3187.63
2662.57
933.825
892.651
852.818
814.243
)


20
(
5693.24
5678.12
5632.77
5557.17
5451.31
5315.17
5148.71
4951.9
4724.7
4467.06
4178.95
3860.29
3511.05
3131.15
2720.55
2279.18
825.975
791.363
757.879
725.453
)


20
(
4575.34
4563.33
4527.29
4467.21
4383.09
4274.89
4142.61
3986.22
3805.67
3600.94
3371.99
3118.77
2841.25
2539.38
2213.1
1862.38
707.661
680.159
653.553
627.787
)


20
(
3376.63
3367.91
3341.74
3298.11
3237.02
3158.45
3062.39
2948.82
2817.71
2669.05
2502.81
2318.95
2117.45
1898.27
1661.39
1406.77
568.467
548.501
529.186
510.481
)


20
(
2104.18
2098.88
2082.95
2056.4
2019.23
1971.42
1912.98
1843.89
1764.14
1673.72
1572.62
1460.81
1338.3
1205.06
1061.07
906.328
396.89
384.756
373.018
361.651
)


20
(
777.912
776.089
770.622
761.509
748.753
732.354
712.314
688.634
661.316
630.362
595.775
557.558
515.712
470.242
421.149
368.437
194.992
190.86
186.862
182.991
)


20
(
2315.04
2313.66
2309.52
2302.6
2292.88
2280.35
2264.96
2246.69
2225.47
2201.27
2174.03
2143.67
2110.15
2073.38
2033.29
1989.82
1845.98
1842.57
1839.28
1836.1
)


20
(
3504.52
3499.6
3484.84
3460.23
3425.75
3381.37
3327.04
3262.73
3188.38
3103.93
3009.31
2904.45
2789.29
2663.72
2527.68
2381.08
1897.74
1886.25
1875.13
1864.37
)


20
(
4654.19
4645.81
4620.69
4578.8
4520.13
4444.63
4352.26
4242.98
4116.71
3973.41
3812.98
3635.35
3440.43
3228.14
2998.38
2751.05
1936.12
1916.73
1897.97
1879.81
)


20
(
5746.35
5734.66
5699.58
5641.09
5559.17
5453.78
5324.87
5172.39
4996.26
4796.42
4572.78
4325.25
4053.74
3758.15
3438.37
3094.31
1960.92
1933.94
1907.85
1882.57
)


20
(
6764.13
6749.31
6704.84
6630.69
6526.85
6393.27
6229.9
6036.67
5813.51
5560.35
5277.09
4963.63
4619.89
4245.74
3841.08
3405.79
1972.1
1937.97
1904.95
1872.97
)


20
(
7691.79
7674.07
7620.92
7532.31
7408.21
7248.57
7053.35
6822.47
6555.86
6253.43
5915.08
5540.72
5130.23
4683.51
4200.43
3680.87
1969.75
1929.01
1889.6
1851.43
)


20
(
8514.94
8494.61
8433.63
8331.97
8189.59
8006.46
7782.5
7517.66
7211.86
6864.99
6476.96
6047.66
5576.98
5064.8
4510.99
3915.44
1954.16
1907.46
1862.28
1818.53
)


20
(
9220.81
9198.19
9130.35
9017.26
8858.88
8655.17
8406.06
8111.48
7771.35
7385.57
6954.04
6476.65
5953.27
5383.79
4768.08
4106
1925.75
1873.84
1823.61
1774.97
)


20
(
9798.43
9773.89
9700.27
9577.55
9405.69
9184.65
8914.35
8594.72
8225.69
7807.14
7338.98
6821.08
6253.34
5635.61
4967.78
4249.7
1885.12
1828.81
1774.34
1721.59
)


20
(
10238.8
10212.7
10134.5
10004.1
9821.53
9586.67
9299.48
8959.9
8567.82
8123.17
7625.81
7075.65
6472.56
5816.4
5107.06
4344.39
1833.02
1773.21
1715.35
1659.32
)


20
(
10535.2
10508
10426.4
10290.4
10099.9
9855
9555.49
9201.34
8792.47
8328.76
7810.13
7236.44
6607.57
5923.41
5183.81
4388.65
1770.34
1707.98
1647.66
1589.24
)


20
(
10682.8
10655
10571.3
10431.9
10236.6
9985.49
9678.42
9315.34
8896.16
8420.77
7889.09
7300.98
6656.33
5955.01
5196.9
4381.85
1698.14
1634.22
1572.39
1512.51
)


20
(
10679.6
10651.5
10567.1
10426.5
10229.5
9976.16
9666.41
9300.16
8877.33
8397.82
7861.53
7268.34
6618.13
5910.79
5146.18
4324.18
1617.61
1553.14
1490.78
1430.39
)


20
(
10525.6
10497.7
10413.9
10274.3
10078.8
9827.25
9519.74
9156.14
8736.37
8260.34
7727.95
7139.1
6493.65
5791.5
5032.53
4216.61
1530.08
1466.1
1404.2
1344.25
)


20
(
10223.4
10196.1
10114.3
9977.9
9786.88
9541.19
9240.8
8885.62
8475.58
8010.6
7490.56
6915.38
6284.94
5599.12
4857.82
4060.91
1437.02
1374.52
1314.07
1255.52
)


20
(
9777.78
9751.58
9672.99
9541.97
9358.51
9122.55
8834.05
8492.93
8099.14
7652.57
7153.15
6600.77
5995.33
5336.73
4624.85
3859.59
1339.93
1279.92
1221.87
1165.65
)


20
(
9195.64
9170.94
9096.83
8973.3
8800.31
8577.82
8305.8
7984.17
7612.87
7191.82
6720.94
6200.14
5629.32
5008.38
4337.23
3615.75
1240.29
1183.71
1128.98
1075.97
)


20
(
8485.76
8462.95
8394.5
8280.41
8120.65
7915.18
7663.96
7366.93
7024.03
6635.19
6200.34
5719.38
5192.25
4618.84
3999.06
3332.83
1139.25
1087
1036.46
987.512
)


20
(
7658.21
7637.65
7575.96
7473.13
7329.14
7143.96
6917.54
6649.84
6340.79
5990.35
5598.44
5164.98
4689.91
4173.14
3614.59
3014.18
1037.32
990.241
944.691
900.58
)


20
(
6723.89
6705.9
6651.96
6562.03
6436.1
6274.15
6076.14
5842.02
5571.75
5265.27
4922.54
4543.47
4128.01
3676.09
3187.63
2662.57
933.825
892.651
852.818
814.243
)


20
(
5693.24
5678.12
5632.77
5557.17
5451.31
5315.17
5148.71
4951.9
4724.7
4467.06
4178.95
3860.29
3511.05
3131.15
2720.55
2279.17
825.975
791.363
757.879
725.453
)


20
(
4575.34
4563.33
4527.29
4467.21
4383.09
4274.9
4142.61
3986.22
3805.67
3600.94
3371.99
3118.77
2841.25
2539.38
2213.1
1862.38
707.661
680.159
653.553
627.787
)


20
(
3376.63
3367.91
3341.74
3298.11
3237.02
3158.45
3062.39
2948.82
2817.71
2669.05
2502.81
2318.95
2117.45
1898.27
1661.39
1406.77
568.467
548.501
529.186
510.481
)


20
(
2104.18
2098.88
2082.95
2056.4
2019.23
1971.42
1912.98
1843.89
1764.14
1673.72
1572.62
1460.81
1338.3
1205.06
1061.07
906.328
396.89
384.756
373.018
361.651
)


20
(
777.912
776.089
770.622
761.509
748.753
732.354
712.314
688.634
661.316
630.362
595.775
557.558
515.712
470.242
421.149
368.437
194.992
190.86
186.862
182.991
)


20
(
2285.01
2283.64
2279.53
2272.66
2263.02
2250.59
2235.33
2217.19
2196.15
2172.14
2145.12
2115.01
2081.77
2045.31
2005.56
1962.46
1819.87
1816.5
1813.23
1810.08
)


20
(
3461.78
3456.91
3442.3
3417.93
3383.79
3339.84
3286.05
3222.37
3148.74
3065.12
2971.44
2867.62
2753.59
2629.28
2494.59
2349.46
1870.95
1859.57
1848.56
1837.91
)


20
(
4599.24
4590.95
4566.08
4524.62
4466.53
4391.8
4300.36
4192.19
4067.2
3925.35
3766.55
3590.72
3397.79
3187.66
2960.25
2715.45
1908.85
1889.66
1871.09
1853.11
)


20
(
5679.86
5668.28
5633.56
5575.68
5494.59
5390.28
5262.7
5111.78
4937.46
4739.67
4518.32
4273.34
4004.62
3712.07
3395.59
3055.08
1933.39
1906.69
1880.86
1855.85
)


20
(
6686.95
6672.28
6628.27
6554.89
6452.12
6319.91
6158.22
5966.99
5746.13
5495.59
5215.25
4905.04
4564.85
4194.58
3794.11
3363.34
1944.53
1910.75
1878.07
1846.43
)


20
(
7604.94
7587.4
7534.8
7447.11
7324.29
7166.31
6973.11
6744.62
6480.78
6181.48
5846.65
5476.17
5069.95
4627.86
4149.81
3635.66
1942.35
1902.04
1863.03
1825.26
)


20
(
8419.58
8399.47
8339.12
8238.51
8097.61
7916.38
7694.76
7432.67
7130.04
6786.78
6402.78
5977.96
5512.18
5005.33
4457.3
3867.96
1927.14
1880.93
1836.22
1792.93
)


20
(
9118.25
9095.87
9028.74
8916.82
8760.09
8558.5
8311.98
8020.47
7683.89
7302.13
6875.09
6402.68
5884.76
5321.23
4711.94
4056.79
1899.32
1847.94
1798.24
1750.11
)


20
(
9690.08
9665.8
9592.95
9471.51
9301.44
9082.7
8815.22
8498.93
8133.74
7719.56
7256.29
6743.8
6181.99
5570.72
4909.87
4199.3
1859.46
1803.74
1749.84
1697.63
)


20
(
10126.2
10100.4
10023
9893.95
9713.26
9480.85
9196.66
8860.62
8472.64
8032.63
7540.48
6996.07
6399.28
5749.99
5048.07
4293.38
1808.31
1749.13
1691.88
1636.43
)


20
(
10419.8
10392.9
10312.2
10177.6
9989.15
9746.76
9450.39
9099.94
8695.34
8236.49
7723.28
7155.59
6533.31
5856.31
5124.46
4337.62
1746.75
1685.05
1625.36
1567.55
)


20
(
10566.4
10538.8
10456
10318.1
10124.9
9876.35
9572.5
9213.21
8798.42
8328.01
7801.89
7219.94
6582.05
5888.08
5137.91
4331.41
1675.83
1612.58
1551.4
1492.15
)


20
(
10563.7
10535.9
10452.4
10313.2
10118.3
9867.64
9561.14
9198.72
8780.32
8305.83
7775.15
7188.18
6544.79
5844.86
5088.27
4274.89
1596.71
1532.92
1471.22
1411.46
)


20
(
10411.9
10384.3
10301.4
10163.2
9969.74
9720.87
9416.58
9056.79
8641.42
8170.38
7643.57
7060.88
6422.21
5727.42
4976.41
4169.05
1510.72
1447.4
1386.15
1326.84
)


20
(
10113.5
10086.5
10005.5
9870.56
9681.54
9438.43
9141.18
8789.73
8383.99
7923.88
7409.29
6840.14
6216.32
5537.7
4804.17
4015.63
1419.28
1357.45
1297.62
1239.69
)


20
(
9673.19
9647.26
9569.49
9439.85
9258.31
9024.82
8739.34
8401.81
8012.14
7570.26
7076.07
6529.49
5930.41
5278.72
4574.32
3817.09
1323.9
1264.51
1207.07
1151.44
)


20
(
9097.79
9073.35
9000.02
8877.78
8706.6
8486.46
8217.28
7899.03
7531.62
7114.99
6649.05
6133.72
5568.89
4954.47
4290.37
3576.48
1225.97
1169.98
1115.83
1063.38
)


20
(
8395.96
8373.39
8305.66
8192.77
8034.68
7831.37
7582.79
7288.87
6949.57
6564.81
6134.52
5658.62
5137.02
4569.63
3956.37
3297.14
1126.61
1074.92
1024.9
976.472
)


20
(
7577.61
7557.27
7496.23
7394.48
7252
7068.76
6844.72
6579.83
6274.03
5927.27
5539.47
5110.57
4640.49
4129.15
3576.47
2982.36
1026.3
979.706
934.635
890.988
)


20
(
6653.5
6635.71
6582.33
6493.34
6368.74
6208.49
6012.55
5780.89
5513.46
5210.2
4871.07
4495.98
4084.89
3637.72
3154.39
2634.85
924.284
883.542
844.128
805.959
)


20
(
5633.94
5618.98
5574.1
5499.3
5394.55
5259.83
5095.12
4900.37
4675.56
4420.63
4135.54
3820.23
3474.66
3098.75
2692.46
2255.73
817.809
783.561
750.43
718.344
)


20
(
4527.91
4516.03
4480.36
4420.92
4337.67
4230.62
4099.72
3944.97
3766.31
3563.73
3337.18
3086.62
2812.01
2513.31
2190.46
1843.43
700.835
673.622
647.295
621.8
)


20
(
3341.88
3333.24
3307.34
3264.17
3203.72
3125.97
3030.92
2918.53
2788.8
2641.7
2477.19
2295.26
2095.87
1878.99
1644.6
1392.65
563.132
543.376
524.263
505.754
)


20
(
2082.93
2077.68
2061.92
2035.65
1998.86
1951.55
1893.72
1825.35
1746.43
1656.95
1556.9
1446.26
1325.03
1193.17
1050.69
897.564
393.45
381.444
369.828
358.579
)


20
(
770.773
768.969
763.556
754.537
741.91
725.678
705.841
682.402
655.362
624.724
590.491
552.664
511.246
466.242
417.653
365.483
193.821
189.731
185.775
181.943
)


20
(
2322.29
2320.91
2316.75
2309.82
2300.09
2287.53
2272.11
2253.8
2232.54
2208.29
2180.99
2150.57
2116.98
2080.13
2039.96
1996.39
1852.24
1848.83
1845.53
1842.34
)


20
(
3514.93
3510
3495.21
3470.54
3435.98
3391.49
3337.03
3272.56
3198.02
3113.37
3018.52
2913.4
2797.95
2672.08
2535.7
2388.74
1904.19
1892.67
1881.53
1870.74
)


20
(
4667.65
4659.26
4634.07
4592.08
4533.26
4457.57
4364.97
4255.41
4128.83
3985.16
3824.33
3646.25
3450.84
3238.01
3007.67
2759.72
1942.71
1923.27
1904.47
1886.26
)


20
(
5762.69
5750.97
5715.8
5657.17
5575.04
5469.38
5340.15
5187.28
5010.7
4810.35
4586.14
4337.98
4065.78
3769.43
3448.84
3103.9
1967.6
1940.56
1914.39
1889.06
)


20
(
6783.15
6768.29
6723.7
6649.37
6545.26
6411.34
6247.54
6053.82
5830.09
5576.28
5292.3
4978.04
4633.41
4258.3
3852.6
3416.2
1978.81
1944.59
1911.49
1879.43
)


20
(
7713.22
7695.46
7642.17
7553.33
7428.91
7268.87
7073.14
6841.67
6574.38
6271.17
5931.95
5556.63
5145.08
4697.2
4212.88
3691.98
1976.45
1935.6
1896.09
1857.82
)


20
(
8538.5
8518.12
8456.98
8355.05
8212.31
8028.7
7804.17
7538.65
7232.06
6884.29
6495.26
6064.86
5592.96
5079.46
4524.23
3927.13
1960.78
1913.96
1868.67
1824.8
)


20
(
9246.16
9223.49
9155.48
9042.09
8883.31
8679.07
8429.31
8133.98
7792.97
7406.19
6973.55
6494.92
5970.19
5399.24
4781.93
4118.15
1932.25
1880.2
1829.84
1781.08
)


20
(
9825.24
9800.64
9726.83
9603.79
9431.49
9209.87
8938.87
8618.42
8248.43
7828.8
7359.43
6840.19
6270.98
5651.65
4982.09
4262.15
1891.44
1834.99
1780.37
1727.48
)


20
(
10266.7
10240.6
10162.1
10031.4
9848.34
9612.87
9324.94
8984.47
8591.39
8145.58
7646.94
7095.35
6490.69
5832.84
5121.65
4357
1839.12
1779.16
1721.15
1664.97
)


20
(
10563.7
10536.5
10454.7
10318.3
10127.4
9881.81
9581.52
9226.46
8816.52
8351.62
7831.64
7256.46
6625.97
5940.03
5198.51
4401.28
1776.18
1713.66
1653.18
1594.61
)


20
(
10711.7
10683.7
10599.9
10460.1
10264.3
10012.5
9704.67
9340.65
8920.38
8443.76
7910.7
7321.06
6674.74
5971.6
5211.52
4394.36
1703.67
1639.59
1577.6
1517.56
)


20
(
10708.3
10680.1
10595.5
10454.5
10257
10003.1
9692.51
9325.31
8901.38
8420.63
7882.94
7288.21
6636.32
5927.14
5160.55
4336.41
1622.8
1558.17
1495.65
1435.1
)


20
(
10553.8
10525.8
10441.9
10301.8
10105.8
9853.63
9545.32
9180.78
8759.92
8282.66
7748.88
7158.5
6511.38
5807.41
5046.46
4228.42
1534.9
1470.75
1408.69
1348.59
)


20
(
10250.7
10223.3
10141.3
10004.5
9813
9566.68
9265.51
8909.41
8498.31
8032.11
7510.73
6934.05
6301.97
5614.37
4871.14
4072.16
1441.44
1378.79
1318.17
1259.47
)


20
(
9803.73
9777.46
9698.66
9567.31
9383.36
9146.79
8857.54
8515.54
8120.72
7673
7172.28
6618.46
6011.45
5351.14
4637.41
3870.16
1343.94
1283.77
1225.57
1169.2
)


20
(
9219.92
9195.15
9120.85
8996.99
8823.56
8600.5
8327.76
8005.3
7633.03
7210.89
6738.78
6216.63
5644.32
5021.77
4348.87
3625.52
1243.87
1187.15
1132.27
1079.13
)


20
(
8508.04
8485.17
8416.55
8302.16
8141.98
7935.98
7684.11
7386.3
7042.51
6652.66
6216.67
5734.47
5205.96
4631.06
4009.67
3341.7
1142.41
1090.03
1039.36
990.282
)


20
(
7678.21
7657.59
7595.75
7492.65
7348.29
7162.62
6935.61
6667.21
6357.37
6006.01
5613.08
5178.5
4702.19
4184.07
3624.07
3022.09
1040.09
992.884
947.215
902.989
)


20
(
6741.35
6723.33
6669.24
6579.08
6452.82
6290.45
6091.92
5857.19
5586.22
5278.95
4935.32
4555.27
4138.72
3685.63
3195.9
2669.47
936.22
894.938
855.002
816.326
)


20
(
5707.96
5692.8
5647.33
5571.54
5465.4
5328.9
5162.01
4964.69
4736.9
4478.59
4189.73
3870.24
3520.09
3139.21
2727.53
2285.01
828.027
793.325
759.754
727.244
)


20
(
4587.12
4575.08
4538.94
4478.71
4394.37
4285.89
4153.27
3996.46
3815.45
3610.19
3380.64
3126.77
2848.52
2545.86
2218.74
1867.11
709.381
681.807
655.132
629.3
)


20
(
3385.27
3376.52
3350.28
3306.54
3245.29
3166.52
3070.21
2956.35
2824.9
2675.85
2509.18
2324.84
2122.82
1903.08
1665.58
1410.3
569.815
549.798
530.432
511.679
)


20
(
2109.47
2104.15
2088.18
2061.56