/*--------------------------------*- C++ -*----------------------------------*\
| =========                 |                                                 |
| \\      /  F ield         | OpenFOAM: The Open Source CFD Toolbox           |
|  \\    /   O peration     | Version:  2212                                  |
|   \\  /    A nd           | Website:  www.openfoam.com                      |
|    \\/     M anipulation  |                                                 |
\*---------------------------------------------------------------------------*/
FoamFile
{
    version     2.0;
    format      ascii;
    arch        "LSB;label=32;scalar=64";
    class       volVectorField;
    location    "34/fluidRegion";
    object      U;
}
// * * * * * * * * * * * * * * * * * * * * * * * * * * * * * * * * * * * * * //

dimensions      [0 1 -1 0 0 0 0];

internalField   nonuniform List<vector> 
350
(
(1.03083e-07 5.95147e-08 -14.9662)
(1.13931e-07 6.5778e-08 -14.9652)
(8.31196e-08 4.7989e-08 -14.9643)
(4.49956e-08 2.59781e-08 -14.9635)
(5.79813e-09 3.34754e-09 -14.9626)
(-3.81214e-08 -2.20093e-08 -14.9616)
(-8.53599e-08 -4.92824e-08 -14.9606)
(-1.27693e-07 -7.37234e-08 -14.9594)
(-1.53949e-07 -8.8882e-08 -14.9581)
(-1.54834e-07 -8.93931e-08 -14.9568)
(-1.27074e-07 -7.33662e-08 -14.9554)
(-7.41837e-08 -4.28298e-08 -14.9539)
(-5.26148e-09 -3.03771e-09 -14.9525)
(6.64202e-08 3.83476e-08 -14.951)
(1.25161e-07 7.22616e-08 -14.9496)
(1.56088e-07 9.01169e-08 -14.9483)
(1.49917e-07 8.65546e-08 -14.947)
(1.07212e-07 6.18985e-08 -14.9458)
(3.89594e-08 2.24932e-08 -14.9447)
(-3.83942e-08 -2.21668e-08 -14.9436)
(-1.0968e-07 -6.33235e-08 -14.9425)
(-1.6082e-07 -9.28492e-08 -14.9414)
(-1.67628e-07 -9.67797e-08 -14.9403)
(-5.98231e-08 -3.45388e-08 -14.939)
(1.2994e-07 7.50205e-08 -14.9692)
(1.03083e-07 5.95147e-08 -14.9662)
(1.13931e-07 6.5778e-08 -14.9652)
(8.31196e-08 4.7989e-08 -14.9643)
(4.49956e-08 2.59781e-08 -14.9635)
(5.79813e-09 3.34754e-09 -14.9626)
(-3.81214e-08 -2.20093e-08 -14.9616)
(-8.53599e-08 -4.92824e-08 -14.9606)
(-1.27693e-07 -7.37234e-08 -14.9594)
(-1.53949e-07 -8.8882e-08 -14.9581)
(-1.54834e-07 -8.93931e-08 -14.9568)
(-1.27074e-07 -7.33662e-08 -14.9554)
(-7.41837e-08 -4.28298e-08 -14.9539)
(-5.26148e-09 -3.03771e-09 -14.9525)
(6.64202e-08 3.83476e-08 -14.951)
(1.25161e-07 7.22616e-08 -14.9496)
(1.56088e-07 9.01169e-08 -14.9483)
(1.49917e-07 8.65546e-08 -14.947)
(1.07212e-07 6.18985e-08 -14.9458)
(3.89594e-08 2.24932e-08 -14.9447)
(-3.83942e-08 -2.21668e-08 -14.9436)
(-1.0968e-07 -6.33235e-08 -14.9425)
(-1.6082e-07 -9.28492e-08 -14.9414)
(-1.67628e-07 -9.67797e-08 -14.9403)
(-5.98231e-08 -3.45388e-08 -14.939)
(1.2994e-07 7.50205e-08 -14.9692)
(-0.00192472 -0.00111123 -417.468)
(-0.00095039 -0.000548708 -409.864)
(-0.00103765 -0.000599086 -400.191)
(-0.00093316 -0.00053876 -388.18)
(-0.000844166 -0.000487379 -374.023)
(-0.00076123 -0.000439496 -357.923)
(-0.000683974 -0.000394892 -340.087)
(-0.000608323 -0.000351215 -320.731)
(-0.000526338 -0.000303881 -300.075)
(-0.000424837 -0.00024528 -278.348)
(-0.000288072 -0.000166318 -255.789)
(-0.000100447 -5.79929e-05 -232.655)
(0.000140788 8.12841e-05 -209.23)
(0.00041658 0.000240512 -185.823)
(0.000695182 0.000401363 -162.774)
(0.000930633 0.000537301 -140.432)
(0.00108771 0.00062799 -119.143)
(0.0011579 0.000668511 -99.2183)
(0.0011605 0.000670014 -80.9238)
(0.00112864 0.000651618 -64.4803)
(0.00109161 0.000630238 -50.08)
(0.00105551 0.000609397 -37.9111)
(0.00100441 0.000579899 -28.1803)
(0.00087112 0.000502941 -21.1081)
(0.000824789 0.000476192 -16.6322)
(-0.00185694 -0.00108695 -420.138)
(-0.000695621 -0.000399486 -412.496)
(-0.000796052 -0.000462195 -402.793)
(-0.00072281 -0.000422164 -390.732)
(-0.000660545 -0.000388738 -376.508)
(-0.000602539 -0.000356518 -360.324)
(-0.000548138 -0.000326743 -342.39)
(-0.000494194 -0.000297298 -322.921)
(-0.000434965 -0.000265368 -302.14)
(-0.000360896 -0.000225104 -280.274)
(-0.000261349 -0.000170877 -257.565)
(-0.000125319 -9.48687e-05 -234.271)
(4.9785e-05 1.78713e-06 -210.676)
(0.000243665 0.000109655 -187.092)
(0.000438293 0.000217775 -163.862)
(0.000601145 0.000307352 -141.342)
(0.000708917 0.000364938 -119.881)
(0.000756856 0.000387723 -99.7953)
(0.000759131 0.000383346 -81.3559)
(0.000738167 0.000366002 -64.7861)
(0.000714916 0.000347567 -50.2796)
(0.000693873 0.000334631 -38.0263)
(0.000670406 0.00032141 -28.2344)
(0.000609837 0.000295248 -21.1249)
(0.000626075 0.000319898 -16.6342)
(-0.000858763 -0.000668514 -417.041)
(-0.000513204 -0.000984144 -409.436)
(-0.00050222 -0.00093916 -399.769)
(-0.000454998 -0.000826206 -387.767)
(-0.000410765 -0.000726968 -373.623)
(-0.000370101 -0.000635477 -357.537)
(-0.000331605 -0.000550585 -339.718)
(-0.000292425 -0.000468345 -320.381)
(-0.000247116 -0.000379364 -299.747)
(-0.000187696 -0.000269483 -278.042)
(-0.000105634 -0.000119662 -255.508)
(5.79593e-06 8.53713e-05 -232.4)
(0.000147435 0.000348282 -209.002)
(0.000299062 0.00065923 -185.624)
(0.000446132 0.000973225 -162.602)
(0.000562472 0.00123896 -140.289)
(0.000632156 0.00141513 -119.026)
(0.000654648 0.00149132 -99.1265)
(0.000643387 0.00148949 -80.8542)
(0.000616303 0.00144798 -64.43)
(0.000587481 0.00139756 -50.0456)
(0.000560068 0.00134169 -37.8892)
(0.000519547 0.00124364 -28.1676)
(0.000452357 0.00100304 -21.1014)
(0.000391207 0.000788968 -16.63)
(-0.000968972 -0.000559435 -419.543)
(-0.000937234 -0.00054111 -411.909)
(-0.000902643 -0.00052114 -402.212)
(-0.00080225 -0.000463178 -390.161)
(-0.000712477 -0.000411347 -375.951)
(-0.000629793 -0.00036361 -359.785)
(-0.000552545 -0.000319011 -341.872)
(-0.000476656 -0.000275197 -322.428)
(-0.000392707 -0.000226729 -301.674)
(-0.000286824 -0.000165597 -279.838)
(-0.000141894 -8.19222e-05 -257.163)
(5.58548e-05 3.22477e-05 -233.904)
(0.000308747 0.000178254 -210.347)
(0.000597682 0.000345071 -186.804)
(0.00088556 0.000511277 -163.614)
(0.00112385 0.000648852 -141.135)
(0.00127673 0.00073712 -119.712)
(0.00133743 0.000772162 -99.6636)
(0.00132836 0.000766929 -81.2573)
(0.00128476 0.000741756 -64.7164)
(0.00123469 0.000712844 -50.2343)
(0.0011827 0.00068283 -38.0003)
(0.00109654 0.000633088 -28.2225)
(0.000905743 0.00052293 -21.1215)
(0.00073557 0.00042468 -16.634)
(0.000955294 0.000551538 -419.543)
(0.000943624 0.0005448 -411.91)
(0.000907566 0.000523982 -402.212)
(0.000807933 0.000466459 -390.161)
(0.000718136 0.000414615 -375.951)
(0.000635436 0.000366868 -359.785)
(0.000558246 0.000322302 -341.872)
(0.000481852 0.000278197 -322.428)
(0.000397208 0.000229328 -301.674)
(0.000290325 0.000167619 -279.838)
(0.000143538 8.28718e-05 -257.163)
(-5.65975e-05 -3.26765e-05 -233.904)
(-0.000312433 -0.000180383 -210.347)
(-0.000604578 -0.000349052 -186.804)
(-0.000895751 -0.000517161 -163.614)
(-0.00113736 -0.000656655 -141.135)
(-0.00129374 -0.000746937 -119.712)
(-0.00135813 -0.000784113 -99.6636)
(-0.00135237 -0.000780789 -81.2573)
(-0.00131173 -0.000757326 -64.7164)
(-0.00126434 -0.000729965 -50.2343)
(-0.00121312 -0.000700396 -38.0003)
(-0.00112625 -0.00065024 -28.2225)
(-0.000931131 -0.000537587 -21.1215)
(-0.000754709 -0.00043573 -16.634)
(0.00099683 0.000421285 -417.041)
(0.00111156 -4.28686e-05 -409.436)
(0.00106599 -2.95301e-05 -399.769)
(0.000944979 -1.36686e-05 -387.768)
(0.000837023 -2.40429e-06 -373.623)
(0.000737216 9.32553e-06 -357.537)
(0.000644291 1.93133e-05 -339.718)
(0.000552841 2.80616e-05 -320.382)
(0.000452452 3.46284e-05 -299.747)
(0.000326474 4.02199e-05 -278.042)
(0.000154276 4.55328e-05 -255.508)
(-8.05398e-05 5.30139e-05 -232.4)
(-0.000381105 6.34726e-05 -209.002)
(-0.000728389 8.94026e-05 -185.624)
(-0.00107604 0.000120595 -162.602)
(-0.00136658 0.000154145 -140.289)
(-0.00155622 0.000182704 -119.026)
(-0.00163564 0.000201186 -99.1265)
(-0.00163044 0.000209271 -80.8542)
(-0.00158259 0.000209828 -64.43)
(-0.00152597 0.000206659 -50.0456)
(-0.00146412 0.00019858 -37.8892)
(-0.00135836 0.000181099 -28.1675)
(-0.00111328 0.000115729 -21.1013)
(-0.000891551 5.43408e-05 -16.6299)
(0.00185817 0.00109003 -420.138)
(0.000696713 0.000404196 -412.496)
(0.000798283 0.000461757 -402.793)
(0.000726566 0.000418174 -390.732)
(0.000665555 0.00038102 -376.508)
(0.000608375 0.000348368 -360.324)
(0.000554674 0.00031731 -342.39)
(0.000501482 0.000287698 -322.921)
(0.000442979 0.000254661 -302.14)
(0.000369654 0.000214232 -280.274)
(0.000270505 0.000158793 -257.565)
(0.000134792 8.22803e-05 -234.271)
(-4.05721e-05 -1.59087e-05 -210.676)
(-0.000235106 -0.000124427 -187.092)
(-0.000431306 -0.000233233 -163.862)
(-0.000596854 -0.000323238 -141.342)
(-0.000709254 -0.00038114 -119.881)
(-0.000764298 -0.000404325 -99.7953)
(-0.000776683 -0.000400773 -81.3559)
(-0.00076989 -0.000383985 -64.7861)
(-0.000766805 -0.000364467 -50.2796)
(-0.000767774 -0.000347504 -38.0263)
(-0.000764017 -0.00033119 -28.2344)
(-0.000709533 -0.000299582 -21.1249)
(-0.000717815 -0.000324933 -16.6342)
(0.00192606 0.00111201 -417.468)
(0.00095202 0.000549649 -409.864)
(0.00103821 0.000599408 -400.191)
(0.000933325 0.000538855 -388.18)
(0.000843806 0.000487171 -374.023)
(0.000761109 0.000439426 -357.922)
(0.000683755 0.000394766 -340.087)
(0.0006084 0.000351259 -320.731)
(0.000526404 0.000303919 -300.075)
(0.000425188 0.000245482 -278.348)
(0.000288283 0.00016644 -255.789)
(0.000100615 5.80899e-05 -232.655)
(-0.000141146 -8.14908e-05 -209.23)
(-0.000417374 -0.000240971 -185.823)
(-0.000696884 -0.000402346 -162.774)
(-0.000933692 -0.000539067 -140.432)
(-0.00109301 -0.000631046 -119.143)
(-0.00116661 -0.000673542 -99.2183)
(-0.00117426 -0.00067796 -80.9238)
(-0.00114946 -0.000663643 -64.4803)
(-0.0011221 -0.000647843 -50.08)
(-0.00109597 -0.000632761 -37.9111)
(-0.00105432 -0.000608709 -28.1803)
(-0.000922959 -0.00053287 -21.1081)
(-0.000873668 -0.000504412 -16.6322)
(0.000973951 0.000562309 -419.543)
(0.00094312 0.000544509 -411.909)
(0.000909484 0.000525089 -402.212)
(0.000809941 0.000467618 -390.161)
(0.000720701 0.000416096 -375.951)
(0.000638822 0.000368823 -359.785)
(0.000562636 0.000324837 -341.872)
(0.000487767 0.000281611 -322.428)
(0.000404917 0.000233778 -301.674)
(0.000300443 0.00017346 -279.838)
(0.000156565 9.03924e-05 -257.163)
(-4.1062e-05 -2.37071e-05 -233.904)
(-0.000292653 -0.000168963 -210.347)
(-0.000580388 -0.000335086 -186.804)
(-0.000866529 -0.000500289 -163.614)
(-0.00110222 -0.000636363 -141.135)
(-0.00125129 -0.000722429 -119.712)
(-0.00130658 -0.000754353 -99.6636)
(-0.00128868 -0.000744015 -81.2573)
(-0.00123314 -0.000711954 -64.7164)
(-0.00116554 -0.000672925 -50.2343)
(-0.00109509 -0.000632248 -38.0003)
(-0.000990344 -0.000571773 -28.2225)
(-0.000794703 -0.00045882 -21.1215)
(-0.000637822 -0.000368245 -16.634)
(0.000862397 0.000669352 -417.041)
(0.000517348 0.000985266 -409.436)
(0.000507942 0.000939106 -399.769)
(0.000462474 0.000824953 -387.767)
(0.000419598 0.000724676 -373.623)
(0.000380052 0.000632852 -357.537)
(0.000342709 0.0005476 -339.718)
(0.00030469 0.000465202 -320.381)
(0.000260577 0.000375946 -299.747)
(0.00020246 0.000265973 -278.042)
(0.000121163 0.000116109 -255.508)
(1.04696e-05 -8.90103e-05 -232.4)
(-0.000130709 -0.000351452 -209.002)
(-0.000282163 -0.000661533 -185.624)
(-0.000429393 -0.000973975 -162.602)
(-0.000546209 -0.00123713 -140.289)
(-0.000616977 -0.00140905 -119.026)
(-0.000641206 -0.00147878 -99.1265)
(-0.000631562 -0.00146759 -80.8542)
(-0.000606641 -0.00141327 -64.43)
(-0.000580178 -0.0013444 -50.0456)
(-0.000555127 -0.00126862 -37.8892)
(-0.000514659 -0.00115257 -28.1676)
(-0.000446446 -0.000906167 -21.1014)
(-0.000386966 -0.000702995 -16.63)
(-0.000994428 -0.000416269 -417.041)
(-0.00110885 4.97808e-05 -409.436)
(-0.00106314 3.28051e-05 -399.769)
(-0.000941659 1.4997e-05 -387.768)
(-0.000833453 1.24662e-06 -373.623)
(-0.000733063 -1.00768e-05 -357.537)
(-0.000639793 -2.05267e-05 -339.718)
(-0.000547753 -2.87066e-05 -320.382)
(-0.000446993 -3.56197e-05 -299.747)
(-0.000320348 -4.05775e-05 -278.042)
(-0.000147789 -4.66393e-05 -255.508)
(8.69916e-05 -5.43162e-05 -232.4)
(0.000388054 -6.60745e-05 -209.002)
(0.000735742 -9.28118e-05 -185.624)
(0.0010837 -0.000125252 -162.602)
(0.0013746 -0.000160314 -140.289)
(0.00156436 -0.000191327 -119.026)
(0.00164347 -0.000213744 -99.1265)
(0.00163732 -0.000227666 -80.8542)
(0.00158711 -0.000236019 -64.4299)
(0.00152688 -0.000242022 -50.0456)
(0.00145927 -0.000241809 -37.8892)
(0.00134672 -0.000231808 -28.1675)
(0.0010963 -0.000165767 -21.1013)
(0.000868196 -0.000103419 -16.6299)
(-0.000949869 -0.000548406 -419.543)
(-0.000937065 -0.000541013 -411.909)
(-0.00090112 -0.00052026 -402.212)
(-0.000801097 -0.000462513 -390.161)
(-0.000711399 -0.000410725 -375.951)
(-0.000627806 -0.000362463 -359.785)
(-0.00054989 -0.000317479 -341.872)
(-0.000472481 -0.000272787 -322.428)
(-0.000387104 -0.000223494 -301.674)
(-0.000278862 -0.000161001 -279.838)
(-0.000131366 -7.58441e-05 -257.163)
(6.83928e-05 3.94865e-05 -233.904)
(0.000325048 0.000187666 -210.347)
(0.000617891 0.000356739 -186.804)
(0.000909894 0.000525327 -163.614)
(0.00115276 0.000665544 -141.135)
(0.00131051 0.00075662 -119.712)
(0.00137619 0.000794539 -99.6636)
(0.00137225 0.000792266 -81.2573)
(0.00133306 0.00076964 -64.7164)
(0.00128792 0.000743582 -50.2342)
(0.0012375 0.00071447 -38.0003)
(0.00115044 0.000664208 -28.2225)
(0.00095151 0.000549353 -21.1215)
(0.000764387 0.000441318 -16.634)
)
;

boundaryField
{
    outletCentralUnloaded
    {
        type            zeroGradient;
    }
    inletCentralUnloaded
    {
        type            fixedValue;
        value           uniform (0 0 -15);
    }
    outletFuelElement
    {
        type            zeroGradient;
    }
    inletFuelElement
    {
        type            fixedValue;
        value           uniform (0 0 -15);
    }
    defaultFaces
    {
        type            slip;
    }
    baffle_master
    {
        type            slip;
    }
    baffle_slave
    {
        type            slip;
    }
}


// ************************************************************************* //
