/*--------------------------------*- C++ -*----------------------------------*\
| =========                 |                                                 |
| \\      /  F ield         | OpenFOAM: The Open Source CFD Toolbox           |
|  \\    /   O peration     | Version:  2212                                  |
|   \\  /    A nd           | Website:  www.openfoam.com                      |
|    \\/     M anipulation  |                                                 |
\*---------------------------------------------------------------------------*/
FoamFile
{
    version     2.0;
    format      ascii;
    arch        "LSB;label=32;scalar=64";
    class       volScalarField;
    location    "81/fluidRegion";
    object      heatFlux.structure;
}
// * * * * * * * * * * * * * * * * * * * * * * * * * * * * * * * * * * * * * //

dimensions      [1 0 -3 0 0 0 0];

internalField   nonuniform List<scalar> 
350
(
-258299
-258302
-258306
-258312
-258320
-258330
-258341
-258349
-258353
-258354
-258353
-258350
-258348
-258348
-258348
-258348
-258348
-258348
-258347
-258346
-258346
-258349
-258355
-258364
-258803
-258299
-258302
-258306
-258312
-258320
-258330
-258341
-258349
-258353
-258354
-258353
-258350
-258348
-258348
-258348
-258348
-258348
-258348
-258347
-258346
-258346
-258349
-258355
-258364
-258803
450396
1.34418e+06
2.21677e+06
3.05439e+06
3.84385e+06
4.57268e+06
5.2294e+06
5.80364e+06
6.28636e+06
6.66994e+06
6.94833e+06
7.11714e+06
7.1737e+06
7.11714e+06
6.94833e+06
6.66995e+06
6.28638e+06
5.80366e+06
5.2294e+06
4.57271e+06
3.84388e+06
3.05446e+06
2.2168e+06
1.34419e+06
450447
455555
1.35958e+06
2.24216e+06
3.08938e+06
3.88788e+06
4.62506e+06
5.2893e+06
5.87012e+06
6.35837e+06
6.74634e+06
7.02792e+06
7.19866e+06
7.25588e+06
7.19867e+06
7.02793e+06
6.74635e+06
6.35839e+06
5.87014e+06
5.2893e+06
4.62509e+06
3.88791e+06
3.08945e+06
2.2422e+06
1.35959e+06
455606
449575
1.34173e+06
2.21273e+06
3.04882e+06
3.83684e+06
4.56434e+06
5.21986e+06
5.79306e+06
6.27489e+06
6.65777e+06
6.93565e+06
7.10415e+06
7.16062e+06
7.10416e+06
6.93566e+06
6.65778e+06
6.27491e+06
5.79308e+06
5.21986e+06
4.56437e+06
3.83687e+06
3.04888e+06
2.21276e+06
1.34174e+06
449625
454368
1.35604e+06
2.23632e+06
3.08133e+06
3.87774e+06
4.613e+06
5.27551e+06
5.85482e+06
6.34179e+06
6.72875e+06
7.0096e+06
7.17989e+06
7.23696e+06
7.1799e+06
7.0096e+06
6.72876e+06
6.34181e+06
5.85484e+06
5.27551e+06
4.61303e+06
3.87777e+06
3.08139e+06
2.23635e+06
1.35604e+06
454419
454368
1.35604e+06
2.23632e+06
3.08133e+06
3.87774e+06
4.613e+06
5.27551e+06
5.85482e+06
6.34179e+06
6.72875e+06
7.0096e+06
7.17989e+06
7.23696e+06
7.1799e+06
7.0096e+06
6.72876e+06
6.34181e+06
5.85484e+06
5.27551e+06
4.61303e+06
3.87777e+06
3.08139e+06
2.23635e+06
1.35604e+06
454419
449575
1.34173e+06
2.21273e+06
3.04882e+06
3.83684e+06
4.56434e+06
5.21986e+06
5.79306e+06
6.27489e+06
6.65777e+06
6.93565e+06
7.10415e+06
7.16062e+06
7.10416e+06
6.93566e+06
6.65778e+06
6.27491e+06
5.79308e+06
5.21986e+06
4.56437e+06
3.83687e+06
3.04889e+06
2.21276e+06
1.34174e+06
449625
455555
1.35958e+06
2.24216e+06
3.08938e+06
3.88788e+06
4.62506e+06
5.2893e+06
5.87012e+06
6.35837e+06
6.74634e+06
7.02792e+06
7.19866e+06
7.25588e+06
7.19867e+06
7.02793e+06
6.74635e+06
6.35839e+06
5.87014e+06
5.2893e+06
4.62509e+06
3.88791e+06
3.08945e+06
2.2422e+06
1.35959e+06
455606
450396
1.34418e+06
2.21677e+06
3.05439e+06
3.84385e+06
4.57268e+06
5.2294e+06
5.80364e+06
6.28636e+06
6.66994e+06
6.94832e+06
7.11713e+06
7.1737e+06
7.11714e+06
6.94833e+06
6.66995e+06
6.28638e+06
5.80366e+06
5.2294e+06
4.57271e+06
3.84388e+06
3.05446e+06
2.2168e+06
1.34419e+06
450447
454368
1.35604e+06
2.23632e+06
3.08133e+06
3.87774e+06
4.613e+06
5.27551e+06
5.85482e+06
6.34179e+06
6.72875e+06
7.0096e+06
7.17989e+06
7.23696e+06
7.1799e+06
7.0096e+06
6.72877e+06
6.34181e+06
5.85484e+06
5.27551e+06
4.61303e+06
3.87777e+06
3.08139e+06
2.23635e+06
1.35604e+06
454419
449575
1.34173e+06
2.21273e+06
3.04882e+06
3.83684e+06
4.56434e+06
5.21986e+06
5.79306e+06
6.27489e+06
6.65777e+06
6.93565e+06
7.10415e+06
7.16062e+06
7.10416e+06
6.93566e+06
6.65778e+06
6.27491e+06
5.79308e+06
5.21986e+06
4.56437e+06
3.83687e+06
3.04889e+06
2.21276e+06
1.34174e+06
449625
449575
1.34173e+06
2.21273e+06
3.04882e+06
3.83684e+06
4.56434e+06
5.21986e+06
5.79306e+06
6.27489e+06
6.65777e+06
6.93565e+06
7.10415e+06
7.16062e+06
7.10416e+06
6.93566e+06
6.65778e+06
6.27491e+06
5.79308e+06
5.21986e+06
4.56437e+06
3.83687e+06
3.04888e+06
2.21276e+06
1.34174e+06
449625
454368
1.35604e+06
2.23632e+06
3.08133e+06
3.87774e+06
4.613e+06
5.27551e+06
5.85482e+06
6.34179e+06
6.72875e+06
7.0096e+06
7.17989e+06
7.23696e+06
7.1799e+06
7.0096e+06
6.72876e+06
6.34181e+06
5.85484e+06
5.27551e+06
4.61303e+06
3.87777e+06
3.08139e+06
2.23635e+06
1.35604e+06
454419
)
;

boundaryField
{
    outletCentralUnloaded
    {
        type            zeroGradient;
    }
    inletCentralUnloaded
    {
        type            zeroGradient;
    }
    outletFuelElement
    {
        type            zeroGradient;
    }
    inletFuelElement
    {
        type            zeroGradient;
    }
    defaultFaces
    {
        type            zeroGradient;
    }
    baffle_master
    {
        type            zeroGradient;
    }
    baffle_slave
    {
        type            zeroGradient;
    }
}


// ************************************************************************* //
