/*--------------------------------*- C++ -*----------------------------------*\
| =========                 |                                                 |
| \\      /  F ield         | OpenFOAM: The Open Source CFD Toolbox           |
|  \\    /   O peration     | Version:  2212                                  |
|   \\  /    A nd           | Website:  www.openfoam.com                      |
|    \\/     M anipulation  |                                                 |
\*---------------------------------------------------------------------------*/
FoamFile
{
    version     2.0;
    format      ascii;
    arch        "LSB;label=32;scalar=64";
    class       volScalarField;
    location    "81/fluidRegion";
    object      T.fuelAvForNeutronics;
}
// * * * * * * * * * * * * * * * * * * * * * * * * * * * * * * * * * * * * * //

dimensions      [0 0 0 1 0 0 0];

internalField   nonuniform List<scalar> 
350
(
0
0
0
0
0
0
0
0
0
0
0
0
0
0
0
0
0
0
0
0
0
0
0
0
0
0
0
0
0
0
0
0
0
0
0
0
0
0
0
0
0
0
0
0
0
0
0
0
0
0
2223.29
3010.32
3766.65
4480.73
5141.63
5739.18
6264.18
6708.51
7065.31
7329.02
7495.58
7562.38
7528.44
7394.33
7162.25
6835.88
6420.3
5921.63
5346.64
4702.15
3993.85
3225.15
2395.62
1504.3
564.351
2256.07
3052.3
3817.38
4539.67
5208.07
5812.33
6343.12
6792.25
7152.76
7419.07
7587.03
7654.05
7619.1
7482.79
7247.33
6916.49
6495.4
5990.32
5408.14
4755.82
4039.14
3261.52
2422.47
1520.82
569.898
2217.98
3003.57
3758.52
4471.31
5131.03
5727.54
6251.63
6695.21
7051.43
7314.75
7481.08
7547.87
7514.09
7380.34
7148.79
6823.14
6408.43
5910.77
5336.92
4693.67
3986.71
3219.42
2391.42
1501.72
563.476
2248.68
3042.77
3805.83
4526.2
5192.87
5795.57
6325.01
6773.02
7132.67
7398.37
7566
7632.96
7598.24
7462.43
7227.74
6897.92
6478.1
5974.5
5393.97
4743.45
4028.7
3253.14
2416.28
1517.01
568.619
2248.68
3042.77
3805.83
4526.21
5192.87
5795.57
6325.01
6773.02
7132.67
7398.37
7566
7632.96
7598.23
7462.43
7227.74
6897.92
6478.1
5974.49
5393.97
4743.45
4028.7
3253.14
2416.28
1517.01
568.619
2217.98
3003.57
3758.52
4471.32
5131.04
5727.54
6251.63
6695.22
7051.43
7314.75
7481.09
7547.87
7514.09
7380.34
7148.79
6823.14
6408.43
5910.78
5336.92
4693.67
3986.71
3219.43
2391.42
1501.72
563.476
2256.07
3052.3
3817.38
4539.67
5208.07
5812.33
6343.12
6792.25
7152.76
7419.07
7587.03
7654.05
7619.1
7482.79
7247.33
6916.49
6495.4
5990.32
5408.14
4755.82
4039.14
3261.52
2422.47
1520.82
569.898
2223.29
3010.32
3766.65
4480.73
5141.63
5739.18
6264.18
6708.51
7065.31
7329.02
7495.58
7562.38
7528.44
7394.33
7162.25
6835.88
6420.3
5921.63
5346.64
4702.15
3993.85
3225.15
2395.63
1504.3
564.351
2248.68
3042.77
3805.83
4526.21
5192.87
5795.57
6325.01
6773.02
7132.67
7398.37
7566
7632.96
7598.23
7462.43
7227.74
6897.92
6478.1
5974.49
5393.97
4743.45
4028.7
3253.14
2416.28
1517.01
568.619
2217.98
3003.57
3758.52
4471.31
5131.03
5727.54
6251.63
6695.21
7051.43
7314.75
7481.08
7547.87
7514.09
7380.34
7148.79
6823.14
6408.43
5910.77
5336.92
4693.67
3986.71
3219.42
2391.42
1501.72
563.476
2217.98
3003.57
3758.52
4471.32
5131.04
5727.54
6251.63
6695.21
7051.43
7314.75
7481.09
7547.87
7514.09
7380.34
7148.79
6823.14
6408.43
5910.78
5336.92
4693.67
3986.71
3219.42
2391.42
1501.72
563.476
2248.68
3042.77
3805.83
4526.21
5192.87
5795.57
6325.01
6773.02
7132.67
7398.37
7566
7632.96
7598.23
7462.43
7227.74
6897.92
6478.1
5974.49
5393.97
4743.45
4028.7
3253.14
2416.28
1517.01
568.619
)
;

boundaryField
{
    outletCentralUnloaded
    {
        type            zeroGradient;
    }
    inletCentralUnloaded
    {
        type            zeroGradient;
    }
    outletFuelElement
    {
        type            zeroGradient;
    }
    inletFuelElement
    {
        type            zeroGradient;
    }
    defaultFaces
    {
        type            zeroGradient;
    }
    baffle_master
    {
        type            zeroGradient;
    }
    baffle_slave
    {
        type            zeroGradient;
    }
}


// ************************************************************************* //
