/*--------------------------------*- C++ -*----------------------------------*\
| =========                 |                                                 |
| \\      /  F ield         | OpenFOAM: The Open Source CFD Toolbox           |
|  \\    /   O peration     | Version:  2212                                  |
|   \\  /    A nd           | Website:  www.openfoam.com                      |
|    \\/     M anipulation  |                                                 |
\*---------------------------------------------------------------------------*/
FoamFile
{
    version     2.0;
    format      ascii;
    arch        "LSB;label=32;scalar=64";
    class       volVectorField;
    location    "81/fluidRegion";
    object      U;
}
// * * * * * * * * * * * * * * * * * * * * * * * * * * * * * * * * * * * * * //

dimensions      [0 1 -1 0 0 0 0];

internalField   nonuniform List<vector> 
350
(
(1.25902e-10 7.26895e-11 -14.9673)
(-7.79155e-10 -4.49844e-10 -14.9661)
(-1.94348e-09 -1.12206e-09 -14.965)
(-2.57857e-09 -1.48873e-09 -14.9639)
(-1.91106e-09 -1.10335e-09 -14.9631)
(1.55538e-10 8.97996e-11 -14.9625)
(2.69343e-09 1.55505e-09 -14.9619)
(4.34564e-09 2.50895e-09 -14.9611)
(4.25983e-09 2.45941e-09 -14.96)
(2.57522e-09 1.4868e-09 -14.9586)
(1.65237e-10 9.53992e-11 -14.957)
(-1.90001e-09 -1.09697e-09 -14.9553)
(-2.89208e-09 -1.66974e-09 -14.9537)
(-2.64509e-09 -1.52714e-09 -14.9521)
(-1.45185e-09 -8.38224e-10 -14.9507)
(6.21177e-11 3.58635e-11 -14.9493)
(1.24487e-09 7.18727e-10 -14.9478)
(1.62414e-09 9.37695e-10 -14.9463)
(1.09977e-09 6.34952e-10 -14.9448)
(-8.56362e-11 -4.94419e-11 -14.9433)
(-1.46801e-09 -8.47555e-10 -14.9418)
(-2.55829e-09 -1.47703e-09 -14.9406)
(-2.77439e-09 -1.60179e-09 -14.9397)
(-8.12631e-10 -4.69171e-10 -14.9389)
(2.68812e-09 1.55198e-09 -14.9693)
(1.25902e-10 7.26895e-11 -14.9673)
(-7.79155e-10 -4.49844e-10 -14.9661)
(-1.94348e-09 -1.12206e-09 -14.965)
(-2.57857e-09 -1.48873e-09 -14.9639)
(-1.91106e-09 -1.10335e-09 -14.9631)
(1.55538e-10 8.97996e-11 -14.9625)
(2.69343e-09 1.55505e-09 -14.9619)
(4.34564e-09 2.50895e-09 -14.9611)
(4.25983e-09 2.45941e-09 -14.96)
(2.57522e-09 1.4868e-09 -14.9586)
(1.65237e-10 9.53992e-11 -14.957)
(-1.90001e-09 -1.09697e-09 -14.9553)
(-2.89208e-09 -1.66974e-09 -14.9537)
(-2.64509e-09 -1.52714e-09 -14.9521)
(-1.45185e-09 -8.38224e-10 -14.9507)
(6.21176e-11 3.58635e-11 -14.9493)
(1.24487e-09 7.18727e-10 -14.9478)
(1.62414e-09 9.37695e-10 -14.9463)
(1.09977e-09 6.34952e-10 -14.9448)
(-8.56362e-11 -4.94419e-11 -14.9433)
(-1.46801e-09 -8.47555e-10 -14.9418)
(-2.55829e-09 -1.47703e-09 -14.9406)
(-2.77439e-09 -1.60179e-09 -14.9397)
(-8.12631e-10 -4.69171e-10 -14.9389)
(2.68812e-09 1.55198e-09 -14.9693)
(-0.00197584 -0.00114075 -423.826)
(-0.000937723 -0.000541394 -415.837)
(-0.00101599 -0.000586579 -405.731)
(-0.000914213 -0.000527821 -393.301)
(-0.000827528 -0.000477773 -378.74)
(-0.000747246 -0.000431422 -362.249)
(-0.000672923 -0.000388512 -344.039)
(-0.00060091 -0.000346935 -324.325)
(-0.000523185 -0.000302061 -303.326)
(-0.000426562 -0.000246276 -281.27)
(-0.000294469 -0.000170011 -258.396)
(-0.000110635 -6.38751e-05 -234.962)
(0.000129774 7.49248e-05 -211.248)
(0.000407314 0.000235162 -187.565)
(0.000690474 0.000398645 -164.252)
(0.000931491 0.000537796 -141.663)
(0.00109305 0.000631072 -120.144)
(0.00116523 0.000672748 -100.01)
(0.00116746 0.000674032 -81.5295)
(0.00113411 0.000654776 -64.9231)
(0.00109624 0.000632912 -50.3825)
(0.00106112 0.000612636 -38.0955)
(0.00101309 0.000584909 -28.2707)
(0.000881111 0.000508709 -21.1346)
(0.000839796 0.000484856 -16.6338)
(-0.00190334 -0.00114048 -426.56)
(-0.000677891 -0.000420864 -418.527)
(-0.000767118 -0.00047617 -408.389)
(-0.00069567 -0.000436954 -395.905)
(-0.000634902 -0.000404296 -381.273)
(-0.000578427 -0.000374165 -364.696)
(-0.000525753 -0.0003464 -346.384)
(-0.000474057 -0.000319714 -326.553)
(-0.000417532 -0.000290502 -305.425)
(-0.000346698 -0.000253359 -283.228)
(-0.000250091 -0.000201936 -260.202)
(-0.000116732 -0.000128628 -236.604)
(5.86954e-05 -3.33907e-05 -212.717)
(0.000253878 7.40833e-05 -188.855)
(0.00045189 0.000182841 -165.359)
(0.000618679 0.000273284 -142.588)
(0.000729539 0.000331172 -120.893)
(0.000778659 0.000353415 -100.597)
(0.000780064 0.000348398 -81.9689)
(0.000756911 0.000331454 -65.2341)
(0.00073065 0.000316996 -50.5856)
(0.000707113 0.00031119 -38.2128)
(0.000681111 0.000309733 -28.3258)
(0.000617132 0.000294729 -21.1517)
(0.00063503 0.00033113 -16.6358)
(-0.000858287 -0.000663148 -423.389)
(-0.000485155 -0.000960514 -415.398)
(-0.000470602 -0.000920045 -405.3)
(-0.000425295 -0.000810824 -392.88)
(-0.000383007 -0.000714963 -378.332)
(-0.000344208 -0.000626772 -361.857)
(-0.000307783 -0.000545649 -343.664)
(-0.000271082 -0.000467612 -323.969)
(-0.000228689 -0.000383735 -302.992)
(-0.000172524 -0.000279323 -280.959)
(-9.33975e-05 -0.000135126 -258.111)
(1.55109e-05 6.62035e-05 -234.703)
(0.000156977 0.000326989 -211.016)
(0.000309137 0.000640211 -187.362)
(0.000458289 0.000959446 -164.078)
(0.000576995 0.00123188 -141.517)
(0.00064827 0.0014137 -120.025)
(0.00067096 0.00149302 -99.9169)
(0.000658552 0.00149196 -81.4588)
(0.000629691 0.00145019 -64.872)
(0.000598913 0.00140068 -50.3475)
(0.000570373 0.0013478 -38.0733)
(0.000528687 0.00125537 -28.2577)
(0.00046021 0.00101799 -21.1277)
(0.000398267 0.00080531 -16.6315)
(-0.000962788 -0.000555865 -425.951)
(-0.000901535 -0.0005205 -417.928)
(-0.000867441 -0.000500816 -407.795)
(-0.000770772 -0.000445004 -395.322)
(-0.000684548 -0.000395223 -380.705)
(-0.000605359 -0.000349503 -364.146)
(-0.000532066 -0.000307187 -345.856)
(-0.000460716 -0.000265994 -326.051)
(-0.000382201 -0.000220663 -304.951)
(-0.00028225 -0.000162957 -282.785)
(-0.000143206 -8.26799e-05 -259.793)
(5.00619e-05 2.89032e-05 -236.231)
(0.000300913 0.000173731 -212.383)
(0.000590942 0.00034118 -188.561)
(0.000882722 0.000509638 -165.107)
(0.00112602 0.000650108 -142.377)
(0.00128286 0.000740655 -120.722)
(0.00134521 0.000776653 -100.463)
(0.00133573 0.000771184 -81.8687)
(0.00129105 0.000745384 -65.1632)
(0.00124097 0.00071647 -50.5395)
(0.00119109 0.000687676 -38.1864)
(0.00110896 0.000640256 -28.3136)
(0.000920365 0.000531371 -21.1483)
(0.000751488 0.00043387 -16.6356)
(0.000959842 0.000554164 -425.951)
(0.000920624 0.000531521 -417.928)
(0.000885079 0.000510999 -407.795)
(0.000788434 0.000455202 -395.322)
(0.000701372 0.000404936 -380.705)
(0.000621214 0.000358657 -364.146)
(0.000546923 0.000315765 -345.856)
(0.000473845 0.000273574 -326.051)
(0.000393227 0.000227029 -304.951)
(0.000290722 0.000167848 -282.785)
(0.000148097 8.55035e-05 -259.793)
(-4.93731e-05 -2.85055e-05 -236.231)
(-0.000305161 -0.000176184 -212.383)
(-0.000600483 -0.000346688 -188.561)
(-0.000897693 -0.000518282 -165.107)
(-0.00114633 -0.000661833 -142.377)
(-0.00130843 -0.000755423 -120.722)
(-0.00137574 -0.000794284 -100.463)
(-0.00137001 -0.000790977 -81.8687)
(-0.00132763 -0.000766509 -65.1632)
(-0.00127811 -0.000737917 -50.5395)
(-0.00122601 -0.000707838 -38.1864)
(-0.00113925 -0.000657745 -28.3136)
(-0.000943176 -0.000544542 -21.1483)
(-0.000765237 -0.000441809 -16.6356)
(0.000996283 0.000431221 -423.39)
(0.00108232 -4.68667e-05 -415.399)
(0.00103841 -3.72182e-05 -405.301)
(0.000920904 -2.06609e-05 -392.881)
(0.00081609 -8.38397e-06 -378.332)
(0.000719549 3.33196e-06 -361.857)
(0.000630187 1.38794e-05 -343.664)
(0.000542992 2.26797e-05 -323.969)
(0.0004476 2.98304e-05 -302.992)
(0.000327211 3.56065e-05 -280.959)
(0.000160368 4.12853e-05 -258.111)
(-7.08985e-05 4.95449e-05 -234.703)
(-0.000370701 6.00412e-05 -211.016)
(-0.000721286 8.72104e-05 -187.362)
(-0.00107563 0.000119911 -164.078)
(-0.00137409 0.000155152 -141.517)
(-0.0015702 0.000185264 -120.025)
(-0.00165282 0.000204729 -99.917)
(-0.00164759 0.000213119 -81.4588)
(-0.00159789 0.000213449 -64.872)
(-0.00153955 0.000210148 -50.3475)
(-0.00147769 0.000201615 -38.0732)
(-0.00137368 0.000184542 -28.2577)
(-0.00112833 0.000117876 -21.1277)
(-0.000905344 5.444e-05 -16.6315)
(0.00192652 0.00110707 -426.56)
(0.00070588 0.000381474 -418.527)
(0.000796771 0.000434834 -408.389)
(0.000726528 0.000394084 -395.905)
(0.000666755 0.000359685 -381.273)
(0.000611171 0.000328145 -364.696)
(0.000559365 0.000299161 -346.384)
(0.000508457 0.000271074 -326.553)
(0.000452604 0.000240805 -305.425)
(0.000382269 0.000202828 -283.228)
(0.000285857 0.000150411 -260.202)
(0.0001523 7.66077e-05 -236.604)
(-2.35301e-05 -2.003e-05 -212.717)
(-0.000220008 -0.00012771 -188.855)
(-0.000420062 -0.000236688 -165.359)
(-0.000589977 -0.000327492 -142.588)
(-0.00070572 -0.000385956 -120.893)
(-0.00076221 -0.000409055 -100.597)
(-0.000774221 -0.000404695 -81.9689)
(-0.000766146 -0.000386805 -65.2341)
(-0.000762302 -0.000366132 -50.5856)
(-0.000763486 -0.000349647 -38.2128)
(-0.000760336 -0.000335339 -28.3258)
(-0.000703796 -0.000307388 -21.1517)
(-0.00070987 -0.000341816 -16.6358)
(0.00197674 0.00114127 -423.826)
(0.000939077 0.000542176 -415.836)
(0.00101752 0.000587468 -405.731)
(0.000915835 0.000528757 -393.301)
(0.000829114 0.000478689 -378.74)
(0.000748835 0.00043234 -362.249)
(0.000674539 0.000389445 -344.039)
(0.000602486 0.000347845 -324.325)
(0.000524762 0.000302971 -303.326)
(0.000428113 0.000247171 -281.27)
(0.000295849 0.000170809 -258.396)
(0.000111715 6.44983e-05 -234.962)
(-0.000129237 -7.46151e-05 -211.248)
(-0.000407363 -0.000235191 -187.565)
(-0.000691449 -0.000399208 -164.252)
(-0.000933887 -0.00053918 -141.663)
(-0.00109766 -0.000633732 -120.144)
(-0.00117319 -0.000677342 -100.01)
(-0.00118021 -0.000681392 -81.5295)
(-0.00115342 -0.000665928 -64.9231)
(-0.00112444 -0.000649194 -50.3825)
(-0.00109858 -0.000634264 -38.0955)
(-0.00105908 -0.000611459 -28.2706)
(-0.000928123 -0.000535852 -21.1346)
(-0.000881997 -0.000509221 -16.6338)
(0.000985275 0.000568847 -425.951)
(0.00092767 0.000535589 -417.928)
(0.000895039 0.000516749 -407.795)
(0.00079953 0.000461608 -395.322)
(0.000713982 0.000412216 -380.705)
(0.000635549 0.000366933 -364.146)
(0.000563227 0.000325178 -345.856)
(0.000492578 0.000284389 -326.051)
(0.00041481 0.00023949 -304.951)
(0.000315623 0.000182225 -282.785)
(0.000176954 0.000102164 -259.793)
(-1.66927e-05 -9.63746e-06 -236.231)
(-0.000266852 -0.000154066 -212.383)
(-0.000556478 -0.000321282 -188.561)
(-0.000847198 -0.000489128 -165.107)
(-0.00108842 -0.000628396 -142.377)
(-0.00124168 -0.000716881 -120.722)
(-0.00129837 -0.000749611 -100.463)
(-0.0012794 -0.000738661 -81.8687)
(-0.00122181 -0.00070541 -65.1632)
(-0.00115392 -0.000666215 -50.5395)
(-0.00108709 -0.000627628 -38.1864)
(-0.000992182 -0.000572834 -28.3137)
(-0.000808907 -0.000467021 -21.1483)
(-0.0006678 -0.000385553 -16.6356)
(0.000889892 0.00065256 -423.389)
(0.000522582 0.000947393 -415.398)
(0.000510154 0.0009061 -405.3)
(0.000466448 0.000796271 -392.88)
(0.000425364 0.000699871 -378.332)
(0.000387716 0.000611233 -361.857)
(0.000352506 0.00052969 -343.664)
(0.000316809 0.000451242 -323.969)
(0.000275293 0.000367025 -302.992)
(0.000219829 0.000262352 -280.959)
(0.000140874 0.000118008 -258.111)
(3.20604e-05 -8.32905e-05 -234.703)
(-0.000109649 -0.000343815 -211.016)
(-0.000262837 -0.000656081 -187.362)
(-0.000413261 -0.000973685 -164.078)
(-0.000533593 -0.00124342 -141.517)
(-0.000607027 -0.00142079 -120.025)
(-0.00063253 -0.00149317 -99.917)
(-0.000623007 -0.00148174 -81.4589)
(-0.000597873 -0.00142564 -64.872)
(-0.000572027 -0.00135528 -50.3476)
(-0.000548948 -0.00128054 -38.0733)
(-0.000512163 -0.00116969 -28.2577)
(-0.000447993 -0.000929018 -21.1277)
(-0.000390465 -0.000734548 -16.6315)
(-0.00098704 -0.000443841 -423.39)
(-0.00107206 3.19754e-05 -415.398)
(-0.00102761 2.17782e-05 -405.301)
(-0.000909687 4.76418e-06 -392.881)
(-0.000804575 -8.42263e-06 -378.332)
(-0.000707701 -2.07577e-05 -361.857)
(-0.000617944 -3.1676e-05 -343.664)
(-0.000530403 -4.11433e-05 -323.969)
(-0.000434638 -4.86778e-05 -302.992)
(-0.000313877 -5.46933e-05 -280.959)
(-0.00014676 -6.10752e-05 -258.111)
(8.40977e-05 -6.99275e-05 -234.703)
(0.000384562 -8.16102e-05 -211.016)
(0.000735478 -0.000109596 -187.362)
(0.0010902 -0.000143486 -164.078)
(0.00138908 -0.000180674 -141.517)
(0.00158548 -0.000214077 -120.025)
(0.0016679 -0.000238826 -99.9169)
(0.00166168 -0.000254341 -81.4588)
(0.00160922 -0.000263109 -64.8719)
(0.00154628 -0.000266996 -50.3475)
(0.00147702 -0.000262807 -38.0732)
(0.00136397 -0.000246148 -28.2577)
(0.00111121 -0.000172304 -21.1277)
(0.000881942 -0.000101686 -16.6315)
(-0.000946323 -0.000546358 -425.95)
(-0.000905318 -0.000522684 -417.928)
(-0.000868844 -0.000501626 -407.795)
(-0.000771447 -0.000445394 -395.322)
(-0.00068412 -0.000394976 -380.705)
(-0.000603537 -0.000348451 -364.146)
(-0.00052855 -0.000305158 -345.856)
(-0.000455031 -0.000262712 -326.051)
(-0.000373794 -0.00021581 -304.951)
(-0.000270555 -0.000156204 -282.785)
(-0.000127513 -7.36194e-05 -259.793)
(6.90009e-05 3.98376e-05 -236.231)
(0.000325749 0.000188071 -212.383)
(0.000621626 0.000358895 -188.561)
(0.000919734 0.000531007 -165.107)
(0.00116971 0.000675332 -142.377)
(0.00133345 0.000769867 -120.722)
(0.00140246 0.000809707 -100.463)
(0.00139906 0.000807747 -81.8686)
(0.00135865 0.000784417 -65.1632)
(0.0013115 0.000757191 -50.5395)
(0.00125892 0.000726838 -38.1864)
(0.00116884 0.000674829 -28.3136)
(0.000963598 0.000556332 -21.1483)
(0.000768387 0.000443628 -16.6356)
)
;

boundaryField
{
    outletCentralUnloaded
    {
        type            zeroGradient;
    }
    inletCentralUnloaded
    {
        type            fixedValue;
        value           uniform (0 0 -15);
    }
    outletFuelElement
    {
        type            zeroGradient;
    }
    inletFuelElement
    {
        type            fixedValue;
        value           uniform (0 0 -15);
    }
    defaultFaces
    {
        type            slip;
    }
    baffle_master
    {
        type            slip;
    }
    baffle_slave
    {
        type            slip;
    }
}


// ************************************************************************* //
