/*--------------------------------*- C++ -*----------------------------------*\
| =========                 |                                                 |
| \\      /  F ield         | OpenFOAM: The Open Source CFD Toolbox           |
|  \\    /   O peration     | Version:  2212                                  |
|   \\  /    A nd           | Website:  www.openfoam.com                      |
|    \\/     M anipulation  |                                                 |
\*---------------------------------------------------------------------------*/
FoamFile
{
    version     2.0;
    format      ascii;
    arch        "LSB;label=32;scalar=64";
    class       volScalarField;
    location    "99/neutroRegion";
    object      TFuel;
}
// * * * * * * * * * * * * * * * * * * * * * * * * * * * * * * * * * * * * * //

dimensions      [0 0 0 1 0 0 0];

internalField   nonuniform List<scalar> 
350
(
0
0
0
0
0
0
0
0
0
0
0
0
0
0
0
0
0
0
0
0
0
0
0
0
0
0
0
0
0
0
0
0
0
0
0
0
0
0
0
0
0
0
0
0
0
0
0
0
0
0
2223.35
3010.38
3766.7
4480.78
5141.68
5739.23
6264.22
6708.55
7065.34
7329.06
7495.61
7562.41
7528.47
7394.36
7162.27
6835.9
6420.31
5921.65
5346.65
4702.18
3993.84
3225.09
2395.63
1504.37
564.384
2256.13
3052.35
3817.44
4539.72
5208.12
5812.37
6343.16
6792.29
7152.8
7419.1
7587.06
7654.08
7619.13
7482.82
7247.36
6916.51
6495.41
5990.34
5408.15
4755.85
4039.12
3261.47
2422.48
1520.89
569.931
2218.04
3003.62
3758.57
4471.36
5131.08
5727.58
6251.67
6695.25
7051.46
7314.78
7481.12
7547.9
7514.12
7380.36
7148.81
6823.16
6408.44
5910.79
5336.93
4693.71
3986.7
3219.37
2391.42
1501.79
563.509
2248.73
3042.82
3805.88
4526.25
5192.92
5795.61
6325.05
6773.06
7132.71
7398.4
7566.03
7632.99
7598.26
7462.45
7227.76
6897.94
6478.11
5974.51
5393.99
4743.49
4028.69
3253.08
2416.29
1517.08
568.653
2248.73
3042.82
3805.88
4526.26
5192.92
5795.61
6325.05
6773.06
7132.71
7398.4
7566.03
7632.99
7598.26
7462.45
7227.76
6897.94
6478.11
5974.51
5393.99
4743.49
4028.68
3253.08
2416.29
1517.08
568.653
2218.04
3003.62
3758.57
4471.36
5131.08
5727.58
6251.67
6695.25
7051.47
7314.78
7481.12
7547.9
7514.12
7380.36
7148.81
6823.16
6408.44
5910.79
5336.94
4693.71
3986.7
3219.37
2391.43
1501.79
563.509
2256.13
3052.35
3817.44
4539.72
5208.12
5812.37
6343.16
6792.29
7152.8
7419.1
7587.06
7654.08
7619.13
7482.82
7247.36
6916.51
6495.41
5990.33
5408.15
4755.85
4039.12
3261.47
2422.48
1520.89
569.931
2223.35
3010.38
3766.7
4480.78
5141.68
5739.23
6264.22
6708.55
7065.34
7329.06
7495.61
7562.41
7528.47
7394.36
7162.27
6835.9
6420.31
5921.64
5346.65
4702.18
3993.83
3225.09
2395.63
1504.37
564.384
2248.73
3042.82
3805.88
4526.26
5192.92
5795.61
6325.05
6773.06
7132.71
7398.4
7566.03
7632.99
7598.26
7462.45
7227.76
6897.94
6478.11
5974.51
5393.99
4743.49
4028.68
3253.08
2416.29
1517.08
568.653
2218.04
3003.62
3758.57
4471.36
5131.08
5727.58
6251.67
6695.25
7051.46
7314.78
7481.12
7547.9
7514.12
7380.36
7148.81
6823.16
6408.44
5910.79
5336.93
4693.71
3986.69
3219.37
2391.43
1501.79
563.509
2218.04
3003.62
3758.57
4471.36
5131.08
5727.58
6251.67
6695.25
7051.47
7314.78
7481.12
7547.9
7514.12
7380.37
7148.81
6823.16
6408.44
5910.79
5336.94
4693.71
3986.7
3219.37
2391.43
1501.79
563.509
2248.73
3042.82
3805.88
4526.25
5192.92
5795.61
6325.05
6773.06
7132.71
7398.4
7566.03
7632.99
7598.26
7462.45
7227.76
6897.94
6478.11
5974.51
5393.99
4743.49
4028.68
3253.08
2416.29
1517.08
568.653
)
;

boundaryField
{
    outletCentralUnloaded
    {
        type            zeroGradient;
    }
    inletCentralUnloaded
    {
        type            zeroGradient;
    }
    outletFuelElement
    {
        type            zeroGradient;
    }
    inletFuelElement
    {
        type            zeroGradient;
    }
    defaultFaces
    {
        type            zeroGradient;
    }
}


// ************************************************************************* //
