/*--------------------------------*- C++ -*----------------------------------*\
| =========                 |                                                 |
| \\      /  F ield         | OpenFOAM: The Open Source CFD Toolbox           |
|  \\    /   O peration     | Version:  2212                                  |
|   \\  /    A nd           | Website:  www.openfoam.com                      |
|    \\/     M anipulation  |                                                 |
\*---------------------------------------------------------------------------*/
FoamFile
{
    version     2.0;
    format      ascii;
    arch        "LSB;label=32;scalar=64";
    class       surfaceScalarField;
    location    "25/fluidRegion";
    object      alphaPhi;
}
// * * * * * * * * * * * * * * * * * * * * * * * * * * * * * * * * * * * * * //

dimensions      [0 3 -1 0 0 0 0];

oriented        oriented;

internalField   nonuniform List<scalar> 
661
(
-0.000538807
-7.57266e-18
-0.000538762
2.72741e-16
-0.000538718
3.74615e-16
-0.000538673
2.04789e-16
-0.000538629
2.54466e-16
-0.000538585
1.60173e-16
-0.00053854
3.21544e-16
-0.000538496
4.48467e-16
-0.000538451
9.75082e-17
-0.000538407
4.13441e-16
-0.000538363
1.29662e-16
-0.000538318
5.90283e-17
-0.000538274
2.46453e-16
-0.00053823
2.10693e-16
-0.000538185
2.30152e-16
-0.000538141
3.24271e-16
-0.000538097
2.77072e-16
-0.000538052
3.26573e-16
-0.000538008
3.11303e-16
-0.000537963
1.69581e-16
-0.000537919
3.08921e-16
-0.000537875
6.20209e-17
-0.000537831
2.55837e-16
-0.000537787
-5.31294e-16
-3.13195e-15
-0.000538807
-0.000538762
-0.000538718
-0.000538673
-0.000538629
-0.000538585
-0.00053854
-0.000538496
-0.000538451
-0.000538407
-0.000538363
-0.000538318
-0.000538274
-0.00053823
-0.000538185
-0.000538141
-0.000538097
-0.000538052
-0.000538008
-0.000537963
-0.000537919
-0.000537875
-0.000537831
-0.000537787
-0.0188706
1.24601e-06
-0.0185242
6.83293e-07
-0.0180615
7.58486e-07
-0.0174909
6.81364e-07
-0.0168216
6.15331e-07
-0.016063
5.52492e-07
-0.0152252
4.92404e-07
-0.0143184
4.31386e-07
-0.0133531
3.63809e-07
-0.0123406
2.80581e-07
-0.0112928
1.72616e-07
-0.0102225
3.0342e-08
-0.00914393
-1.41321e-07
-0.00807261
-3.31338e-07
-0.00702485
-5.15891e-07
-0.00601702
-6.67046e-07
-0.00506444
-7.65096e-07
-0.00418051
-8.07651e-07
-0.00337638
-8.0836e-07
-0.00266165
-7.8787e-07
-0.00204503
-7.63122e-07
-0.00153571
-7.35922e-07
-0.00114358
-6.9471e-07
-0.000878189
-5.98114e-07
-5.54353e-07
-0.0189882
-5.59604e-08
-5.52443e-08
-0.0186415
-1.91886e-07
-1.95691e-07
-0.0181772
-1.78464e-07
-1.78926e-07
-0.0176043
-1.55158e-07
-1.53482e-07
-0.0169318
-1.34925e-07
-1.31655e-07
-0.0161694
-1.15928e-07
-1.1244e-07
-0.0153269
-9.77942e-08
-9.42976e-08
-0.0144148
-7.99596e-08
-7.67827e-08
-0.0134436
-6.04805e-08
-5.74862e-08
-0.0124246
-3.71676e-08
-3.45058e-08
-0.0113697
-6.27127e-09
-3.81672e-09
-0.0102919
3.27248e-08
3.48462e-08
-0.00920545
8.28449e-08
8.47449e-08
-0.00812597
1.40097e-07
1.41567e-07
-0.00707
1.97009e-07
1.9805e-07
-0.00605415
2.44758e-07
2.45254e-07
-0.00509398
2.76713e-07
2.76676e-07
-0.00420311
2.91315e-07
2.90739e-07
-0.00339282
2.92567e-07
2.9152e-07
-0.0026728
2.8667e-07
2.85236e-07
-0.00205186
2.78674e-07
2.77038e-07
-0.00153924
2.67703e-07
2.65866e-07
-0.00114491
2.46967e-07
2.44894e-07
-0.000878371
1.93633e-07
1.91471e-07
1.47131e-07
1.45002e-07
-0.0188513
6.67926e-07
-0.0185051
6.99421e-07
-0.0180427
6.74216e-07
-0.0174726
5.98586e-07
-0.0168038
5.30379e-07
-0.016046
4.6688e-07
-0.0152089
4.05899e-07
-0.014303
3.43895e-07
-0.0133387
2.7374e-07
-0.0123273
1.86357e-07
-0.0112806
7.12301e-08
-0.0102115
-7.80282e-08
-0.00913421
-2.59502e-07
-0.00806419
-4.58725e-07
-0.00701772
-6.4986e-07
-0.00601114
-8.03142e-07
-0.00505974
-8.98977e-07
-0.00417688
-9.35989e-07
-0.00337369
-9.29884e-07
-0.00265976
-9.02343e-07
-0.00204379
-8.69709e-07
-0.00153496
-8.31904e-07
-0.00114317
-7.66788e-07
-0.000877987
-6.29284e-07
-5.05572e-07
-0.018962
2.53486e-09
-0.0186153
-3.87382e-10
-0.0181513
3.841e-11
-0.0175789
-5.00659e-11
-0.016907
-4.48839e-12
-0.0161454
2.67893e-11
-0.015304
1.4307e-11
-0.014393
8.16733e-11
-0.0134231
1.2108e-10
-0.0124056
1.30557e-10
-0.0113523
1.84557e-10
-0.0102761
2.79144e-10
-0.00919145
3.29127e-10
-0.00811381
3.69844e-10
-0.0070597
3.4251e-10
-0.00604568
2.75558e-10
-0.00508724
2.22592e-10
-0.00419795
2.41717e-10
-0.00338907
2.13937e-10
-0.00267026
1.9768e-10
-0.00205031
2.05059e-10
-0.00153845
9.22293e-11
-0.00114463
-5.15236e-11
-0.000878354
-1.68512e-10
-4.72465e-10
-0.018962
-6.6258e-07
-0.0186153
-7.00201e-07
-0.0181514
-6.7386e-07
-0.0175789
-5.98422e-07
-0.0169071
-5.30196e-07
-0.0161455
-4.66713e-07
-0.015304
-4.05757e-07
-0.014393
-3.43655e-07
-0.0134232
-2.73447e-07
-0.0124056
-1.8603e-07
-0.0113523
-7.0804e-08
-0.0102761
7.86332e-08
-0.00919146
2.60182e-07
-0.00811382
4.59477e-07
-0.00705971
6.50561e-07
-0.00604568
8.03745e-07
-0.00508724
8.9951e-07
-0.00419795
9.3655e-07
-0.00338907
9.30389e-07
-0.00267026
9.02804e-07
-0.00205032
8.70139e-07
-0.00153845
8.32127e-07
-0.00114463
7.66705e-07
-0.000878355
6.28943e-07
5.04605e-07
-0.0188513
5.14665e-08
-0.0185051
1.91011e-07
-0.0180427
1.78444e-07
-0.0174726
1.56006e-07
-0.0168038
1.36626e-07
-0.016046
1.17398e-07
-0.0152089
9.94042e-08
-0.014303
8.11151e-08
-0.0133387
6.16366e-08
-0.0123273
3.78299e-08
-0.0112806
6.91176e-09
-0.0102115
-3.24578e-08
-0.00913422
-8.26338e-08
-0.0080642
-1.40188e-07
-0.00701773
-1.97204e-07
-0.00601115
-2.45259e-07
-0.00505974
-2.77308e-07
-0.00417688
-2.9207e-07
-0.0033737
-2.93379e-07
-0.00265976
-2.876e-07
-0.00204379
-2.79581e-07
-0.00153496
-2.68653e-07
-0.00114317
-2.47856e-07
-0.000877986
-1.94299e-07
-1.47301e-07
-0.0189882
-1.248e-06
-5.81612e-08
-0.0186415
-6.85302e-07
-1.94607e-07
-0.0181772
-7.57665e-07
-1.79288e-07
-0.0176043
-6.79237e-07
-1.54034e-07
-0.0169318
-6.11994e-07
-1.32498e-07
-0.0161694
-5.49595e-07
-1.13184e-07
-0.0153269
-4.89361e-07
-9.505e-08
-0.0144148
-4.29041e-07
-7.74518e-08
-0.0134436
-3.61491e-07
-5.8169e-08
-0.0124246
-2.78952e-07
-3.50897e-08
-0.0113697
-1.71001e-07
-4.45687e-09
-0.0102919
-2.92673e-08
3.4177e-08
-0.00920545
1.42313e-07
8.40453e-08
-0.00812597
3.31856e-07
1.40895e-07
-0.00707
5.16207e-07
1.97429e-07
-0.00605415
6.66865e-07
2.44773e-07
-0.00509398
7.64709e-07
2.76295e-07
-0.00420311
8.06946e-07
2.90435e-07
-0.00339282
8.07511e-07
2.9133e-07
-0.0026728
7.86785e-07
2.85196e-07
-0.00205186
7.61969e-07
2.77124e-07
-0.00153924
7.34553e-07
2.66214e-07
-0.00114491
6.93153e-07
2.45564e-07
-0.000878371
5.9656e-07
1.92318e-07
5.52932e-07
1.46192e-07
-0.0188706
-0.0185242
-0.0180615
-0.0174909
-0.0168216
-0.016063
-0.0152252
-0.0143184
-0.0133531
-0.0123406
-0.0112928
-0.0102225
-0.00914393
-0.00807261
-0.00702485
-0.00601702
-0.00506444
-0.00418051
-0.00337638
-0.00266165
-0.00204503
-0.00153571
-0.00114358
-0.000878189
-0.018962
-6.67941e-07
2.68392e-09
-0.0186153
-6.98948e-07
-6.38484e-10
-0.0181513
-6.73357e-07
7.86144e-11
-0.0175789
-5.97696e-07
-8.93632e-11
-0.016907
-5.29299e-07
-9.54178e-11
-0.0161454
-4.66024e-07
-1.90927e-10
-0.015304
-4.05025e-07
-1.03331e-10
-0.014393
-3.43275e-07
-1.1483e-10
-0.0134231
-2.73141e-07
-2.98848e-11
-0.0124056
-1.86093e-07
6.91672e-11
-0.0113523
-7.09945e-08
1.61594e-10
-0.0102761
7.80324e-08
2.27242e-10
-0.00919145
2.59449e-07
3.21756e-10
-0.00811381
4.58485e-07
3.52179e-10
-0.0070597
6.49512e-07
4.59618e-10
-0.00604568
8.02573e-07
5.29788e-10
-0.00508724
8.98381e-07
5.72384e-10
-0.00419795
9.35409e-07
5.05201e-10
-0.00338907
9.29398e-07
4.6825e-10
-0.00267026
9.01955e-07
3.76649e-10
-0.00205031
8.6951e-07
2.2987e-10
-0.00153845
8.31797e-07
8.66193e-11
-0.00114463
7.66861e-07
-1.41619e-10
-0.000878354
6.2957e-07
-3.83584e-10
5.05946e-07
-7.35214e-10
-0.0188513
-0.0185051
-0.0180427
-0.0174726
-0.0168038
-0.016046
-0.0152089
-0.014303
-0.0133387
-0.0123273
-0.0112806
-0.0102115
-0.00913421
-0.00806419
-0.00701772
-0.00601114
-0.00505974
-0.00417688
-0.00337369
-0.00265976
-0.00204379
-0.00153496
-0.00114317
-0.000877987
-0.0188513
6.59755e-07
-0.0185051
6.97082e-07
-0.0180427
6.74026e-07
-0.0174726
6.00364e-07
-0.0168038
5.33932e-07
-0.016046
4.70013e-07
-0.0152089
4.09351e-07
-0.014303
3.46432e-07
-0.0133387
2.76314e-07
-0.0123273
1.88044e-07
-0.0112806
7.28506e-08
-0.0102115
-7.71771e-08
-0.00913422
-2.58756e-07
-0.0080642
-4.58693e-07
-0.00701773
-6.50031e-07
-0.00601115
-8.03946e-07
-0.00505974
-9.00023e-07
-0.00417688
-9.37539e-07
-0.0033737
-9.31623e-07
-0.00265976
-9.04386e-07
-0.00204379
-8.71773e-07
-0.00153496
-8.3405e-07
-0.00114317
-7.68834e-07
-0.000877986
-6.31022e-07
-5.06342e-07
-0.018962
-0.0186153
-0.0181514
-0.0175789
-0.0169071
-0.0161455
-0.015304
-0.014393
-0.0134232
-0.0124056
-0.0113523
-0.0102761
-0.00919146
-0.00811382
-0.00705971
-0.00604568
-0.00508724
-0.00419795
-0.00338907
-0.00267026
-0.00205032
-0.00153845
-0.00114463
-0.000878355
)
;

boundaryField
{
    outletCentralUnloaded
    {
        type            calculated;
        value           nonuniform List<scalar> 2(0.000538851 0.000538851);
    }
    inletCentralUnloaded
    {
        type            calculated;
        value           uniform -0.000540134;
    }
    outletFuelElement
    {
        type            calculated;
        value           nonuniform List<scalar> 
12
(
0.0191474
0.0192673
0.0191285
0.0192405
0.0192405
0.0191285
0.0192673
0.0191474
0.0192405
0.0191285
0.0191285
0.0192405
)
;
    }
    inletFuelElement
    {
        type            calculated;
        value           nonuniform List<scalar> 
12
(
-0.000722059
-0.00072206
-0.000722059
-0.000722059
-0.00072206
-0.000722059
-0.00072206
-0.000722059
-0.000722059
-0.000722059
-0.000722059
-0.00072206
)
;
    }
    defaultFaces
    {
        type            calculated;
        value           nonuniform List<scalar> 
450
(
1.00138e-23
-4.02398e-23
0
1.69744e-23
-1.03327e-23
0
4.38512e-23
-9.08537e-24
0
-5.35487e-23
-3.21329e-23
0
-2.57277e-23
-2.60659e-23
0
-3.73064e-23
-1.16073e-23
0
-3.42519e-23
-2.12815e-23
0
-2.95447e-23
4.36746e-24
0
-1.27124e-23
-1.57958e-23
0
-1.95322e-23
-9.719e-24
0
-1.12464e-23
-6.9442e-24
0
-2.29902e-24
-4.86797e-25
0
9.50755e-24
2.8122e-24
0
1.81041e-23
1.16751e-23
0
4.11268e-23
1.82063e-23
0
5.0125e-23
2.235e-23
0
3.92396e-23
4.57928e-24
0
3.5579e-23
2.98429e-23
0
5.39491e-23
-3.56439e-23
0
-2.16112e-23
-3.31264e-23
0
-2.72962e-23
-2.53957e-23
0
4.45572e-23
-2.92955e-23
0
-2.65593e-23
8.82283e-24
0
-2.38197e-23
-1.60035e-23
0
-1.76749e-23
-1.77326e-23
0
2.60738e-23
0
2.40681e-23
0
-8.0227e-24
0
2.40681e-23
0
-1.2034e-23
0
1.2034e-23
0
1.2034e-23
0
8.0227e-24
0
-2.00567e-24
0
6.01702e-24
0
2.00567e-24
0
-4.01135e-24
0
-8.0227e-24
0
-1.2034e-23
0
-8.0227e-24
0
-4.01135e-23
0
5.61589e-23
0
-3.20908e-23
0
0
0
-2.40681e-23
0
-3.20908e-23
0
4.01135e-23
0
8.0227e-24
0
-2.40681e-23
0
-2.40681e-23
0
-8.0227e-24
0
1.60454e-23
-8.0227e-24
8.0227e-24
-8.0227e-24
0
0
8.0227e-24
0
-2.00567e-24
0
4.01135e-24
0
0
1.60454e-23
-4.81362e-23
0
0
1.60454e-23
0
-3.20908e-23
-1.60454e-23
-8.0227e-24
0
0
0
0
0
0
0
0
0
0
0
0
0
0
0
0
0
0
0
0
0
0
0
0
0
0
-2.20624e-23
2.40681e-23
8.0227e-24
2.40681e-23
2.40681e-23
4.01135e-23
-1.60454e-23
-1.60454e-23
1.60454e-23
-1.2034e-23
-4.01135e-24
-1.60454e-23
-1.2034e-23
-1.2034e-23
-8.0227e-24
-4.01135e-24
1.40397e-23
-8.0227e-24
-4.01135e-24
-4.01135e-24
-2.00567e-24
-1.00284e-24
3.00851e-24
2.50709e-24
8.0227e-24
8.0227e-24
2.00567e-23
1.2034e-23
1.60454e-23
2.00567e-23
1.60454e-23
3.20908e-23
-1.60454e-23
4.81362e-23
1.60454e-23
4.01135e-23
-6.41816e-23
4.81362e-23
-4.01135e-23
-1.60454e-23
0
-2.40681e-23
-4.01135e-23
4.81362e-23
-1.60454e-23
-1.60454e-23
0
-2.40681e-23
-1.60454e-23
-2.00567e-23
3.02309e-23
0
0
-3.82726e-25
0
0
2.97415e-23
0
-6.41816e-23
-5.473e-23
0
1.60454e-23
1.8634e-23
0
0
-5.10988e-23
0
1.60454e-23
-4.57484e-23
0
8.0227e-24
-3.90876e-23
0
8.0227e-24
-1.92064e-23
0
-8.0227e-24
-2.05953e-23
0
0
-1.18603e-23
0
0
-3.22456e-24
0
5.01419e-25
1.16048e-23
-0
-4.01135e-24
2.96333e-23
-0
-8.0227e-24
4.62423e-23
-0
-8.0227e-24
6.53158e-23
-0
0
4.15555e-23
-0
-1.60454e-23
6.08802e-23
-0
-3.20908e-23
4.29378e-23
-0
-3.20908e-23
-2.36519e-23
-0
0
-2.39624e-23
-0
1.60454e-23
4.28944e-23
-0
1.60454e-23
-2.60965e-23
-0
0
-1.37372e-23
-0
8.0227e-24
-1.92491e-23
-0
8.0227e-24
-8.0227e-24
0
0
-1.60454e-23
8.0227e-24
0
0
-8.0227e-24
0
-4.01135e-24
-1.00284e-24
2.00567e-24
0
0
1.60454e-23
1.60454e-23
-3.20908e-23
0
-3.20908e-23
1.60454e-23
1.60454e-23
-3.20908e-23
-1.60454e-23
-8.0227e-24
8.0227e-24
2.00567e-23
0
3.20908e-23
0
0
0
8.0227e-24
0
-1.2034e-23
0
1.60454e-23
0
1.2034e-23
0
8.0227e-24
0
-6.01702e-24
0
5.01419e-24
0
2.7578e-24
0
-3.00851e-24
-0
-4.01135e-24
-0
-2.00567e-23
-0
-1.60454e-23
-0
-3.20908e-23
-0
4.01135e-23
-0
-3.20908e-23
-0
3.20908e-23
-0
-3.20908e-23
-0
-4.01135e-23
-0
1.60454e-23
-0
8.0227e-24
-0
-1.60454e-23
-0
-1.60454e-23
-0
-1.80511e-23
8.0227e-24
-8.0227e-24
1.60454e-23
-1.60454e-23
8.0227e-24
-2.40681e-23
-4.81362e-23
0
1.2034e-23
-8.0227e-24
-4.01135e-23
-8.0227e-24
-3.61021e-23
-8.0227e-24
-2.00567e-23
0
-1.60454e-23
-3.00851e-24
-1.40397e-23
-1.50426e-24
-2.00567e-24
0
8.0227e-24
8.0227e-24
2.60738e-23
4.01135e-24
4.01135e-23
2.40681e-23
5.61589e-23
1.60454e-23
6.41816e-23
0
4.81362e-23
3.20908e-23
8.0227e-23
-1.60454e-23
4.81362e-23
8.0227e-24
-2.40681e-23
-8.0227e-24
-4.01135e-23
0
4.01135e-23
1.60454e-23
-3.20908e-23
0
-2.40681e-23
8.0227e-24
-1.60454e-23
-0
-0
-0
-0
-0
-0
-0
-0
-0
-0
-0
0
0
0
0
0
0
0
0
0
0
0
0
0
0
)
;
    }
    baffle_master
    {
        type            calculated;
        value           nonuniform List<scalar> 
150
(
-3.68902e-35
0
-1.74663e-34
-5.00425e-33
0
0
-4.65167e-33
0
0
3.76424e-34
0
0
1.46237e-32
0
5.5892e-33
2.74349e-34
0
0
1.32673e-33
0
0
4.06615e-34
0
0
-4.2429e-34
0
-1.3973e-33
-5.64044e-33
0
0
1.10973e-33
0
-2.7946e-33
-3.9855e-34
0
-6.9865e-34
-1.91464e-34
0
0
-7.14097e-34
0
0
-1.61033e-33
0
0
-7.50844e-34
0
0
-2.53943e-32
0
-1.67676e-32
-1.43342e-33
0
5.5892e-33
-2.05029e-32
0
-1.11784e-32
-8.61981e-34
0
-2.7946e-33
-5.24514e-33
0
0
2.73676e-33
0
2.7946e-33
-4.56736e-33
0
5.5892e-33
1.77633e-33
0
0
-2.68663e-32
0
0
0
-3.47278e-34
0
-5.5892e-33
9.65898e-33
-0
0
1.89543e-32
-0
0
7.68379e-33
-0
0
-4.68587e-33
-0
-2.7946e-33
7.89666e-33
-0
-1.11784e-32
9.25234e-33
-0
0
1.89086e-32
-0
4.1919e-33
2.70045e-33
-0
-1.11784e-32
1.85995e-32
-0
0
3.78117e-33
-0
0
2.40229e-33
-0
-5.5892e-33
1.01304e-32
-0
-2.7946e-33
8.55028e-33
-0
0
1.20579e-32
-0
-5.5892e-33
1.35241e-32
-0
1.11784e-32
1.24113e-32
-0
0
1.28445e-32
-0
5.5892e-33
9.71561e-34
-0
0
-5.45479e-33
-0
0
-1.0389e-32
-0
1.3973e-33
-4.23489e-33
-0
1.11784e-32
1.18968e-32
-0
0
7.00424e-33
0
0
1.03346e-31
0
)
;
    }
    baffle_slave
    {
        type            calculated;
        value           nonuniform List<scalar> 
150
(
-9.18223e-24
-0
0
-1.25355e-25
-0
0
5.12387e-24
-0
0
3.94867e-24
-0
8.0227e-24
-2.7578e-23
-0
-2.40681e-23
3.13387e-24
-0
-8.0227e-24
-6.26773e-25
-0
-8.0227e-24
1.25355e-24
-0
-8.0227e-24
4.26206e-24
-0
4.01135e-24
2.13103e-24
-0
0
2.25638e-24
-0
-1.00284e-24
-3.13387e-25
0
1.00284e-24
3.13387e-25
0
-4.01135e-24
2.56977e-24
0
-8.0227e-24
-2.82048e-25
0
0
-4.85749e-25
0
1.60454e-23
-4.56644e-23
0
-4.81362e-23
3.13387e-26
0
0
-3.34384e-23
0
-4.81362e-23
-2.50709e-25
0
0
2.56977e-24
0
-1.60454e-23
3.08372e-23
0
1.60454e-23
2.82048e-24
0
1.60454e-23
-4.7008e-24
0
-1.60454e-23
-1.62961e-24
0
0
-2.40409e-24
4.38741e-23
0
-3.16051e-23
1.3789e-23
0
1.30102e-24
2.09342e-23
0
-6.30248e-24
1.3977e-23
0
4.58337e-25
-2.95837e-23
0
-6.81478e-24
2.25638e-23
0
-4.0845e-24
1.25355e-23
0
-1.17419e-23
9.77766e-24
0
5.75188e-24
8.39876e-24
0
-3.59035e-24
6.01702e-24
0
-8.02159e-25
5.64096e-24
0
2.4661e-24
2.00567e-24
0
-9.87883e-25
-1.25355e-24
0
1.56032e-23
-7.86601e-24
0
-1.34877e-24
-1.54108e-23
0
1.60975e-23
-1.51993e-23
0
-4.18874e-23
-1.31622e-23
0
3.77488e-24
-1.65468e-23
0
-1.93831e-23
-4.57545e-24
0
-1.57861e-23
1.99314e-23
0
-1.54351e-23
1.39144e-23
0
-1.8555e-23
2.58231e-23
0
-1.90972e-23
-2.05582e-23
0
1.45186e-23
1.81764e-24
0
-8.06846e-25
7.83467e-24
0
)
;
    }
}


// ************************************************************************* //
