/*--------------------------------*- C++ -*----------------------------------*\
| =========                 |                                                 |
| \\      /  F ield         | OpenFOAM: The Open Source CFD Toolbox           |
|  \\    /   O peration     | Version:  2212                                  |
|   \\  /    A nd           | Website:  www.openfoam.com                      |
|    \\/     M anipulation  |                                                 |
\*---------------------------------------------------------------------------*/
FoamFile
{
    version     2.0;
    format      ascii;
    arch        "LSB;label=32;scalar=64";
    class       volScalarField;
    location    "25/fluidRegion";
    object      htc;
}
// * * * * * * * * * * * * * * * * * * * * * * * * * * * * * * * * * * * * * //

dimensions      [1 0 -3 -1 0 0 0];

internalField   nonuniform List<scalar> 
350
(
3100.64
3100.65
3100.67
3100.69
3100.71
3100.72
3100.74
3100.76
3100.77
3100.79
3100.81
3100.82
3100.84
3100.86
3100.87
3100.89
3100.91
3100.92
3100.94
3100.96
3100.97
3100.99
3101.01
3101.02
3106.55
3100.64
3100.65
3100.67
3100.69
3100.71
3100.72
3100.74
3100.76
3100.77
3100.79
3100.81
3100.82
3100.84
3100.86
3100.87
3100.89
3100.91
3100.92
3100.94
3100.96
3100.97
3100.99
3101.01
3101.02
3106.55
25932.1
25876.1
25726.3
25453.9
25060.2
24547.8
23919.5
23179.5
22333.4
21388.7
20355
19244.6
18072
16852.5
15600.8
14329.3
13047.3
11762.9
10486.3
9234.4
8035.68
6935.39
6000.23
5314.44
4885.23
26014.1
25958.1
25809.1
25536.7
25142.8
24629.3
23999.4
23257.1
22407.8
21458.6
20419.3
19302.2
18122
16894.6
15635.2
14356.9
13069.2
11780
10499.1
9243.03
8040.01
6935.6
5997.28
5310.53
4883.45
25919
25862.7
25712.9
25440.4
25046.9
24534.6
23906.6
23167.1
22321.6
21377.5
20344.8
19235.5
18064
16845.7
15595.2
14324.7
13043.5
11759.8
10483.9
9232.55
8034.4
6934.64
5999.85
5314.2
4885.09
25995.9
25939.9
25790.7
25518.3
25124.3
24611.1
23981.5
23239.7
22391
21442.8
20404.8
19289.2
18110.7
16885
15627.5
14350.7
13064.3
11776.2
10496.3
9241.14
8039.11
6935.65
5998.06
5311.54
4883.92
25995.9
25939.9
25790.7
25518.3
25124.3
24611.1
23981.5
23239.7
22391
21442.8
20404.8
19289.2
18110.7
16885
15627.5
14350.7
13064.3
11776.2
10496.3
9241.14
8039.11
6935.65
5998.06
5311.54
4883.92
25919
25862.7
25712.9
25440.4
25046.9
24534.6
23906.6
23167.1
22321.6
21377.5
20344.8
19235.5
18064
16845.7
15595.2
14324.7
13043.5
11759.8
10483.8
9232.54
8034.39
6934.63
5999.84
5314.19
4885.09
26014.1
25958.1
25809.1
25536.7
25142.8
24629.3
23999.4
23257.1
22407.8
21458.6
20419.3
19302.2
18122
16894.6
15635.2
14356.9
13069.2
11780
10499.1
9243.03
8040.01
6935.6
5997.28
5310.53
4883.45
25932.1
25876.1
25726.3
25453.9
25060.2
24547.7
23919.5
23179.5
22333.4
21388.7
20355
19244.6
18072
16852.5
15600.8
14329.3
13047.3
11762.9
10486.3
9234.4
8035.68
6935.39
6000.23
5314.44
4885.23
25995.9
25939.9
25790.7
25518.3
25124.3
24611.1
23981.5
23239.7
22391
21442.8
20404.8
19289.2
18110.7
16885
15627.5
14350.7
13064.3
11776.2
10496.3
9241.14
8039.11
6935.65
5998.06
5311.54
4883.92
25919
25862.7
25712.9
25440.4
25046.9
24534.6
23906.6
23167.1
22321.6
21377.5
20344.8
19235.5
18064
16845.7
15595.2
14324.7
13043.5
11759.8
10483.9
9232.55
8034.4
6934.64
5999.85
5314.2
4885.09
25919
25862.7
25712.9
25440.4
25046.9
24534.6
23906.6
23167.1
22321.6
21377.5
20344.8
19235.5
18064
16845.7
15595.2
14324.7
13043.5
11759.8
10483.8
9232.54
8034.39
6934.63
5999.84
5314.19
4885.09
25995.9
25939.9
25790.7
25518.3
25124.3
24611.1
23981.5
23239.7
22391
21442.8
20404.8
19289.2
18110.7
16885
15627.5
14350.7
13064.3
11776.2
10496.3
9241.14
8039.11
6935.65
5998.06
5311.54
4883.92
)
;

boundaryField
{
    outletCentralUnloaded
    {
        type            zeroGradient;
    }
    inletCentralUnloaded
    {
        type            zeroGradient;
    }
    outletFuelElement
    {
        type            zeroGradient;
    }
    inletFuelElement
    {
        type            zeroGradient;
    }
    defaultFaces
    {
        type            zeroGradient;
    }
    baffle_master
    {
        type            zeroGradient;
    }
    baffle_slave
    {
        type            zeroGradient;
    }
}


// ************************************************************************* //
