/*--------------------------------*- C++ -*----------------------------------*\
| =========                 |                                                 |
| \\      /  F ield         | OpenFOAM: The Open Source CFD Toolbox           |
|  \\    /   O peration     | Version:  2212                                  |
|   \\  /    A nd           | Website:  www.openfoam.com                      |
|    \\/     M anipulation  |                                                 |
\*---------------------------------------------------------------------------*/
FoamFile
{
    version     2.0;
    format      ascii;
    arch        "LSB;label=32;scalar=64";
    class       volScalarField;
    location    "25/fluidRegion";
    object      k;
}
// * * * * * * * * * * * * * * * * * * * * * * * * * * * * * * * * * * * * * //

dimensions      [0 2 -2 0 0 0 0];

internalField   nonuniform List<scalar> 
350
(
0.420873
0.420804
0.420734
0.420665
0.420596
0.420528
0.420459
0.420391
0.420324
0.420258
0.420193
0.420132
0.420074
0.420022
0.419979
0.41995
0.419942
0.419967
0.420042
0.420192
0.420459
0.420902
0.421617
0.422746
0.424507
0.420873
0.420804
0.420734
0.420665
0.420596
0.420528
0.420459
0.420391
0.420324
0.420258
0.420193
0.420132
0.420074
0.420022
0.419979
0.41995
0.419942
0.419967
0.420042
0.420192
0.420459
0.420902
0.421617
0.422746
0.424507
357.101
338.845
317.627
293.779
268.011
241.038
213.559
186.233
159.671
134.413
110.926
89.5819
70.6545
54.3048
40.5767
29.3981
20.5931
13.9049
9.02529
5.62591
3.38472
2.00507
1.23015
0.851998
0.716884
361.976
343.522
322.069
297.936
271.845
244.522
216.673
188.97
162.031
136.407
112.57
90.9035
71.6852
55.082
41.1408
29.7903
20.8527
14.0672
9.1201
5.67675
3.40912
2.01517
1.23357
0.852953
0.71726
356.292
338.067
316.892
293.094
267.381
240.468
213.051
185.789
159.288
134.092
110.661
89.37
70.4896
54.1806
40.4866
29.3355
20.5516
13.8787
9.00982
5.61742
3.38044
2.00312
1.22934
0.851685
0.716768
360.906
342.493
321.089
297.017
270.995
243.748
215.979
188.359
161.503
135.96
112.201
90.6057
71.4524
54.906
41.0128
29.7012
20.7937
14.0303
9.0985
5.66518
3.40358
2.01289
1.23282
0.852753
0.717185
360.906
342.494
321.089
297.017
270.995
243.748
215.979
188.359
161.503
135.96
112.201
90.6057
71.4524
54.906
41.0128
29.7012
20.7937
14.0303
9.0985
5.66518
3.40358
2.01289
1.23282
0.852753
0.717185
356.292
338.067
316.893
293.094
267.381
240.468
213.051
185.789
159.289
134.092
110.661
89.37
70.4896
54.1807
40.4867
29.3355
20.5516
13.8787
9.00983
5.61742
3.38044
2.00312
1.22933
0.851684
0.716769
361.976
343.522
322.069
297.936
271.845
244.521
216.673
188.97
162.031
136.407
112.57
90.9035
71.6852
55.082
41.1408
29.7903
20.8527
14.0672
9.1201
5.67675
3.40912
2.01517
1.23357
0.852953
0.71726
357.101
338.845
317.627
293.779
268.011
241.038
213.559
186.233
159.671
134.413
110.926
89.5819
70.6545
54.3048
40.5767
29.3981
20.5931
13.9049
9.02528
5.62591
3.38472
2.00507
1.23014
0.851995
0.716881
360.906
342.493
321.089
297.017
270.995
243.748
215.979
188.359
161.503
135.96
112.201
90.6057
71.4524
54.906
41.0128
29.7012
20.7937
14.0303
9.0985
5.66518
3.40358
2.01289
1.23282
0.852752
0.717184
356.291
338.067
316.892
293.094
267.381
240.468
213.051
185.789
159.289
134.092
110.661
89.37
70.4896
54.1806
40.4866
29.3355
20.5516
13.8787
9.00982
5.61742
3.38044
2.00312
1.22934
0.851685
0.716769
356.292
338.067
316.893
293.094
267.381
240.468
213.051
185.789
159.289
134.092
110.661
89.3701
70.4896
54.1807
40.4867
29.3355
20.5516
13.8787
9.00983
5.61742
3.38044
2.00312
1.22933
0.851683
0.716768
360.906
342.493
321.089
297.017
270.995
243.748
215.979
188.359
161.503
135.96
112.201
90.6057
71.4524
54.906
41.0128
29.7012
20.7937
14.0303
9.09849
5.66517
3.40357
2.01289
1.23281
0.852748
0.71718
)
;

boundaryField
{
    outletCentralUnloaded
    {
        type            zeroGradient;
    }
    inletCentralUnloaded
    {
        type            zeroGradient;
    }
    outletFuelElement
    {
        type            zeroGradient;
    }
    inletFuelElement
    {
        type            zeroGradient;
    }
    defaultFaces
    {
        type            zeroGradient;
    }
    baffle_master
    {
        type            zeroGradient;
    }
    baffle_slave
    {
        type            zeroGradient;
    }
}


// ************************************************************************* //
