/*--------------------------------*- C++ -*----------------------------------*\
| =========                 |                                                 |
| \\      /  F ield         | OpenFOAM: The Open Source CFD Toolbox           |
|  \\    /   O peration     | Version:  2212                                  |
|   \\  /    A nd           | Website:  www.openfoam.com                      |
|    \\/     M anipulation  |                                                 |
\*---------------------------------------------------------------------------*/
FoamFile
{
    version     2.0;
    format      ascii;
    arch        "LSB;label=32;scalar=64";
    class       volScalarField;
    location    "25/fluidRegion";
    object      nut;
}
// * * * * * * * * * * * * * * * * * * * * * * * * * * * * * * * * * * * * * //

dimensions      [0 2 -1 0 0 0 0];

internalField   nonuniform List<scalar> 
350
(
0.000537457
0.000537413
0.000537369
0.000537324
0.00053728
0.000537236
0.000537192
0.000537149
0.000537105
0.000537063
0.000537021
0.00053698
0.000536941
0.000536905
0.000536873
0.000536848
0.000536833
0.000536833
0.000536856
0.000536916
0.00053703
0.000537227
0.000537553
0.000538074
0.000539557
0.000537457
0.000537413
0.000537369
0.000537324
0.00053728
0.000537236
0.000537192
0.000537149
0.000537105
0.000537063
0.000537021
0.00053698
0.000536941
0.000536905
0.000536873
0.000536848
0.000536833
0.000536833
0.000536856
0.000536916
0.00053703
0.000537227
0.000537553
0.000538074
0.000539557
0.00972262
0.00954134
0.00931173
0.00902604
0.00868895
0.00830546
0.00788073
0.00742015
0.00692929
0.00641397
0.00588034
0.00533499
0.00478503
0.00423809
0.00370225
0.00318564
0.00269603
0.00224044
0.00182483
0.0014543
0.00113342
0.000866561
0.000657744
0.000509181
0.00041644
0.00978354
0.00960151
0.00937127
0.00908444
0.0087458
0.00836036
0.00793331
0.00747007
0.00697623
0.00645763
0.00592044
0.00537129
0.00481733
0.00426627
0.00372627
0.00320557
0.00271208
0.00225289
0.00183406
0.00146075
0.00113756
0.000868909
0.000658834
0.000509532
0.000416504
0.00971271
0.00953143
0.00930199
0.00901651
0.00867971
0.00829656
0.00787224
0.00741211
0.00692176
0.00640698
0.00587394
0.00532921
0.00477989
0.00423362
0.00369844
0.00318247
0.00269348
0.00223844
0.00182333
0.00145323
0.00113269
0.000866105
0.000657482
0.000509043
0.000416395
0.00977006
0.0095882
0.00935805
0.00907144
0.00873313
0.00834809
0.00792154
0.00745887
0.00696568
0.00644779
0.00591139
0.00536308
0.00481001
0.00425988
0.00372081
0.00320103
0.00270842
0.00225005
0.00183196
0.00145928
0.00113662
0.000868381
0.000658594
0.000509462
0.000416495
0.00977006
0.0095882
0.00935805
0.00907144
0.00873313
0.00834809
0.00792154
0.00745887
0.00696568
0.00644779
0.00591139
0.00536308
0.00481001
0.00425988
0.00372081
0.00320103
0.00270842
0.00225005
0.00183196
0.00145928
0.00113662
0.000868381
0.000658594
0.000509462
0.000416495
0.00971272
0.00953144
0.00930199
0.00901651
0.00867971
0.00829656
0.00787224
0.00741212
0.00692176
0.00640699
0.00587395
0.00532922
0.00477989
0.00423362
0.00369844
0.00318247
0.00269348
0.00223844
0.00182333
0.00145323
0.00113269
0.000866105
0.000657481
0.000509042
0.000416395
0.00978354
0.00960151
0.00937127
0.00908444
0.0087458
0.00836036
0.00793331
0.00747007
0.00697623
0.00645763
0.00592044
0.00537129
0.00481733
0.00426627
0.00372627
0.00320557
0.00271208
0.00225289
0.00183406
0.00146075
0.00113756
0.000868909
0.000658834
0.000509532
0.000416504
0.00972262
0.00954134
0.00931173
0.00902604
0.00868895
0.00830546
0.00788073
0.00742015
0.00692929
0.00641397
0.00588034
0.00533499
0.00478503
0.00423809
0.00370225
0.00318564
0.00269603
0.00224044
0.00182483
0.0014543
0.00113342
0.00086656
0.000657744
0.000509181
0.00041644
0.00977006
0.0095882
0.00935805
0.00907144
0.00873313
0.00834809
0.00792154
0.00745887
0.00696568
0.00644779
0.00591139
0.00536308
0.00481001
0.00425988
0.00372081
0.00320103
0.00270842
0.00225005
0.00183196
0.00145928
0.00113662
0.000868381
0.000658594
0.000509462
0.000416495
0.00971271
0.00953143
0.00930199
0.00901651
0.00867971
0.00829656
0.00787224
0.00741211
0.00692176
0.00640698
0.00587394
0.00532921
0.00477989
0.00423362
0.00369844
0.00318247
0.00269348
0.00223844
0.00182333
0.00145323
0.00113269
0.000866105
0.000657482
0.000509044
0.000416396
0.00971272
0.00953144
0.00930199
0.00901651
0.00867971
0.00829656
0.00787224
0.00741212
0.00692176
0.00640699
0.00587395
0.00532922
0.00477989
0.00423362
0.00369844
0.00318247
0.00269348
0.00223844
0.00182333
0.00145323
0.00113269
0.000866104
0.000657481
0.000509042
0.000416395
0.00977006
0.0095882
0.00935805
0.00907144
0.00873313
0.00834809
0.00792154
0.00745887
0.00696568
0.00644779
0.00591139
0.00536308
0.00481001
0.00425988
0.00372081
0.00320103
0.00270842
0.00225005
0.00183196
0.00145928
0.00113662
0.00086838
0.000658594
0.000509462
0.000416494
)
;

boundaryField
{
    outletCentralUnloaded
    {
        type            zeroGradient;
    }
    inletCentralUnloaded
    {
        type            zeroGradient;
    }
    outletFuelElement
    {
        type            zeroGradient;
    }
    inletFuelElement
    {
        type            zeroGradient;
    }
    defaultFaces
    {
        type            zeroGradient;
    }
    baffle_master
    {
        type            calculated;
        value           nonuniform List<scalar> 
150
(
0.000537457
0.000537457
0.000537457
0.000537413
0.000537413
0.000537413
0.000537369
0.000537369
0.000537369
0.000537324
0.000537324
0.000537324
0.00053728
0.00053728
0.00053728
0.000537236
0.000537236
0.000537236
0.000537192
0.000537192
0.000537192
0.000537149
0.000537149
0.000537149
0.000537105
0.000537105
0.000537105
0.000537063
0.000537063
0.000537063
0.000537021
0.000537021
0.000537021
0.00053698
0.00053698
0.00053698
0.000536941
0.000536941
0.000536941
0.000536905
0.000536905
0.000536905
0.000536873
0.000536873
0.000536873
0.000536848
0.000536848
0.000536848
0.000536833
0.000536833
0.000536833
0.000536833
0.000536833
0.000536833
0.000536856
0.000536856
0.000536856
0.000536916
0.000536916
0.000536916
0.00053703
0.00053703
0.00053703
0.000537227
0.000537227
0.000537227
0.000537553
0.000537553
0.000537553
0.000538074
0.000538074
0.000538074
0.000539557
0.000539557
0.000539557
0.000537457
0.000537457
0.000537457
0.000537413
0.000537413
0.000537413
0.000537369
0.000537369
0.000537369
0.000537324
0.000537324
0.000537324
0.00053728
0.00053728
0.00053728
0.000537236
0.000537236
0.000537236
0.000537192
0.000537192
0.000537192
0.000537149
0.000537149
0.000537149
0.000537105
0.000537105
0.000537105
0.000537063
0.000537063
0.000537063
0.000537021
0.000537021
0.000537021
0.00053698
0.00053698
0.00053698
0.000536941
0.000536941
0.000536941
0.000536905
0.000536905
0.000536905
0.000536873
0.000536873
0.000536873
0.000536848
0.000536848
0.000536848
0.000536833
0.000536833
0.000536833
0.000536833
0.000536833
0.000536833
0.000536856
0.000536856
0.000536856
0.000536916
0.000536916
0.000536916
0.00053703
0.00053703
0.00053703
0.000537227
0.000537227
0.000537227
0.000537553
0.000537553
0.000537553
0.000538074
0.000538074
0.000538074
0.000539557
0.000539557
0.000539557
)
;
    }
    baffle_slave
    {
        type            calculated;
        value           nonuniform List<scalar> 
150
(
0.00978354
0.00977006
0.00977006
0.00960151
0.0095882
0.0095882
0.00937127
0.00935805
0.00935805
0.00908444
0.00907144
0.00907144
0.0087458
0.00873313
0.00873313
0.00836036
0.00834809
0.00834809
0.00793331
0.00792154
0.00792154
0.00747007
0.00745887
0.00745887
0.00697623
0.00696568
0.00696568
0.00645763
0.00644779
0.00644779
0.00592044
0.00591139
0.00591139
0.00537129
0.00536308
0.00536308
0.00481733
0.00481001
0.00481001
0.00426627
0.00425988
0.00425988
0.00372627
0.00372081
0.00372081
0.00320557
0.00320103
0.00320103
0.00271208
0.00270842
0.00270842
0.00225289
0.00225005
0.00225005
0.00183406
0.00183196
0.00183196
0.00146075
0.00145928
0.00145928
0.00113756
0.00113662
0.00113662
0.000868909
0.000868381
0.00086838
0.000658834
0.000658594
0.000658594
0.000509532
0.000509462
0.000509462
0.000416504
0.000416495
0.000416494
0.00977006
0.00978354
0.00977006
0.0095882
0.00960151
0.0095882
0.00935805
0.00937127
0.00935805
0.00907144
0.00908444
0.00907144
0.00873313
0.0087458
0.00873313
0.00834809
0.00836036
0.00834809
0.00792154
0.00793331
0.00792154
0.00745887
0.00747007
0.00745887
0.00696568
0.00697623
0.00696568
0.00644779
0.00645763
0.00644779
0.00591139
0.00592044
0.00591139
0.00536308
0.00537129
0.00536308
0.00481001
0.00481733
0.00481001
0.00425988
0.00426627
0.00425988
0.00372081
0.00372627
0.00372081
0.00320103
0.00320557
0.00320103
0.00270842
0.00271208
0.00270842
0.00225005
0.00225289
0.00225005
0.00183196
0.00183406
0.00183196
0.00145928
0.00146075
0.00145928
0.00113662
0.00113756
0.00113662
0.000868381
0.000868909
0.000868381
0.000658594
0.000658834
0.000658594
0.000509462
0.000509532
0.000509462
0.000416495
0.000416504
0.000416495
)
;
    }
}


// ************************************************************************* //
