/*--------------------------------*- C++ -*----------------------------------*\
| =========                 |                                                 |
| \\      /  F ield         | OpenFOAM: The Open Source CFD Toolbox           |
|  \\    /   O peration     | Version:  2212                                  |
|   \\  /    A nd           | Website:  www.openfoam.com                      |
|    \\/     M anipulation  |                                                 |
\*---------------------------------------------------------------------------*/
FoamFile
{
    version     2.0;
    format      ascii;
    arch        "LSB;label=32;scalar=64";
    class       volScalarField;
    location    "25/fluidRegion";
    object      Re;
}
// * * * * * * * * * * * * * * * * * * * * * * * * * * * * * * * * * * * * * //

dimensions      [0 0 0 0 0 0 0];

internalField   nonuniform List<scalar> 
350
(
173981
173981
173981
173981
173981
173981
173981
173981
173981
173981
173981
173981
173981
173981
173981
173981
173981
173981
173981
173981
173981
173981
173981
173981
174367
173981
173981
173981
173981
173981
173981
173981
173981
173981
173981
173981
173981
173981
173981
173981
173981
173981
173981
173981
173981
173981
173981
173981
173981
174367
54728.7
54652.7
54654.5
54655.3
54654.7
54652.8
54649.3
54644.2
54637.1
54628.1
54616.9
54603.6
54588.1
54570.5
54550.3
54526.4
54497.4
54461.7
54419.5
54377.5
54355.6
54410.8
54671.4
55351.2
55705.8
54258.9
54175.3
54172.5
54168.6
54163.8
54157.9
54150.8
54142.4
54132.3
54120.7
54107.5
54093.4
54078.8
54064.8
54051.8
54039.5
54027
54013
53997.5
53987.9
54005.7
54111
54437.5
55203.1
55658
54807.4
54731.2
54733.6
54734.7
54734.4
54732.8
54729.5
54724.5
54717.6
54708.5
54697.2
54683.4
54667.2
54648.4
54626.3
54599.8
54567.3
54527.3
54479.9
54431.5
54402
54447.6
54696.4
55362.3
55707.5
54364
54282.5
54280.9
54278.3
54274.6
54269.9
54263.8
54256.2
54247.1
54236.2
54223.7
54209.9
54195.3
54180.7
54166.2
54151.5
54135.4
54116.5
54095.1
54078.2
54087.1
54181.1
54492.7
55238.7
55669.9
54364
54282.5
54280.9
54278.3
54274.6
54269.9
54263.8
54256.3
54247.1
54236.2
54223.7
54209.9
54195.3
54180.7
54166.2
54151.5
54135.4
54116.5
54095.1
54078.2
54087.1
54181.1
54492.7
55238.7
55669.9
54807.4
54731.2
54733.6
54734.7
54734.4
54732.7
54729.5
54724.5
54717.5
54708.5
54697.1
54683.4
54667.2
54648.3
54626.2
54599.8
54567.3
54527.3
54479.8
54431.4
54401.9
54447.5
54696.2
55362.2
55707.4
54258.9
54175.3
54172.5
54168.6
54163.8
54157.9
54150.8
54142.4
54132.3
54120.7
54107.5
54093.4
54078.8
54064.8
54051.8
54039.5
54027
54012.9
53997.5
53987.9
54005.7
54111
54437.5
55203.1
55658
54728.7
54652.7
54654.5
54655.3
54654.7
54652.8
54649.3
54644.2
54637.1
54628.1
54616.9
54603.6
54588.1
54570.5
54550.3
54526.4
54497.4
54461.7
54419.5
54377.5
54355.6
54410.8
54671.4
55351.2
55705.8
54364
54282.5
54280.9
54278.3
54274.6
54269.9
54263.8
54256.3
54247.1
54236.2
54223.7
54209.9
54195.3
54180.7
54166.2
54151.5
54135.4
54116.5
54095.1
54078.2
54087.1
54181.1
54492.7
55238.7
55669.9
54807.4
54731.2
54733.6
54734.7
54734.4
54732.8
54729.5
54724.5
54717.6
54708.5
54697.2
54683.4
54667.2
54648.4
54626.3
54599.8
54567.3
54527.3
54479.9
54431.5
54402
54447.6
54696.4
55362.3
55707.5
54807.4
54731.2
54733.6
54734.7
54734.4
54732.7
54729.5
54724.5
54717.5
54708.5
54697.1
54683.4
54667.2
54648.3
54626.2
54599.8
54567.3
54527.3
54479.8
54431.4
54401.9
54447.5
54696.2
55362.2
55707.4
54364
54282.5
54280.9
54278.3
54274.6
54269.9
54263.8
54256.3
54247.1
54236.2
54223.7
54209.9
54195.3
54180.7
54166.2
54151.5
54135.4
54116.5
54095.1
54078.2
54087.1
54181.1
54492.7
55238.7
55669.9
)
;

boundaryField
{
    outletCentralUnloaded
    {
        type            zeroGradient;
    }
    inletCentralUnloaded
    {
        type            zeroGradient;
    }
    outletFuelElement
    {
        type            zeroGradient;
    }
    inletFuelElement
    {
        type            zeroGradient;
    }
    defaultFaces
    {
        type            zeroGradient;
    }
    baffle_master
    {
        type            zeroGradient;
    }
    baffle_slave
    {
        type            zeroGradient;
    }
}


// ************************************************************************* //
