/*--------------------------------*- C++ -*----------------------------------*\
| =========                 |                                                 |
| \\      /  F ield         | OpenFOAM: The Open Source CFD Toolbox           |
|  \\    /   O peration     | Version:  2212                                  |
|   \\  /    A nd           | Website:  www.openfoam.com                      |
|    \\/     M anipulation  |                                                 |
\*---------------------------------------------------------------------------*/
FoamFile
{
    version     2.0;
    format      ascii;
    arch        "LSB;label=32;scalar=64";
    class       volScalarField;
    location    "25/fluidRegion";
    object      T.cladAvForNeutronics;
}
// * * * * * * * * * * * * * * * * * * * * * * * * * * * * * * * * * * * * * //

dimensions      [0 0 0 1 0 0 0];

internalField   nonuniform List<scalar> 
350
(
0
0
0
0
0
0
0
0
0
0
0
0
0
0
0
0
0
0
0
0
0
0
0
0
0
0
0
0
0
0
0
0
0
0
0
0
0
0
0
0
0
0
0
0
0
0
0
0
0
0
1729.39
1770.4
1798.76
1814.46
1817.62
1808.52
1787.55
1755.26
1712.35
1659.62
1598.03
1528.65
1452.66
1371.37
1286.15
1198.41
1109.42
1020.11
930.768
840.477
746.389
642.681
519.981
368.583
190.776
1755.17
1796.86
1825.67
1841.62
1844.81
1835.51
1814.14
1781.25
1737.54
1683.84
1621.11
1550.43
1473.02
1390.19
1303.35
1213.93
1123.25
1032.3
941.409
849.694
754.298
649.311
525.17
371.927
191.908
1725.19
1766.11
1794.41
1810.09
1813.27
1804.21
1783.32
1751.15
1708.37
1655.81
1594.41
1525.24
1449.49
1368.44
1283.49
1196.02
1107.29
1018.24
929.142
839.073
745.193
641.687
519.213
368.092
190.603
1749.37
1790.89
1819.59
1835.46
1838.63
1829.37
1808.08
1775.32
1731.78
1678.29
1615.82
1545.43
1468.34
1385.86
1299.39
1210.35
1120.05
1029.49
938.95
847.563
752.469
647.777
523.968
371.152
191.646
1749.37
1790.89
1819.59
1835.46
1838.63
1829.37
1808.08
1775.32
1731.78
1678.29
1615.82
1545.43
1468.34
1385.86
1299.39
1210.35
1120.05
1029.49
938.95
847.563
752.469
647.777
523.968
371.152
191.646
1725.19
1766.11
1794.41
1810.09
1813.27
1804.21
1783.32
1751.15
1708.38
1655.82
1594.42
1525.24
1449.49
1368.44
1283.49
1196.02
1107.29
1018.24
929.142
839.074
745.193
641.688
519.214
368.093
190.603
1755.17
1796.86
1825.67
1841.62
1844.81
1835.51
1814.14
1781.25
1737.54
1683.84
1621.11
1550.43
1473.02
1390.19
1303.35
1213.93
1123.25
1032.3
941.409
849.694
754.298
649.312
525.171
371.927
191.908
1729.39
1770.4
1798.76
1814.46
1817.62
1808.52
1787.55
1755.26
1712.35
1659.62
1598.03
1528.65
1452.66
1371.37
1286.15
1198.41
1109.42
1020.11
930.768
840.477
746.389
642.681
519.981
368.583
190.776
1749.37
1790.89
1819.59
1835.46
1838.63
1829.37
1808.08
1775.32
1731.78
1678.29
1615.82
1545.43
1468.34
1385.86
1299.39
1210.35
1120.05
1029.49
938.95
847.563
752.469
647.777
523.968
371.152
191.646
1725.19
1766.11
1794.41
1810.09
1813.27
1804.21
1783.32
1751.15
1708.37
1655.81
1594.41
1525.24
1449.49
1368.44
1283.49
1196.02
1107.29
1018.24
929.142
839.073
745.193
641.687
519.213
368.092
190.603
1725.19
1766.11
1794.41
1810.09
1813.27
1804.21
1783.32
1751.15
1708.37
1655.82
1594.42
1525.24
1449.49
1368.44
1283.49
1196.02
1107.29
1018.24
929.142
839.074
745.193
641.688
519.214
368.093
190.603
1749.37
1790.89
1819.59
1835.46
1838.63
1829.37
1808.08
1775.32
1731.78
1678.29
1615.82
1545.43
1468.34
1385.86
1299.39
1210.35
1120.05
1029.49
938.95
847.563
752.469
647.777
523.968
371.152
191.646
)
;

boundaryField
{
    outletCentralUnloaded
    {
        type            zeroGradient;
    }
    inletCentralUnloaded
    {
        type            zeroGradient;
    }
    outletFuelElement
    {
        type            zeroGradient;
    }
    inletFuelElement
    {
        type            zeroGradient;
    }
    defaultFaces
    {
        type            zeroGradient;
    }
    baffle_master
    {
        type            zeroGradient;
    }
    baffle_slave
    {
        type            zeroGradient;
    }
}


// ************************************************************************* //
