/*--------------------------------*- C++ -*----------------------------------*\
| =========                 |                                                 |
| \\      /  F ield         | OpenFOAM: The Open Source CFD Toolbox           |
|  \\    /   O peration     | Version:  2212                                  |
|   \\  /    A nd           | Website:  www.openfoam.com                      |
|    \\/     M anipulation  |                                                 |
\*---------------------------------------------------------------------------*/
FoamFile
{
    version     2.0;
    format      ascii;
    arch        "LSB;label=32;scalar=64";
    class       volScalarField;
    location    "25/fluidRegion";
    object      Tci.nuclearFuelPin;
}
// * * * * * * * * * * * * * * * * * * * * * * * * * * * * * * * * * * * * * //

dimensions      [0 0 0 1 0 0 0];

internalField   nonuniform List<scalar> 
350
(
0
0
0
0
0
0
0
0
0
0
0
0
0
0
0
0
0
0
0
0
0
0
0
0
0
0
0
0
0
0
0
0
0
0
0
0
0
0
0
0
0
0
0
0
0
0
0
0
0
0
1732.07
1784.63
1824.28
1850.84
1864.27
1864.66
1852.28
1827.53
1790.99
1743.36
1685.52
1618.49
1543.4
1461.56
1374.35
1283.19
1189.41
1094.04
997.435
898.807
795.45
681.702
548.386
386.011
197.043
1757.85
1811.21
1851.46
1878.39
1891.96
1892.27
1879.58
1854.32
1817.05
1768.51
1709.58
1641.28
1564.78
1481.4
1392.54
1299.66
1204.15
1107.06
1008.83
908.683
803.911
688.771
553.893
389.546
198.239
1727.87
1780.32
1819.89
1846.41
1859.83
1860.26
1847.94
1823.29
1786.87
1739.4
1681.75
1614.92
1540.07
1458.48
1371.53
1280.64
1187.14
1092.04
995.688
897.299
794.164
680.638
547.568
385.489
196.86
1752.05
1805.22
1845.31
1872.14
1885.67
1885.99
1873.36
1848.2
1811.09
1762.75
1704.06
1636.04
1559.87
1476.83
1388.34
1295.86
1200.75
1104.06
1006.2
906.4
801.955
687.135
552.618
388.727
197.962
1752.05
1805.22
1845.31
1872.14
1885.67
1885.99
1873.36
1848.2
1811.09
1762.75
1704.06
1636.04
1559.87
1476.83
1388.34
1295.86
1200.75
1104.06
1006.2
906.4
801.955
687.135
552.618
388.727
197.962
1727.87
1780.32
1819.89
1846.41
1859.83
1860.26
1847.94
1823.29
1786.87
1739.4
1681.75
1614.92
1540.07
1458.48
1371.53
1280.64
1187.14
1092.04
995.689
897.299
794.165
680.639
547.569
385.49
196.86
1757.85
1811.21
1851.46
1878.39
1891.96
1892.27
1879.58
1854.32
1817.05
1768.51
1709.58
1641.28
1564.78
1481.4
1392.54
1299.66
1204.15
1107.06
1008.83
908.683
803.911
688.771
553.893
389.546
198.239
1732.07
1784.63
1824.28
1850.84
1864.27
1864.66
1852.28
1827.53
1790.99
1743.36
1685.52
1618.49
1543.4
1461.56
1374.35
1283.19
1189.41
1094.04
997.435
898.807
795.449
681.702
548.386
386.011
197.043
1752.05
1805.22
1845.31
1872.14
1885.67
1885.99
1873.36
1848.2
1811.09
1762.75
1704.06
1636.04
1559.87
1476.83
1388.34
1295.86
1200.75
1104.06
1006.2
906.4
801.955
687.135
552.618
388.727
197.962
1727.87
1780.32
1819.89
1846.41
1859.83
1860.26
1847.94
1823.29
1786.87
1739.4
1681.75
1614.92
1540.07
1458.48
1371.53
1280.64
1187.14
1092.04
995.688
897.299
794.164
680.638
547.568
385.489
196.86
1727.87
1780.32
1819.89
1846.41
1859.83
1860.26
1847.94
1823.29
1786.87
1739.4
1681.75
1614.92
1540.07
1458.48
1371.53
1280.64
1187.14
1092.04
995.689
897.299
794.165
680.639
547.569
385.49
196.86
1752.05
1805.22
1845.31
1872.14
1885.67
1885.98
1873.36
1848.2
1811.09
1762.75
1704.06
1636.04
1559.87
1476.83
1388.34
1295.86
1200.75
1104.06
1006.2
906.4
801.955
687.135
552.618
388.727
197.962
)
;

boundaryField
{
    outletCentralUnloaded
    {
        type            zeroGradient;
    }
    inletCentralUnloaded
    {
        type            zeroGradient;
    }
    outletFuelElement
    {
        type            zeroGradient;
    }
    inletFuelElement
    {
        type            zeroGradient;
    }
    defaultFaces
    {
        type            zeroGradient;
    }
    baffle_master
    {
        type            zeroGradient;
    }
    baffle_slave
    {
        type            zeroGradient;
    }
}


// ************************************************************************* //
