/*--------------------------------*- C++ -*----------------------------------*\
| =========                 |                                                 |
| \\      /  F ield         | OpenFOAM: The Open Source CFD Toolbox           |
|  \\    /   O peration     | Version:  2212                                  |
|   \\  /    A nd           | Website:  www.openfoam.com                      |
|    \\/     M anipulation  |                                                 |
\*---------------------------------------------------------------------------*/
FoamFile
{
    version     2.0;
    format      ascii;
    arch        "LSB;label=32;scalar=64";
    class       volScalarField;
    location    "25/fluidRegion";
    object      Tco.nuclearFuelPin;
}
// * * * * * * * * * * * * * * * * * * * * * * * * * * * * * * * * * * * * * //

dimensions      [0 0 0 1 0 0 0];

internalField   nonuniform List<scalar> 
350
(
0
0
0
0
0
0
0
0
0
0
0
0
0
0
0
0
0
0
0
0
0
0
0
0
0
0
0
0
0
0
0
0
0
0
0
0
0
0
0
0
0
0
0
0
0
0
0
0
0
0
1726.9
1757.13
1774.94
1780.5
1774.09
1756.12
1727.13
1687.81
1638.95
1581.47
1516.37
1444.79
1367.95
1287.18
1203.83
1119.28
1034.74
951.106
868.54
786.029
700.595
606.257
493.466
352.316
184.925
1752.68
1783.47
1801.62
1807.3
1800.8
1782.54
1753.06
1713.05
1663.33
1604.81
1538.53
1465.64
1387.37
1305.06
1220.1
1133.9
1047.73
962.517
878.478
794.631
707.987
612.479
498.36
355.481
185.997
1722.7
1752.86
1770.63
1776.19
1769.81
1751.9
1723.01
1683.82
1635.11
1577.79
1512.9
1441.53
1364.93
1284.41
1201.32
1117.02
1032.75
949.361
867.025
784.723
699.481
605.329
492.746
351.854
184.762
1746.88
1777.53
1795.59
1801.23
1794.74
1776.53
1747.15
1707.29
1657.76
1599.46
1533.45
1460.85
1382.9
1300.94
1216.35
1130.53
1044.73
959.88
876.18
792.642
706.277
611.039
497.226
354.747
185.749
1746.88
1777.53
1795.59
1801.23
1794.74
1776.53
1747.15
1707.29
1657.76
1599.46
1533.45
1460.85
1382.9
1300.94
1216.35
1130.53
1044.73
959.88
876.18
792.642
706.277
611.039
497.226
354.747
185.749
1722.7
1752.86
1770.64
1776.19
1769.81
1751.9
1723.01
1683.82
1635.11
1577.8
1512.9
1441.54
1364.94
1284.41
1201.32
1117.02
1032.75
949.362
867.026
784.724
699.481
605.33
492.747
351.854
184.762
1752.68
1783.47
1801.62
1807.3
1800.8
1782.54
1753.06
1713.05
1663.33
1604.81
1538.53
1465.64
1387.37
1305.06
1220.1
1133.9
1047.73
962.517
878.478
794.631
707.987
612.479
498.36
355.481
185.997
1726.9
1757.13
1774.94
1780.5
1774.09
1756.11
1727.13
1687.81
1638.95
1581.47
1516.37
1444.79
1367.95
1287.18
1203.83
1119.28
1034.74
951.106
868.54
786.029
700.595
606.258
493.466
352.316
184.925
1746.88
1777.53
1795.59
1801.23
1794.74
1776.53
1747.15
1707.29
1657.76
1599.46
1533.45
1460.85
1382.9
1300.94
1216.35
1130.53
1044.73
959.88
876.18
792.642
706.277
611.039
497.226
354.747
185.749
1722.7
1752.86
1770.63
1776.19
1769.81
1751.9
1723.01
1683.82
1635.11
1577.79
1512.9
1441.53
1364.93
1284.41
1201.32
1117.02
1032.75
949.361
867.025
784.723
699.481
605.329
492.746
351.854
184.762
1722.7
1752.86
1770.64
1776.19
1769.81
1751.9
1723.01
1683.82
1635.11
1577.8
1512.9
1441.54
1364.94
1284.41
1201.32
1117.02
1032.75
949.362
867.026
784.724
699.481
605.33
492.747
351.854
184.762
1746.88
1777.53
1795.59
1801.23
1794.74
1776.53
1747.15
1707.29
1657.76
1599.46
1533.45
1460.85
1382.9
1300.94
1216.35
1130.53
1044.73
959.88
876.18
792.642
706.277
611.039
497.226
354.747
185.749
)
;

boundaryField
{
    outletCentralUnloaded
    {
        type            zeroGradient;
    }
    inletCentralUnloaded
    {
        type            zeroGradient;
    }
    outletFuelElement
    {
        type            zeroGradient;
    }
    inletFuelElement
    {
        type            zeroGradient;
    }
    defaultFaces
    {
        type            zeroGradient;
    }
    baffle_master
    {
        type            zeroGradient;
    }
    baffle_slave
    {
        type            zeroGradient;
    }
}


// ************************************************************************* //
