/*--------------------------------*- C++ -*----------------------------------*\
| =========                 |                                                 |
| \\      /  F ield         | OpenFOAM: The Open Source CFD Toolbox           |
|  \\    /   O peration     | Version:  2212                                  |
|   \\  /    A nd           | Website:  www.openfoam.com                      |
|    \\/     M anipulation  |                                                 |
\*---------------------------------------------------------------------------*/
FoamFile
{
    version     2.0;
    format      ascii;
    arch        "LSB;label=32;scalar=64";
    class       volScalarField;
    location    "25/fluidRegion";
    object      Tfi.nuclearFuelPin;
}
// * * * * * * * * * * * * * * * * * * * * * * * * * * * * * * * * * * * * * //

dimensions      [0 0 0 1 0 0 0];

internalField   nonuniform List<scalar> 
350
(
0
0
0
0
0
0
0
0
0
0
0
0
0
0
0
0
0
0
0
0
0
0
0
0
0
0
0
0
0
0
0
0
0
0
0
0
0
0
0
0
0
0
0
0
0
0
0
0
0
0
1962.18
3084.94
4171.71
5205.74
6171.06
7052.76
7837.19
8512.19
9067.32
9493.99
9785.61
9937.72
9948.05
9816.55
9545.37
9138.8
8603.09
7946.21
7177.43
6307.04
5345.32
4302.13
3186.31
2008.17
786.796
1987.37
3123.2
4222.56
5268.53
6244.95
7136.72
7930.05
8612.64
9173.94
9605.24
9899.9
10053.4
10063.4
9929.99
9655.24
9243.53
8701.22
8036.39
7258.46
6377.84
5404.96
4349.76
3221.12
2029.4
793.921
1958.09
3078.78
4163.55
5195.69
6159.27
7039.38
7822.39
8496.2
9050.36
9476.3
9767.44
9919.34
9929.72
9798.53
9527.92
9122.17
8587.52
7931.89
7164.57
6295.81
5335.86
4294.59
3180.81
2004.81
785.667
1981.68
3114.48
4210.94
5254.15
6228
7117.45
7908.72
8589.56
9149.42
9579.65
9873.6
10026.8
10036.9
9903.88
9629.94
9219.42
8678.63
8015.62
7239.8
6361.54
5391.22
4338.79
3213.1
2024.51
792.28
1981.68
3114.48
4210.94
5254.15
6228
7117.45
7908.72
8589.56
9149.42
9579.65
9873.6
10026.8
10036.9
9903.88
9629.94
9219.42
8678.63
8015.62
7239.8
6361.54
5391.22
4338.79
3213.11
2024.51
792.28
1958.09
3078.78
4163.56
5195.7
6159.27
7039.38
7822.4
8496.2
9050.36
9476.3
9767.44
9919.34
9929.72
9798.53
9527.92
9122.18
8587.52
7931.89
7164.58
6295.81
5335.86
4294.59
3180.81
2004.81
785.667
1987.37
3123.2
4222.56
5268.53
6244.95
7136.72
7930.05
8612.64
9173.94
9605.24
9899.9
10053.4
10063.4
9929.99
9655.24
9243.53
8701.22
8036.39
7258.46
6377.84
5404.96
4349.76
3221.12
2029.4
793.921
1962.18
3084.94
4171.71
5205.74
6171.06
7052.76
7837.19
8512.19
9067.32
9493.99
9785.61
9937.72
9948.05
9816.55
9545.37
9138.8
8603.09
7946.2
7177.43
6307.04
5345.32
4302.13
3186.31
2008.17
786.796
1981.68
3114.48
4210.94
5254.15
6228
7117.45
7908.72
8589.56
9149.42
9579.65
9873.6
10026.8
10036.9
9903.88
9629.94
9219.42
8678.63
8015.62
7239.8
6361.54
5391.22
4338.79
3213.11
2024.51
792.28
1958.09
3078.78
4163.55
5195.7
6159.27
7039.38
7822.39
8496.2
9050.36
9476.3
9767.44
9919.34
9929.72
9798.53
9527.92
9122.17
8587.52
7931.89
7164.57
6295.81
5335.86
4294.59
3180.81
2004.81
785.667
1958.09
3078.78
4163.56
5195.7
6159.27
7039.38
7822.4
8496.2
9050.36
9476.3
9767.44
9919.34
9929.72
9798.53
9527.92
9122.17
8587.52
7931.89
7164.58
6295.81
5335.86
4294.59
3180.81
2004.81
785.667
1981.68
3114.48
4210.94
5254.15
6228
7117.45
7908.72
8589.56
9149.42
9579.65
9873.6
10026.8
10036.9
9903.88
9629.94
9219.42
8678.63
8015.62
7239.8
6361.54
5391.22
4338.79
3213.1
2024.51
792.28
)
;

boundaryField
{
    outletCentralUnloaded
    {
        type            zeroGradient;
    }
    inletCentralUnloaded
    {
        type            zeroGradient;
    }
    outletFuelElement
    {
        type            zeroGradient;
    }
    inletFuelElement
    {
        type            zeroGradient;
    }
    defaultFaces
    {
        type            zeroGradient;
    }
    baffle_master
    {
        type            zeroGradient;
    }
    baffle_slave
    {
        type            zeroGradient;
    }
}


// ************************************************************************* //
