/*--------------------------------*- C++ -*----------------------------------*\
| =========                 |                                                 |
| \\      /  F ield         | OpenFOAM: The Open Source CFD Toolbox           |
|  \\    /   O peration     | Version:  2212                                  |
|   \\  /    A nd           | Website:  www.openfoam.com                      |
|    \\/     M anipulation  |                                                 |
\*---------------------------------------------------------------------------*/
FoamFile
{
    version     2.0;
    format      ascii;
    arch        "LSB;label=32;scalar=64";
    class       volScalarField;
    location    "25/fluidRegion";
    object      Tfo.nuclearFuelPin;
}
// * * * * * * * * * * * * * * * * * * * * * * * * * * * * * * * * * * * * * //

dimensions      [0 0 0 1 0 0 0];

internalField   nonuniform List<scalar> 
350
(
0
0
0
0
0
0
0
0
0
0
0
0
0
0
0
0
0
0
0
0
0
0
0
0
0
0
0
0
0
0
0
0
0
0
0
0
0
0
0
0
0
0
0
0
0
0
0
0
0
0
1811.21
2186.42
2541.67
2871.78
3171.92
3437.67
3665.09
3850.82
3992.13
4086.91
4133.82
4132.22
4082.24
3984.77
3841.46
3654.6
3427.01
3161.82
2862.07
2530.31
2167.7
1773.2
1342.99
873.437
372.06
1837.02
2216.74
2576.2
2910.17
3213.75
3482.47
3712.36
3900.01
4042.66
4138.2
4185.24
4183.16
4132.1
4032.96
3887.41
3697.78
3466.98
3198.18
2894.53
2558.61
2191.64
1792.54
1357.36
882.33
375.051
1807.01
2181.52
2536.11
2865.63
3165.23
3430.52
3657.57
3843.01
3984.11
4078.79
4125.68
4124.16
4074.36
3977.17
3834.21
3647.79
3420.72
3156.1
2856.97
2525.86
2163.94
1770.18
1340.75
872.058
371.591
1831.21
2209.88
2568.36
2901.43
3204.2
3472.23
3701.54
3888.74
4031.06
4126.42
4173.42
4171.45
4120.63
4021.87
3876.82
3687.84
3457.77
3189.8
2887.05
2552.09
2186.12
1788.08
1354.05
880.278
374.362
1831.21
2209.88
2568.36
2901.43
3204.2
3472.23
3701.54
3888.74
4031.06
4126.42
4173.42
4171.45
4120.63
4021.87
3876.82
3687.84
3457.77
3189.8
2887.05
2552.09
2186.12
1788.09
1354.05
880.277
374.362
1807.01
2181.52
2536.11
2865.63
3165.24
3430.52
3657.57
3843.01
3984.11
4078.79
4125.68
4124.16
4074.36
3977.17
3834.21
3647.79
3420.72
3156.1
2856.97
2525.86
2163.94
1770.18
1340.75
872.059
371.591
1837.02
2216.74
2576.2
2910.17
3213.75
3482.47
3712.36
3900.01
4042.66
4138.2
4185.24
4183.16
4132.1
4032.96
3887.41
3697.78
3466.98
3198.18
2894.53
2558.61
2191.64
1792.54
1357.36
882.33
375.051
1811.21
2186.42
2541.67
2871.78
3171.92
3437.67
3665.09
3850.82
3992.13
4086.91
4133.82
4132.22
4082.23
3984.77
3841.46
3654.6
3427.01
3161.82
2862.07
2530.31
2167.7
1773.2
1342.99
873.437
372.06
1831.21
2209.88
2568.36
2901.43
3204.2
3472.23
3701.54
3888.74
4031.06
4126.42
4173.42
4171.45
4120.63
4021.87
3876.82
3687.84
3457.77
3189.8
2887.05
2552.09
2186.12
1788.08
1354.05
880.278
374.362
1807.01
2181.52
2536.11
2865.63
3165.23
3430.52
3657.57
3843.01
3984.11
4078.79
4125.68
4124.16
4074.36
3977.17
3834.21
3647.79
3420.72
3156.1
2856.97
2525.86
2163.94
1770.18
1340.75
872.058
371.591
1807.01
2181.52
2536.11
2865.63
3165.24
3430.52
3657.57
3843.01
3984.11
4078.79
4125.68
4124.16
4074.36
3977.17
3834.21
3647.79
3420.72
3156.1
2856.97
2525.86
2163.94
1770.18
1340.75
872.059
371.591
1831.21
2209.88
2568.36
2901.43
3204.2
3472.23
3701.54
3888.74
4031.06
4126.42
4173.42
4171.45
4120.62
4021.87
3876.82
3687.84
3457.77
3189.8
2887.05
2552.09
2186.12
1788.08
1354.05
880.277
374.362
)
;

boundaryField
{
    outletCentralUnloaded
    {
        type            zeroGradient;
    }
    inletCentralUnloaded
    {
        type            zeroGradient;
    }
    outletFuelElement
    {
        type            zeroGradient;
    }
    inletFuelElement
    {
        type            zeroGradient;
    }
    defaultFaces
    {
        type            zeroGradient;
    }
    baffle_master
    {
        type            zeroGradient;
    }
    baffle_slave
    {
        type            zeroGradient;
    }
}


// ************************************************************************* //
