/*--------------------------------*- C++ -*----------------------------------*\
| =========                 |                                                 |
| \\      /  F ield         | OpenFOAM: The Open Source CFD Toolbox           |
|  \\    /   O peration     | Version:  2212                                  |
|   \\  /    A nd           | Website:  www.openfoam.com                      |
|    \\/     M anipulation  |                                                 |
\*---------------------------------------------------------------------------*/
FoamFile
{
    version     2.0;
    format      ascii;
    arch        "LSB;label=32;scalar=64";
    class       volScalarField;
    location    "32/neutroRegion";
    object      TCool;
}
// * * * * * * * * * * * * * * * * * * * * * * * * * * * * * * * * * * * * * //

dimensions      [0 0 0 1 0 0 0];

internalField   nonuniform List<scalar> 
350
(
83.2889
83.2894
83.2899
83.2904
83.2908
83.2913
83.2917
83.2921
83.2926
83.293
83.2934
83.2939
83.2943
83.2948
83.2953
83.2959
83.2964
83.2969
83.2974
83.2978
83.2983
83.2987
83.2992
83.2997
83.3001
83.2889
83.2894
83.2899
83.2904
83.2908
83.2913
83.2917
83.2921
83.2926
83.293
83.2934
83.2939
83.2943
83.2948
83.2953
83.2959
83.2964
83.2969
83.2974
83.2978
83.2983
83.2987
83.2992
83.2997
83.3001
1791.64
1786.84
1769.68
1740.38
1699.28
1646.86
1583.75
1510.69
1428.54
1338.31
1241.15
1138.38
1031.52
922.311
812.694
704.743
600.533
501.995
410.817
328.425
256.064
194.929
146.232
111.1
90.1746
1819.09
1814.53
1797.4
1767.91
1726.41
1673.39
1609.47
1535.4
1452.07
1360.48
1261.8
1157.35
1048.67
937.528
825.892
715.894
609.678
509.245
416.338
332.427
258.778
196.599
147.114
111.455
90.2502
1787.17
1782.35
1765.21
1735.95
1694.94
1642.64
1579.67
1506.78
1424.84
1334.84
1237.93
1135.44
1028.87
919.974
810.679
703.051
599.153
500.909
409.995
327.835
255.668
194.687
146.105
111.048
90.1625
1812.91
1808.29
1791.14
1761.68
1720.26
1667.36
1603.62
1529.77
1446.69
1355.41
1257.07
1153
1044.73
934.025
822.85
713.32
607.565
507.568
415.06
331.5
258.149
196.212
146.909
111.373
90.2328
1812.91
1808.29
1791.14
1761.68
1720.26
1667.36
1603.62
1529.77
1446.69
1355.41
1257.07
1153
1044.73
934.025
822.85
713.321
607.565
507.568
415.06
331.5
258.149
196.212
146.909
111.373
90.2328
1787.17
1782.36
1765.21
1735.95
1694.94
1642.64
1579.67
1506.78
1424.84
1334.84
1237.93
1135.44
1028.87
919.975
810.68
703.052
599.154
500.91
409.996
327.835
255.668
194.688
146.105
111.048
90.1625
1819.08
1814.53
1797.4
1767.91
1726.41
1673.39
1609.47
1535.4
1452.07
1360.48
1261.8
1157.35
1048.67
937.528
825.892
715.894
609.678
509.245
416.338
332.427
258.778
196.599
147.114
111.455
90.2502
1791.64
1786.84
1769.68
1740.38
1699.28
1646.86
1583.75
1510.69
1428.54
1338.31
1241.15
1138.38
1031.52
922.311
812.694
704.743
600.533
501.995
410.817
328.425
256.065
194.929
146.232
111.1
90.1746
1812.91
1808.29
1791.14
1761.68
1720.26
1667.36
1603.62
1529.77
1446.69
1355.41
1257.07
1153
1044.73
934.025
822.85
713.321
607.565
507.568
415.06
331.5
258.149
196.212
146.909
111.373
90.2328
1787.17
1782.35
1765.21
1735.95
1694.94
1642.64
1579.67
1506.78
1424.84
1334.84
1237.93
1135.43
1028.87
919.974
810.679
703.05
599.153
500.909
409.995
327.835
255.668
194.687
146.105
111.048
90.1625
1787.17
1782.36
1765.21
1735.95
1694.94
1642.64
1579.67
1506.78
1424.84
1334.84
1237.93
1135.44
1028.87
919.975
810.68
703.052
599.154
500.91
409.996
327.835
255.668
194.688
146.105
111.048
90.1625
1812.91
1808.29
1791.14
1761.68
1720.26
1667.36
1603.62
1529.77
1446.69
1355.41
1257.07
1153
1044.73
934.025
822.85
713.321
607.565
507.568
415.06
331.5
258.149
196.212
146.909
111.373
90.2328
)
;

boundaryField
{
    outletCentralUnloaded
    {
        type            zeroGradient;
    }
    inletCentralUnloaded
    {
        type            zeroGradient;
    }
    outletFuelElement
    {
        type            zeroGradient;
    }
    inletFuelElement
    {
        type            zeroGradient;
    }
    defaultFaces
    {
        type            zeroGradient;
    }
}


// ************************************************************************* //
