/*--------------------------------*- C++ -*----------------------------------*\
| =========                 |                                                 |
| \\      /  F ield         | OpenFOAM: The Open Source CFD Toolbox           |
|  \\    /   O peration     | Version:  2212                                  |
|   \\  /    A nd           | Website:  www.openfoam.com                      |
|    \\/     M anipulation  |                                                 |
\*---------------------------------------------------------------------------*/
FoamFile
{
    version     2.0;
    format      ascii;
    arch        "LSB;label=32;scalar=64";
    class       volScalarField;
    location    "12/fluidRegion";
    object      deltaT;
}
// * * * * * * * * * * * * * * * * * * * * * * * * * * * * * * * * * * * * * //

dimensions      [0 0 0 1 0 0 0];

internalField   nonuniform List<scalar> 
350
(
0
0
0
0
0
0
0
0
0
0
0
0
0
0
0
0
0
0
0
0
0
0
0
0
0
0
0
0
0
0
0
0
0
0
0
0
0
0
0
0
0
0
0
0
0
0
0
0
0
0
0
8.82836
30.8071
52.6858
74.3719
95.7703
116.781
137.293
157.186
176.321
194.541
211.667
227.487
241.754
254.17
264.365
271.869
276.07
276.172
271.151
259.746
240.538
212.182
173.861
126.774
0
8.40264
30.5883
52.6731
74.5646
96.1676
117.381
138.096
158.189
177.521
195.933
213.242
229.236
243.663
256.221
266.537
274.133
278.392
278.503
273.429
261.886
242.431
213.694
174.852
127.124
0
8.90049
30.8457
52.691
74.3439
95.7092
116.686
137.166
157.026
176.13
194.32
211.416
227.208
241.45
253.844
264.021
271.51
275.704
275.805
270.794
259.412
240.246
211.95
173.71
126.72
0
8.49641
30.6346
52.6722
74.5166
96.0727
117.24
137.908
157.955
177.242
195.61
212.878
228.831
243.222
255.748
266.036
273.611
277.856
277.965
272.904
261.392
241.994
213.345
174.623
127.043
0
8.49641
30.6346
52.6722
74.5165
96.0727
117.24
137.908
157.955
177.242
195.61
212.878
228.831
243.222
255.748
266.036
273.611
277.856
277.965
272.904
261.392
241.994
213.345
174.623
127.043
0
8.90047
30.8457
52.691
74.3438
95.7091
116.686
137.166
157.026
176.13
194.32
211.416
227.208
241.45
253.844
264.021
271.51
275.704
275.805
270.794
259.412
240.246
211.95
173.71
126.72
0
8.40263
30.5883
52.6731
74.5646
96.1676
117.381
138.096
158.189
177.521
195.933
213.242
229.236
243.663
256.221
266.537
274.133
278.392
278.503
273.429
261.886
242.431
213.695
174.852
127.124
0
8.82836
30.8072
52.6858
74.3719
95.7703
116.781
137.293
157.186
176.321
194.541
211.667
227.487
241.754
254.17
264.365
271.869
276.07
276.172
271.151
259.745
240.538
212.182
173.861
126.774
0
8.49642
30.6346
52.6722
74.5165
96.0727
117.24
137.908
157.955
177.242
195.61
212.878
228.831
243.222
255.748
266.036
273.611
277.856
277.965
272.904
261.392
241.994
213.345
174.623
127.043
0
8.9005
30.8458
52.6911
74.3438
95.7092
116.686
137.166
157.026
176.13
194.32
211.416
227.208
241.45
253.844
264.021
271.51
275.704
275.805
270.794
259.412
240.246
211.95
173.71
126.72
0
8.90047
30.8457
52.691
74.3438
95.7091
116.686
137.166
157.026
176.13
194.32
211.416
227.208
241.45
253.844
264.021
271.51
275.704
275.805
270.794
259.412
240.246
211.95
173.71
126.72
0
8.49641
30.6346
52.6722
74.5166
96.0727
117.24
137.908
157.955
177.242
195.61
212.878
228.831
243.222
255.748
266.036
273.611
277.856
277.965
272.904
261.392
241.994
213.345
174.623
127.043
)
;

boundaryField
{
    outletCentralUnloaded
    {
        type            calculated;
        value           uniform 0;
    }
    inletCentralUnloaded
    {
        type            calculated;
        value           uniform 0;
    }
    outletFuelElement
    {
        type            calculated;
        value           uniform 0;
    }
    inletFuelElement
    {
        type            calculated;
        value           uniform 616.7;
    }
    defaultFaces
    {
        type            calculated;
        value           nonuniform List<scalar> 
450
(
0
0
0
0
0
0
0
0
0
0
0
0
0
0
0
0
0
0
0
0
0
0
0
0
15.1557
15.1557
15.1557
52.3005
52.3005
52.3005
92.674
92.674
92.674
135.618
135.618
135.618
180.428
180.428
180.428
226.367
226.367
226.367
272.683
272.683
272.683
318.629
318.629
318.629
363.469
363.469
363.469
406.496
406.496
406.496
447.035
447.035
447.035
484.452
484.452
484.452
518.157
518.157
518.157
547.633
547.633
547.633
572.457
572.457
572.457
592.348
592.348
592.348
607.196
607.196
607.196
0
0
0
0
0
0
0
0
0
0
0
0
0
0
0
0
16.3306
16.3306
53.4019
53.4019
93.6919
93.6919
136.545
136.545
181.257
181.257
227.095
227.095
273.31
273.31
319.156
319.156
363.9
363.9
406.838
406.838
447.296
447.296
484.641
484.641
518.285
518.285
547.712
547.712
572.499
572.499
592.366
592.366
607.2
607.2
0
0
0
0
0
0
0
0
9.51669
46.9981
87.7588
131.132
176.4
222.817
269.618
316.042
361.345
404.806
445.743
483.512
517.517
547.236
572.244
592.259
607.176
0
0
0
0
0
0
0
0
9.5167
46.9981
87.7588
131.132
176.4
222.817
269.618
316.042
361.345
404.806
445.743
483.512
517.517
547.236
572.244
592.259
607.176
0
0
0
0
0
0
0
0
0
0
0
0
0
0
0
0
16.3305
16.3305
53.4018
53.4018
93.6918
93.6918
136.544
136.544
181.257
181.257
227.095
227.095
273.31
273.31
319.156
319.156
363.9
363.9
406.838
406.838
447.295
447.295
484.641
484.641
518.285
518.285
547.712
547.712
572.499
572.499
592.366
592.366
607.2
607.2
0
0
0
0
0
0
0
0
0
0
0
0
0
0
0
0
0
0
0
0
0
0
0
0
15.1557
15.1557
15.1557
52.3005
52.3005
52.3005
92.674
92.674
92.674
135.618
135.618
135.618
180.428
180.428
180.428
226.367
226.367
226.367
272.683
272.683
272.683
318.629
318.629
318.629
363.469
363.469
363.469
406.496
406.496
406.496
447.035
447.035
447.035
484.452
484.452
484.452
518.157
518.157
518.157
547.633
547.633
547.633
572.457
572.457
572.457
592.348
592.348
592.348
607.196
607.196
607.196
0
0
0
0
0
0
0
0
9.51671
46.9981
87.7588
131.132
176.4
222.817
269.618
316.042
361.345
404.806
445.743
483.512
517.517
547.236
572.244
592.259
607.176
0
0
0
0
0
0
0
0
0
0
0
0
0
0
0
0
16.3306
16.3306
53.4019
53.4019
93.6919
93.6919
136.545
136.545
181.257
181.257
227.095
227.095
273.31
273.31
319.156
319.156
363.9
363.9
406.838
406.838
447.296
447.296
484.641
484.641
518.285
518.285
547.712
547.712
572.499
572.499
592.366
592.366
607.2
607.2
0
0
0
0
0
0
0
0
0
0
0
0
0
0
0
0
16.3305
16.3305
53.4018
53.4018
93.6918
93.6918
136.544
136.544
181.257
181.257
227.095
227.095
273.31
273.31
319.156
319.156
363.9
363.9
406.838
406.838
447.295
447.295
484.641
484.641
518.285
518.285
547.712
547.712
572.499
572.499
592.366
592.366
607.2
607.2
0
0
0
0
0
0
0
0
9.51673
46.9981
87.7588
131.132
176.4
222.817
269.618
316.042
361.345
404.806
445.743
483.512
517.517
547.236
572.244
592.259
607.176
)
;
    }
    baffle_master
    {
        type            calculated;
        value           uniform 0;
    }
    baffle_slave
    {
        type            calculated;
        value           nonuniform List<scalar> 
150
(
0
0
0
0
0
0
0
0
0
0
0
0
0
0
0
0
0
0
0
0
0
0
0
0
7.85179
9.51669
9.51673
45.4299
46.9981
46.9981
86.3028
87.7588
87.7588
129.8
131.132
131.132
175.204
176.4
176.4
221.761
222.817
222.817
268.705
269.618
269.618
315.271
316.042
316.042
360.711
361.345
361.345
404.301
404.806
404.806
445.356
445.743
445.743
483.23
483.512
483.512
517.325
517.517
517.517
547.117
547.236
547.236
572.18
572.244
572.244
592.233
592.259
592.259
607.171
607.176
607.176
0
0
0
0
0
0
0
0
0
0
0
0
0
0
0
0
0
0
0
0
0
0
0
0
9.5167
7.85181
9.51671
46.9981
45.4299
46.9981
87.7588
86.3028
87.7588
131.132
129.8
131.132
176.4
175.204
176.4
222.817
221.761
222.817
269.618
268.705
269.618
316.042
315.271
316.042
361.345
360.711
361.345
404.806
404.301
404.806
445.743
445.356
445.743
483.512
483.23
483.512
517.517
517.325
517.517
547.236
547.117
547.236
572.244
572.18
572.244
592.259
592.233
592.259
607.176
607.171
607.176
)
;
    }
}


// ************************************************************************* //
