/*--------------------------------*- C++ -*----------------------------------*\
| =========                 |                                                 |
| \\      /  F ield         | OpenFOAM: The Open Source CFD Toolbox           |
|  \\    /   O peration     | Version:  2212                                  |
|   \\  /    A nd           | Website:  www.openfoam.com                      |
|    \\/     M anipulation  |                                                 |
\*---------------------------------------------------------------------------*/
FoamFile
{
    version     2.0;
    format      ascii;
    arch        "LSB;label=32;scalar=64";
    class       volScalarField;
    location    "12/fluidRegion";
    object      epsilon;
}
// * * * * * * * * * * * * * * * * * * * * * * * * * * * * * * * * * * * * * //

dimensions      [0 2 -3 0 0 0 0];

internalField   nonuniform List<scalar> 
350
(
65.9526
65.9366
65.9206
65.9046
65.8887
65.873
65.8573
65.8419
65.8268
65.8121
65.7981
65.7852
65.7739
65.765
65.7599
65.7605
65.7699
65.7927
65.8359
65.9103
66.0326
66.2278
66.5345
67.0118
67.7494
65.9526
65.9366
65.9206
65.9046
65.8887
65.873
65.8573
65.8419
65.8268
65.8121
65.7981
65.7852
65.7739
65.765
65.7599
65.7605
65.7699
65.7927
65.8359
65.9103
66.0326
66.2278
66.5345
67.0118
67.7494
515875
496466
469752
435653
395868
352288
306859
261448
217718
177044
140443
108558
81661.4
59699.8
42354.1
29117.1
19371.7
12462.8
7757.13
4686.33
2773.23
1641.62
1014.56
702.762
588.36
522820
503301
476352
441871
401584
357414
311339
265260
220873
179578
142417
110045
82742.7
60456.1
42861.1
29441.5
19568.5
12575.2
7816.97
4715.6
2786.14
1646.63
1016.24
703.313
588.712
514713
495329
468659
434627
394927
351446
306125
260824
217203
176630
140121
108316
81485.4
59576.5
42271.3
29063.9
19339.2
12444
7746.92
4681.17
2770.83
1640.61
1014.2
702.681
588.405
521289
501789
474887
440487
400309
356267
310335
264403
220163
179006
141971
109708
82497.6
60284.4
42745.9
29367.7
19523.7
12549.6
7803.35
4708.95
2783.21
1645.5
1015.86
703.185
588.621
521289
501789
474887
440487
400309
356267
310335
264403
220163
179006
141971
109708
82497.6
60284.4
42745.9
29367.7
19523.7
12549.6
7803.35
4708.95
2783.21
1645.5
1015.86
703.185
588.621
514713
495330
468660
434627
394927
351446
306125
260824
217203
176630
140121
108316
81485.4
59576.5
42271.3
29063.9
19339.2
12444
7746.91
4681.17
2770.83
1640.61
1014.2
702.682
588.407
522820
503301
476352
441871
401584
357414
311339
265260
220873
179578
142417
110045
82742.7
60456.1
42861.1
29441.5
19568.5
12575.2
7816.97
4715.61
2786.14
1646.63
1016.24
703.313
588.712
515875
496466
469752
435653
395868
352287
306859
261448
217718
177043
140443
108558
81661.4
59699.8
42354.1
29117.1
19371.7
12462.8
7757.13
4686.33
2773.23
1641.62
1014.56
702.761
588.359
521289
501789
474887
440487
400309
356267
310335
264403
220163
179006
141971
109708
82497.6
60284.4
42745.9
29367.7
19523.7
12549.6
7803.35
4708.95
2783.21
1645.5
1015.86
703.185
588.621
514712
495329
468659
434627
394927
351446
306125
260824
217203
176630
140121
108316
81485.4
59576.5
42271.3
29063.9
19339.2
12444
7746.92
4681.17
2770.83
1640.61
1014.2
702.68
588.403
514713
495329
468660
434627
394927
351446
306125
260824
217203
176630
140121
108316
81485.4
59576.5
42271.3
29063.9
19339.2
12444
7746.91
4681.17
2770.83
1640.61
1014.2
702.682
588.407
521289
501789
474887
440487
400309
356267
310335
264403
220163
179006
141971
109708
82497.6
60284.4
42745.9
29367.7
19523.7
12549.6
7803.35
4708.95
2783.21
1645.5
1015.86
703.184
588.62
)
;

boundaryField
{
    outletCentralUnloaded
    {
        type            zeroGradient;
    }
    inletCentralUnloaded
    {
        type            zeroGradient;
    }
    outletFuelElement
    {
        type            zeroGradient;
    }
    inletFuelElement
    {
        type            zeroGradient;
    }
    defaultFaces
    {
        type            zeroGradient;
    }
    baffle_master
    {
        type            zeroGradient;
    }
    baffle_slave
    {
        type            zeroGradient;
    }
}


// ************************************************************************* //
