/*--------------------------------*- C++ -*----------------------------------*\
| =========                 |                                                 |
| \\      /  F ield         | OpenFOAM: The Open Source CFD Toolbox           |
|  \\    /   O peration     | Version:  2212                                  |
|   \\  /    A nd           | Website:  www.openfoam.com                      |
|    \\/     M anipulation  |                                                 |
\*---------------------------------------------------------------------------*/
FoamFile
{
    version     2.0;
    format      ascii;
    arch        "LSB;label=32;scalar=64";
    class       volScalarField;
    location    "12/fluidRegion";
    object      hdeltaT;
}
// * * * * * * * * * * * * * * * * * * * * * * * * * * * * * * * * * * * * * //

dimensions      [1 0 -3 0 0 0 0];

internalField   nonuniform List<scalar> 
350
(
0
0
0
0
0
0
0
0
0
0
0
0
0
0
0
0
0
0
0
0
0
0
0
0
0
0
0
0
0
0
0
0
0
0
0
0
0
0
0
0
0
0
0
0
0
0
0
0
0
0
0
127199
443140
753352
1.05254e+06
1.3356e+06
1.59771e+06
1.83441e+06
2.04163e+06
2.21582e+06
2.35396e+06
2.45362e+06
2.51302e+06
2.53109e+06
2.50751e+06
2.44278e+06
2.33826e+06
2.19625e+06
2.02008e+06
1.81421e+06
1.58418e+06
1.3366e+06
1.07855e+06
816706
555786
0
121237
440633
754279
1.05682e+06
1.3431e+06
1.60824e+06
1.84773e+06
2.05745e+06
2.2338e+06
2.37373e+06
2.47476e+06
2.53511e+06
2.55367e+06
2.5301e+06
2.4649e+06
2.35942e+06
2.21599e+06
2.03795e+06
1.82984e+06
1.59725e+06
1.34688e+06
1.08594e+06
821142
557264
0
128209
443593
753251
1.0519e+06
1.33444e+06
1.59606e+06
1.8323e+06
2.03912e+06
2.21296e+06
2.35081e+06
2.45024e+06
2.50948e+06
2.52748e+06
2.5039e+06
2.43924e+06
2.33487e+06
2.19309e+06
2.01721e+06
1.8117e+06
1.58207e+06
1.33494e+06
1.07736e+06
815985
555545
0
122551
441157
754019
1.05579e+06
1.34134e+06
1.60579e+06
1.84463e+06
2.05379e+06
2.22965e+06
2.36917e+06
2.46989e+06
2.53002e+06
2.54847e+06
2.5249e+06
2.45981e+06
2.35455e+06
2.21145e+06
2.03384e+06
1.82624e+06
1.59424e+06
1.34452e+06
1.08424e+06
820122
556924
0
122551
441158
754019
1.05579e+06
1.34134e+06
1.60579e+06
1.84463e+06
2.05379e+06
2.22965e+06
2.36917e+06
2.46989e+06
2.53002e+06
2.54847e+06
2.5249e+06
2.45981e+06
2.35455e+06
2.21145e+06
2.03384e+06
1.82624e+06
1.59424e+06
1.34452e+06
1.08424e+06
820122
556924
0
128208
443593
753251
1.0519e+06
1.33444e+06
1.59606e+06
1.8323e+06
2.03912e+06
2.21296e+06
2.35081e+06
2.45024e+06
2.50948e+06
2.52748e+06
2.5039e+06
2.43924e+06
2.33487e+06
2.19309e+06
2.01721e+06
1.8117e+06
1.58207e+06
1.33494e+06
1.07736e+06
815984
555545
0
121237
440633
754280
1.05682e+06
1.3431e+06
1.60824e+06
1.84773e+06
2.05745e+06
2.2338e+06
2.37373e+06
2.47476e+06
2.53511e+06
2.55367e+06
2.5301e+06
2.4649e+06
2.35942e+06
2.21599e+06
2.03795e+06
1.82984e+06
1.59725e+06
1.34688e+06
1.08594e+06
821142
557264
0
127199
443141
753353
1.05254e+06
1.3356e+06
1.59771e+06
1.83441e+06
2.04163e+06
2.21582e+06
2.35396e+06
2.45362e+06
2.51302e+06
2.53109e+06
2.50751e+06
2.44279e+06
2.33826e+06
2.19625e+06
2.02008e+06
1.81421e+06
1.58418e+06
1.3366e+06
1.07856e+06
816706
555786
0
122551
441158
754019
1.05579e+06
1.34134e+06
1.60579e+06
1.84463e+06
2.05379e+06
2.22965e+06
2.36917e+06
2.46989e+06
2.53002e+06
2.54847e+06
2.5249e+06
2.45981e+06
2.35455e+06
2.21145e+06
2.03384e+06
1.82624e+06
1.59424e+06
1.34452e+06
1.08424e+06
820122
556924
0
128209
443593
753251
1.0519e+06
1.33444e+06
1.59606e+06
1.8323e+06
2.03912e+06
2.21296e+06
2.35081e+06
2.45024e+06
2.50948e+06
2.52748e+06
2.5039e+06
2.43924e+06
2.33487e+06
2.19309e+06
2.01721e+06
1.8117e+06
1.58207e+06
1.33494e+06
1.07736e+06
815985
555545
0
128208
443593
753251
1.0519e+06
1.33444e+06
1.59606e+06
1.8323e+06
2.03912e+06
2.21296e+06
2.35081e+06
2.45024e+06
2.50948e+06
2.52748e+06
2.5039e+06
2.43924e+06
2.33487e+06
2.19309e+06
2.01721e+06
1.8117e+06
1.58207e+06
1.33494e+06
1.07736e+06
815984
555545
0
122551
441158
754019
1.05579e+06
1.34134e+06
1.60579e+06
1.84463e+06
2.05379e+06
2.22965e+06
2.36917e+06
2.46989e+06
2.53002e+06
2.54847e+06
2.5249e+06
2.45981e+06
2.35455e+06
2.21145e+06
2.03384e+06
1.82624e+06
1.59424e+06
1.34452e+06
1.08424e+06
820122
556924
)
;

boundaryField
{
    outletCentralUnloaded
    {
        type            calculated;
        value           uniform 0;
    }
    inletCentralUnloaded
    {
        type            calculated;
        value           uniform 0;
    }
    outletFuelElement
    {
        type            calculated;
        value           uniform 0;
    }
    inletFuelElement
    {
        type            calculated;
        value           nonuniform List<scalar> 
12
(
2.70366e+06
2.70338e+06
2.70364e+06
2.70345e+06
2.70345e+06
2.70363e+06
2.70338e+06
2.70366e+06
2.70345e+06
2.70364e+06
2.70363e+06
2.70345e+06
)
;
    }
    defaultFaces
    {
        type            calculated;
        value           nonuniform List<scalar> 
450
(
0
0
0
0
0
0
0
0
0
0
0
0
0
0
0
0
0
0
0
0
0
0
0
0
196852
196852
196852
657260
657260
657260
1.12136e+06
1.12136e+06
1.12136e+06
1.57207e+06
1.57207e+06
1.57207e+06
1.99316e+06
1.99316e+06
1.99316e+06
2.36999e+06
2.36999e+06
2.36999e+06
2.69016e+06
2.69016e+06
2.69016e+06
2.94419e+06
2.94419e+06
2.94419e+06
3.12609e+06
3.12609e+06
3.12609e+06
3.23385e+06
3.23385e+06
3.23385e+06
3.26988e+06
3.26988e+06
3.26988e+06
3.24135e+06
3.24135e+06
3.24135e+06
3.16022e+06
3.16022e+06
3.16022e+06
3.04303e+06
3.04303e+06
3.04303e+06
2.90989e+06
2.90989e+06
2.90989e+06
2.78253e+06
2.78253e+06
2.78253e+06
2.662e+06
2.662e+06
2.662e+06
0
0
0
0
0
0
0
0
0
0
0
0
0
0
0
0
212067
212067
670962
670962
1.13345e+06
1.13345e+06
1.58251e+06
1.58251e+06
2.00196e+06
2.00196e+06
2.37721e+06
2.37721e+06
2.69591e+06
2.69591e+06
2.94863e+06
2.94863e+06
3.12939e+06
3.12939e+06
3.2362e+06
3.2362e+06
3.27148e+06
3.27148e+06
3.24239e+06
3.24239e+06
3.16086e+06
3.16086e+06
3.04339e+06
3.04339e+06
2.91006e+06
2.91006e+06
2.78257e+06
2.78257e+06
2.66199e+06
2.66199e+06
0
0
0
0
0
0
0
0
123739
591221
1.0629e+06
1.52144e+06
1.95033e+06
2.33466e+06
2.66184e+06
2.92218e+06
3.10954e+06
3.22184e+06
3.26145e+06
3.2356e+06
3.15636e+06
3.04045e+06
2.9082e+06
2.78156e+06
2.6617e+06
0
0
0
0
0
0
0
0
123739
591221
1.0629e+06
1.52144e+06
1.95033e+06
2.33466e+06
2.66184e+06
2.92218e+06
3.10954e+06
3.22184e+06
3.26145e+06
3.2356e+06
3.15636e+06
3.04045e+06
2.9082e+06
2.78156e+06
2.6617e+06
0
0
0
0
0
0
0
0
0
0
0
0
0
0
0
0
212066
212066
670961
670961
1.13345e+06
1.13345e+06
1.5825e+06
1.5825e+06
2.00196e+06
2.00196e+06
2.3772e+06
2.3772e+06
2.69591e+06
2.69591e+06
2.94863e+06
2.94863e+06
3.12939e+06
3.12939e+06
3.2362e+06
3.2362e+06
3.27148e+06
3.27148e+06
3.24239e+06
3.24239e+06
3.16086e+06
3.16086e+06
3.04339e+06
3.04339e+06
2.91006e+06
2.91006e+06
2.78257e+06
2.78257e+06
2.66199e+06
2.66199e+06
0
0
0
0
0
0
0
0
0
0
0
0
0
0
0
0
0
0
0
0
0
0
0
0
196852
196852
196852
657260
657260
657260
1.12136e+06
1.12136e+06
1.12136e+06
1.57207e+06
1.57207e+06
1.57207e+06
1.99316e+06
1.99316e+06
1.99316e+06
2.36999e+06
2.36999e+06
2.36999e+06
2.69016e+06
2.69016e+06
2.69016e+06
2.94419e+06
2.94419e+06
2.94419e+06
3.12609e+06
3.12609e+06
3.12609e+06
3.23385e+06
3.23385e+06
3.23385e+06
3.26988e+06
3.26988e+06
3.26988e+06
3.24135e+06
3.24135e+06
3.24135e+06
3.16022e+06
3.16022e+06
3.16022e+06
3.04303e+06
3.04303e+06
3.04303e+06
2.90989e+06
2.90989e+06
2.90989e+06
2.78253e+06
2.78253e+06
2.78253e+06
2.662e+06
2.662e+06
2.662e+06
0
0
0
0
0
0
0
0
123740
591221
1.06291e+06
1.52144e+06
1.95033e+06
2.33466e+06
2.66184e+06
2.92218e+06
3.10954e+06
3.22184e+06
3.26145e+06
3.2356e+06
3.15636e+06
3.04045e+06
2.9082e+06
2.78156e+06
2.6617e+06
0
0
0
0
0
0
0
0
0
0
0
0
0
0
0
0
212068
212068
670962
670962
1.13345e+06
1.13345e+06
1.58251e+06
1.58251e+06
2.00196e+06
2.00196e+06
2.37721e+06
2.37721e+06
2.69591e+06
2.69591e+06
2.94863e+06
2.94863e+06
3.12939e+06
3.12939e+06
3.2362e+06
3.2362e+06
3.27148e+06
3.27148e+06
3.24239e+06
3.24239e+06
3.16086e+06
3.16086e+06
3.04339e+06
3.04339e+06
2.91006e+06
2.91006e+06
2.78257e+06
2.78257e+06
2.66199e+06
2.66199e+06
0
0
0
0
0
0
0
0
0
0
0
0
0
0
0
0
212066
212066
670961
670961
1.13345e+06
1.13345e+06
1.5825e+06
1.5825e+06
2.00196e+06
2.00196e+06
2.3772e+06
2.3772e+06
2.69591e+06
2.69591e+06
2.94863e+06
2.94863e+06
3.12939e+06
3.12939e+06
3.2362e+06
3.2362e+06
3.27148e+06
3.27148e+06
3.24239e+06
3.24239e+06
3.16086e+06
3.16086e+06
3.04339e+06
3.04339e+06
2.91006e+06
2.91006e+06
2.78257e+06
2.78257e+06
2.66199e+06
2.66199e+06
0
0
0
0
0
0
0
0
123740
591222
1.06291e+06
1.52144e+06
1.95033e+06
2.33466e+06
2.66184e+06
2.92218e+06
3.10954e+06
3.22184e+06
3.26145e+06
3.2356e+06
3.15636e+06
3.04045e+06
2.9082e+06
2.78156e+06
2.6617e+06
)
;
    }
    baffle_master
    {
        type            calculated;
        value           uniform 0;
    }
    baffle_slave
    {
        type            calculated;
        value           nonuniform List<scalar> 
150
(
0
0
0
0
0
0
0
0
0
0
0
0
0
0
0
0
0
0
0
0
0
0
0
0
102123
123739
123740
571660
591221
591222
1.04556e+06
1.0629e+06
1.06291e+06
1.50639e+06
1.52144e+06
1.52144e+06
1.93757e+06
1.95033e+06
1.95033e+06
2.32413e+06
2.33466e+06
2.33466e+06
2.65337e+06
2.66184e+06
2.66184e+06
2.91558e+06
2.92218e+06
2.92218e+06
3.10457e+06
3.10954e+06
3.10954e+06
3.21822e+06
3.22184e+06
3.22184e+06
3.25891e+06
3.26145e+06
3.26145e+06
3.23386e+06
3.2356e+06
3.2356e+06
3.15517e+06
3.15636e+06
3.15636e+06
3.03965e+06
3.04045e+06
3.04045e+06
2.90766e+06
2.9082e+06
2.9082e+06
2.78125e+06
2.78156e+06
2.78156e+06
2.6616e+06
2.6617e+06
2.6617e+06
0
0
0
0
0
0
0
0
0
0
0
0
0
0
0
0
0
0
0
0
0
0
0
0
123739
102123
123740
591221
571660
591221
1.0629e+06
1.04556e+06
1.06291e+06
1.52144e+06
1.50639e+06
1.52144e+06
1.95033e+06
1.93757e+06
1.95033e+06
2.33466e+06
2.32413e+06
2.33466e+06
2.66184e+06
2.65337e+06
2.66184e+06
2.92218e+06
2.91558e+06
2.92218e+06
3.10954e+06
3.10457e+06
3.10954e+06
3.22184e+06
3.21822e+06
3.22184e+06
3.26145e+06
3.25891e+06
3.26145e+06
3.2356e+06
3.23386e+06
3.2356e+06
3.15636e+06
3.15517e+06
3.15636e+06
3.04045e+06
3.03965e+06
3.04045e+06
2.9082e+06
2.90766e+06
2.9082e+06
2.78156e+06
2.78125e+06
2.78156e+06
2.6617e+06
2.6616e+06
2.6617e+06
)
;
    }
}


// ************************************************************************* //
