/*--------------------------------*- C++ -*----------------------------------*\
| =========                 |                                                 |
| \\      /  F ield         | OpenFOAM: The Open Source CFD Toolbox           |
|  \\    /   O peration     | Version:  2212                                  |
|   \\  /    A nd           | Website:  www.openfoam.com                      |
|    \\/     M anipulation  |                                                 |
\*---------------------------------------------------------------------------*/
FoamFile
{
    version     2.0;
    format      ascii;
    arch        "LSB;label=32;scalar=64";
    class       volScalarField;
    location    "12/fluidRegion";
    object      heatFlux.structure;
}
// * * * * * * * * * * * * * * * * * * * * * * * * * * * * * * * * * * * * * //

dimensions      [1 0 -3 0 0 0 0];

internalField   nonuniform List<scalar> 
350
(
-257089
-257092
-257095
-257098
-257101
-257104
-257107
-257110
-257113
-257116
-257119
-257122
-257125
-257128
-257131
-257134
-257137
-257140
-257143
-257146
-257149
-257152
-257155
-257158
-258195
-257089
-257092
-257095
-257098
-257101
-257104
-257107
-257110
-257113
-257116
-257119
-257122
-257125
-257128
-257131
-257134
-257137
-257140
-257143
-257146
-257149
-257152
-257155
-257158
-258195
-188225
128084
444024
754222
1.05338e+06
1.33641e+06
1.59848e+06
1.83511e+06
2.04228e+06
2.21641e+06
2.35447e+06
2.45406e+06
2.51339e+06
2.5314e+06
2.50777e+06
2.44298e+06
2.33841e+06
2.19636e+06
2.02016e+06
1.81426e+06
1.58421e+06
1.33661e+06
1.07856e+06
816707
555785
-197586
122140
441535
755168
1.05768e+06
1.34393e+06
1.60902e+06
1.84845e+06
2.05811e+06
2.2344e+06
2.37425e+06
2.47522e+06
2.53549e+06
2.55399e+06
2.53036e+06
2.4651e+06
2.35957e+06
2.2161e+06
2.03803e+06
1.82988e+06
1.59728e+06
1.3469e+06
1.08594e+06
821143
557263
-186668
129090
444473
754117
1.05274e+06
1.33524e+06
1.59682e+06
1.83301e+06
2.03977e+06
2.21354e+06
2.35132e+06
2.45068e+06
2.50986e+06
2.52779e+06
2.50415e+06
2.43944e+06
2.33502e+06
2.1932e+06
2.01729e+06
1.81174e+06
1.5821e+06
1.33495e+06
1.07736e+06
815985
555545
-195494
123451
442056
754903
1.05665e+06
1.34216e+06
1.60656e+06
1.84535e+06
2.05444e+06
2.23024e+06
2.36969e+06
2.47034e+06
2.5304e+06
2.54878e+06
2.52516e+06
2.46001e+06
2.3547e+06
2.21156e+06
2.03392e+06
1.82629e+06
1.59427e+06
1.34453e+06
1.08425e+06
820123
556924
-195494
123451
442056
754903
1.05665e+06
1.34216e+06
1.60656e+06
1.84535e+06
2.05444e+06
2.23024e+06
2.36969e+06
2.47034e+06
2.5304e+06
2.54878e+06
2.52516e+06
2.46001e+06
2.3547e+06
2.21156e+06
2.03392e+06
1.82629e+06
1.59427e+06
1.34453e+06
1.08425e+06
820123
556924
-186668
129090
444473
754117
1.05274e+06
1.33524e+06
1.59682e+06
1.83301e+06
2.03977e+06
2.21354e+06
2.35132e+06
2.45068e+06
2.50986e+06
2.52779e+06
2.50415e+06
2.43944e+06
2.33502e+06
2.1932e+06
2.01729e+06
1.81174e+06
1.5821e+06
1.33495e+06
1.07736e+06
815985
555545
-197586
122140
441536
755168
1.05768e+06
1.34393e+06
1.60902e+06
1.84845e+06
2.05811e+06
2.2344e+06
2.37425e+06
2.47522e+06
2.53549e+06
2.55399e+06
2.53036e+06
2.4651e+06
2.35957e+06
2.2161e+06
2.03803e+06
1.82988e+06
1.59728e+06
1.3469e+06
1.08594e+06
821143
557263
-188225
128084
444024
754222
1.05338e+06
1.33641e+06
1.59848e+06
1.83511e+06
2.04228e+06
2.21641e+06
2.35447e+06
2.45406e+06
2.51339e+06
2.5314e+06
2.50777e+06
2.44298e+06
2.33841e+06
2.19636e+06
2.02016e+06
1.81426e+06
1.58421e+06
1.33661e+06
1.07856e+06
816707
555785
-195494
123451
442056
754903
1.05665e+06
1.34216e+06
1.60656e+06
1.84535e+06
2.05444e+06
2.23024e+06
2.36969e+06
2.47034e+06
2.5304e+06
2.54878e+06
2.52516e+06
2.46001e+06
2.3547e+06
2.21156e+06
2.03392e+06
1.82629e+06
1.59427e+06
1.34453e+06
1.08425e+06
820123
556924
-186668
129090
444473
754117
1.05274e+06
1.33524e+06
1.59682e+06
1.83301e+06
2.03977e+06
2.21354e+06
2.35132e+06
2.45068e+06
2.50986e+06
2.52779e+06
2.50415e+06
2.43944e+06
2.33502e+06
2.1932e+06
2.01729e+06
1.81174e+06
1.5821e+06
1.33495e+06
1.07736e+06
815986
555545
-186668
129090
444473
754117
1.05274e+06
1.33524e+06
1.59682e+06
1.83301e+06
2.03977e+06
2.21354e+06
2.35132e+06
2.45068e+06
2.50986e+06
2.52779e+06
2.50415e+06
2.43944e+06
2.33502e+06
2.1932e+06
2.01729e+06
1.81174e+06
1.5821e+06
1.33495e+06
1.07736e+06
815985
555545
-195494
123451
442056
754903
1.05665e+06
1.34216e+06
1.60656e+06
1.84535e+06
2.05444e+06
2.23024e+06
2.36969e+06
2.47034e+06
2.5304e+06
2.54878e+06
2.52516e+06
2.46001e+06
2.3547e+06
2.21156e+06
2.03392e+06
1.82629e+06
1.59427e+06
1.34453e+06
1.08425e+06
820123
556924
)
;

boundaryField
{
    outletCentralUnloaded
    {
        type            zeroGradient;
    }
    inletCentralUnloaded
    {
        type            zeroGradient;
    }
    outletFuelElement
    {
        type            zeroGradient;
    }
    inletFuelElement
    {
        type            zeroGradient;
    }
    defaultFaces
    {
        type            zeroGradient;
    }
    baffle_master
    {
        type            zeroGradient;
    }
    baffle_slave
    {
        type            zeroGradient;
    }
}


// ************************************************************************* //
