/*--------------------------------*- C++ -*----------------------------------*\
| =========                 |                                                 |
| \\      /  F ield         | OpenFOAM: The Open Source CFD Toolbox           |
|  \\    /   O peration     | Version:  2212                                  |
|   \\  /    A nd           | Website:  www.openfoam.com                      |
|    \\/     M anipulation  |                                                 |
\*---------------------------------------------------------------------------*/
FoamFile
{
    version     2.0;
    format      ascii;
    arch        "LSB;label=32;scalar=64";
    class       volScalarField;
    location    "12/fluidRegion";
    object      k;
}
// * * * * * * * * * * * * * * * * * * * * * * * * * * * * * * * * * * * * * //

dimensions      [0 2 -2 0 0 0 0];

internalField   nonuniform List<scalar> 
350
(
0.416756
0.416689
0.416621
0.416554
0.416488
0.416422
0.416356
0.416292
0.416229
0.416169
0.416112
0.416061
0.416019
0.415991
0.415982
0.416005
0.416076
0.416219
0.416474
0.416898
0.417582
0.418663
0.420351
0.422965
0.426995
0.416756
0.416689
0.416621
0.416554
0.416488
0.416422
0.416356
0.416292
0.416229
0.416169
0.416112
0.416061
0.416019
0.415991
0.415982
0.416005
0.416076
0.416219
0.416474
0.416898
0.417582
0.418663
0.420351
0.422965
0.426995
67.5922
65.8021
63.3194
60.1057
56.2698
51.9379
47.2479
42.3422
37.3622
32.4412
27.6996
23.24
19.1437
15.469
12.2505
9.5004
7.21051
5.35573
3.89783
2.7897
1.97982
1.41624
1.05079
0.842646
0.76135
68.1843
66.3915
63.8981
60.6635
56.7978
52.4288
47.6956
42.7426
37.7128
32.7417
27.9511
23.4453
19.3068
15.5948
12.3444
9.56783
7.25693
5.38612
3.91655
2.80041
1.98541
1.41884
1.05187
0.843124
0.761739
67.4921
65.703
63.2227
60.0128
56.182
51.8565
47.1737
42.2761
37.3043
32.3917
27.6582
23.2062
19.1169
15.4483
12.235
9.48921
7.20275
5.35058
3.89459
2.78779
1.97878
1.41573
1.05059
0.842624
0.761439
68.0549
66.2622
63.7707
60.5403
56.6809
52.3197
47.5958
42.6532
37.6343
32.6742
27.8946
23.3991
19.27
15.5663
12.3231
9.55253
7.24638
5.3792
3.91229
2.79797
1.98414
1.41825
1.05162
0.843009
0.761637
68.0549
66.2622
63.7707
60.5403
56.6809
52.3197
47.5958
42.6532
37.6343
32.6742
27.8946
23.3991
19.27
15.5663
12.3231
9.55253
7.24638
5.3792
3.91229
2.79797
1.98414
1.41825
1.05162
0.843009
0.761637
67.4922
65.7031
63.2227
60.0128
56.182
51.8565
47.1738
42.2761
37.3043
32.3917
27.6582
23.2062
19.1169
15.4483
12.235
9.48921
7.20275
5.35058
3.89459
2.78778
1.97878
1.41573
1.05059
0.842626
0.761442
68.1843
66.3915
63.8981
60.6635
56.7978
52.4288
47.6955
42.7426
37.7128
32.7417
27.9511
23.4453
19.3068
15.5948
12.3444
9.56783
7.25693
5.38612
3.91655
2.80041
1.98541
1.41884
1.05187
0.843124
0.761739
67.5921
65.802
63.3194
60.1057
56.2698
51.9379
47.2479
42.3422
37.3622
32.4412
27.6996
23.24
19.1437
15.469
12.2505
9.50041
7.21052
5.35573
3.89783
2.7897
1.97982
1.41624
1.05079
0.842644
0.761349
68.0549
66.2622
63.7707
60.5403
56.6809
52.3197
47.5958
42.6532
37.6343
32.6742
27.8946
23.3991
19.27
15.5663
12.3231
9.55253
7.24638
5.3792
3.91229
2.79797
1.98414
1.41825
1.05162
0.843009
0.761637
67.4921
65.703
63.2227
60.0127
56.182
51.8565
47.1737
42.2761
37.3043
32.3917
27.6582
23.2062
19.1169
15.4483
12.235
9.48921
7.20275
5.35059
3.89459
2.78779
1.97878
1.41573
1.05059
0.842622
0.761436
67.4921
65.7031
63.2227
60.0128
56.182
51.8565
47.1738
42.2761
37.3043
32.3917
27.6582
23.2062
19.1169
15.4483
12.235
9.48921
7.20275
5.35058
3.89459
2.78779
1.97878
1.41573
1.05059
0.842625
0.761441
68.0549
66.2622
63.7707
60.5403
56.6809
52.3197
47.5958
42.6532
37.6343
32.6742
27.8946
23.3991
19.27
15.5663
12.3231
9.55253
7.24639
5.3792
3.91229
2.79797
1.98414
1.41825
1.05162
0.843007
0.761635
)
;

boundaryField
{
    outletCentralUnloaded
    {
        type            zeroGradient;
    }
    inletCentralUnloaded
    {
        type            zeroGradient;
    }
    outletFuelElement
    {
        type            zeroGradient;
    }
    inletFuelElement
    {
        type            zeroGradient;
    }
    defaultFaces
    {
        type            zeroGradient;
    }
    baffle_master
    {
        type            zeroGradient;
    }
    baffle_slave
    {
        type            zeroGradient;
    }
}


// ************************************************************************* //
