/*--------------------------------*- C++ -*----------------------------------*\
| =========                 |                                                 |
| \\      /  F ield         | OpenFOAM: The Open Source CFD Toolbox           |
|  \\    /   O peration     | Version:  2212                                  |
|   \\  /    A nd           | Website:  www.openfoam.com                      |
|    \\/     M anipulation  |                                                 |
\*---------------------------------------------------------------------------*/
FoamFile
{
    version     2.0;
    format      ascii;
    arch        "LSB;label=32;scalar=64";
    class       volScalarField;
    location    "12/fluidRegion";
    object      Re;
}
// * * * * * * * * * * * * * * * * * * * * * * * * * * * * * * * * * * * * * //

dimensions      [0 0 0 0 0 0 0];

internalField   nonuniform List<scalar> 
350
(
173008
173008
173008
173008
173008
173008
173008
173008
173008
173008
173008
173008
173008
173008
173008
173008
173008
173008
173008
173008
173008
173008
173008
173008
173879
173008
173008
173008
173008
173008
173008
173008
173008
173008
173008
173008
173008
173008
173008
173008
173008
173008
173008
173008
173008
173008
173008
173008
173008
173879
48301.1
48166.8
48169
48170.7
48171.5
48171.5
48170.6
48168.7
48166
48162.2
48157.4
48151.4
48144.3
48135.9
48126.2
48115.4
48104.2
48093.6
48085.9
48085.7
48099.8
48140
48222
48366.8
48170.7
48041.7
47898.2
47893.5
47888.8
47884.3
47880.2
47876.4
47872.8
47869.7
47867
47864.7
47863.1
47862.1
47861.7
47862.2
47863.9
47867.5
47874.5
47887.3
47911
47952.5
48024
48140.4
48320.9
48157.4
48344.7
48211.8
48215.2
48217.7
48219.2
48219.6
48218.9
48217.1
48214.2
48210
48204.5
48197.5
48189.1
48179.1
48167.4
48154.4
48140.3
48126.5
48115.1
48110.6
48119.8
48154.7
48231
48370.5
48171.2
48099.9
47958.6
47955.5
47952.4
47949.3
47946.2
47943.1
47940.1
47937.1
47934.2
47931.5
47929
47926.6
47924.5
47922.8
47921.7
47921.9
47925
47933.1
47951.4
47986.7
48051.1
48159.6
48331.8
48160.6
48099.9
47958.6
47955.5
47952.4
47949.3
47946.2
47943.1
47940.1
47937.1
47934.2
47931.5
47929
47926.6
47924.5
47922.8
47921.7
47921.9
47925
47933.1
47951.4
47986.7
48051.1
48159.6
48331.8
48160.6
48344.8
48211.8
48215.2
48217.7
48219.2
48219.6
48219
48217.2
48214.2
48210
48204.5
48197.5
48189.1
48179.1
48167.4
48154.3
48140.3
48126.5
48115.1
48110.6
48119.8
48154.6
48230.9
48370.4
48171.2
48041.7
47898.2
47893.5
47888.8
47884.3
47880.2
47876.4
47872.8
47869.7
47867
47864.7
47863.1
47862.1
47861.7
47862.2
47863.9
47867.5
47874.5
47887.3
47911
47952.5
48024
48140.4
48320.9
48157.4
48301.1
48166.8
48169
48170.7
48171.5
48171.5
48170.6
48168.7
48166
48162.2
48157.4
48151.4
48144.3
48135.9
48126.2
48115.4
48104.2
48093.6
48085.9
48085.7
48099.8
48140
48222
48366.8
48170.7
48099.9
47958.6
47955.5
47952.4
47949.3
47946.2
47943.1
47940.1
47937.1
47934.2
47931.5
47929
47926.6
47924.5
47922.8
47921.7
47921.9
47925
47933.1
47951.4
47986.7
48051.1
48159.6
48331.8
48160.6
48344.7
48211.8
48215.2
48217.7
48219.2
48219.6
48218.9
48217.1
48214.2
48210
48204.5
48197.5
48189.1
48179.1
48167.4
48154.4
48140.3
48126.5
48115.1
48110.6
48119.8
48154.7
48231
48370.5
48171.2
48344.8
48211.8
48215.2
48217.7
48219.2
48219.6
48219
48217.2
48214.2
48210
48204.5
48197.5
48189.1
48179.1
48167.4
48154.3
48140.3
48126.5
48115.1
48110.6
48119.8
48154.6
48230.9
48370.4
48171.2
48099.9
47958.6
47955.5
47952.4
47949.3
47946.2
47943.1
47940.1
47937.1
47934.2
47931.5
47929
47926.6
47924.5
47922.8
47921.7
47921.9
47925
47933.1
47951.4
47986.7
48051.1
48159.6
48331.8
48160.6
)
;

boundaryField
{
    outletCentralUnloaded
    {
        type            zeroGradient;
    }
    inletCentralUnloaded
    {
        type            zeroGradient;
    }
    outletFuelElement
    {
        type            zeroGradient;
    }
    inletFuelElement
    {
        type            zeroGradient;
    }
    defaultFaces
    {
        type            zeroGradient;
    }
    baffle_master
    {
        type            zeroGradient;
    }
    baffle_slave
    {
        type            zeroGradient;
    }
}


// ************************************************************************* //
