/*--------------------------------*- C++ -*----------------------------------*\
| =========                 |                                                 |
| \\      /  F ield         | OpenFOAM: The Open Source CFD Toolbox           |
|  \\    /   O peration     | Version:  2212                                  |
|   \\  /    A nd           | Website:  www.openfoam.com                      |
|    \\/     M anipulation  |                                                 |
\*---------------------------------------------------------------------------*/
FoamFile
{
    version     2.0;
    format      ascii;
    arch        "LSB;label=32;scalar=64";
    class       volScalarField;
    location    "12/fluidRegion";
    object      T;
}
// * * * * * * * * * * * * * * * * * * * * * * * * * * * * * * * * * * * * * //

dimensions      [0 0 0 1 0 0 0];

internalField   nonuniform List<scalar> 
350
(
83.2879
83.2884
83.2889
83.2894
83.2899
83.2905
83.291
83.2915
83.292
83.2925
83.2931
83.2936
83.2941
83.2946
83.2952
83.2957
83.2962
83.2967
83.2972
83.2977
83.2982
83.2987
83.2992
83.2997
83.3001
83.2879
83.2884
83.2889
83.2894
83.2899
83.2905
83.291
83.2915
83.292
83.2925
83.2931
83.2936
83.2941
83.2946
83.2952
83.2957
83.2962
83.2967
83.2972
83.2977
83.2982
83.2987
83.2992
83.2997
83.3001
810.628
814.1
811.851
803.89
790.312
771.301
747.131
718.163
684.844
647.7
607.326
564.382
519.572
473.633
427.317
381.371
336.531
293.504
252.965
215.548
181.843
152.367
127.543
107.652
92.8041
818.27
822.019
819.96
812.096
798.522
779.42
755.065
725.824
692.148
654.57
613.697
570.2
524.796
478.239
431.295
384.729
339.289
295.699
254.644
216.77
182.675
152.883
127.82
107.767
92.8293
809.361
812.792
810.517
802.546
788.973
769.981
745.846
716.927
683.669
646.598
606.308
563.455
518.743
472.905
426.69
380.844
336.1
293.162
252.704
215.359
181.715
152.288
127.501
107.634
92.8
816.554
820.236
818.13
810.241
796.662
777.577
753.262
724.081
690.483
653.002
612.241
568.868
523.6
477.183
430.382
383.958
338.655
295.194
254.257
216.488
182.483
152.764
127.756
107.741
92.8235
816.554
820.236
818.13
810.241
796.662
777.577
753.262
724.081
690.483
653.002
612.241
568.868
523.6
477.183
430.382
383.958
338.655
295.194
254.257
216.488
182.483
152.764
127.756
107.741
92.8235
809.361
812.792
810.517
802.546
788.973
769.981
745.846
716.927
683.669
646.598
606.308
563.456
518.743
472.905
426.69
380.844
336.1
293.162
252.705
215.359
181.715
152.288
127.501
107.634
92.8
818.27
822.019
819.96
812.096
798.522
779.42
755.065
725.824
692.148
654.57
613.697
570.2
524.796
478.239
431.295
384.729
339.289
295.699
254.644
216.77
182.675
152.883
127.82
107.767
92.8293
810.628
814.1
811.851
803.89
790.312
771.301
747.131
718.163
684.844
647.7
607.326
564.382
519.572
473.633
427.317
381.371
336.531
293.504
252.965
215.548
181.843
152.367
127.543
107.652
92.8041
816.554
820.236
818.13
810.241
796.662
777.577
753.262
724.081
690.483
653.002
612.241
568.868
523.6
477.183
430.382
383.958
338.655
295.194
254.257
216.488
182.483
152.764
127.756
107.741
92.8235
809.361
812.792
810.517
802.546
788.973
769.981
745.846
716.927
683.669
646.598
606.308
563.455
518.743
472.905
426.69
380.844
336.1
293.162
252.704
215.359
181.715
152.288
127.501
107.634
92.8
809.361
812.792
810.517
802.546
788.973
769.981
745.846
716.927
683.669
646.598
606.308
563.456
518.743
472.905
426.69
380.844
336.1
293.162
252.705
215.359
181.715
152.288
127.501
107.634
92.8
816.554
820.236
818.13
810.241
796.662
777.577
753.262
724.081
690.483
653.002
612.241
568.868
523.6
477.183
430.382
383.958
338.655
295.194
254.257
216.488
182.483
152.764
127.756
107.741
92.8235
)
;

boundaryField
{
    outletCentralUnloaded
    {
        type            zeroGradient;
    }
    inletCentralUnloaded
    {
        type            fixedValue;
        value           uniform 83.3;
    }
    outletFuelElement
    {
        type            zeroGradient;
    }
    inletFuelElement
    {
        type            fixedValue;
        value           uniform 83.3;
    }
    defaultFaces
    {
        type            zeroGradient;
    }
    baffle_master
    {
        type            zeroGradient;
    }
    baffle_slave
    {
        type            zeroGradient;
    }
}


// ************************************************************************* //
