/*--------------------------------*- C++ -*----------------------------------*\
| =========                 |                                                 |
| \\      /  F ield         | OpenFOAM: The Open Source CFD Toolbox           |
|  \\    /   O peration     | Version:  2212                                  |
|   \\  /    A nd           | Website:  www.openfoam.com                      |
|    \\/     M anipulation  |                                                 |
\*---------------------------------------------------------------------------*/
FoamFile
{
    version     2.0;
    format      ascii;
    arch        "LSB;label=32;scalar=64";
    class       volScalarField;
    location    "12/fluidRegion";
    object      T.fuelAvForNeutronics;
}
// * * * * * * * * * * * * * * * * * * * * * * * * * * * * * * * * * * * * * //

dimensions      [0 0 0 1 0 0 0];

internalField   nonuniform List<scalar> 
350
(
0
0
0
0
0
0
0
0
0
0
0
0
0
0
0
0
0
0
0
0
0
0
0
0
0
0
0
0
0
0
0
0
0
0
0
0
0
0
0
0
0
0
0
0
0
0
0
0
0
0
814.8
1074.24
1326.31
1567.07
1792.73
1999.78
2184.96
2345.4
2478.58
2582.43
2655.32
2696.12
2704.19
2679.38
2622.07
2533.09
2413.78
2265.9
2091.62
1893.52
1674.45
1437.61
1186.47
924.793
657.408
817.709
1080.17
1335.19
1578.76
1807.05
2016.51
2203.85
2366.15
2500.88
2605.94
2679.68
2720.96
2729.12
2704.04
2646.06
2556.07
2435.4
2285.84
2109.57
1909.21
1687.65
1448.11
1194.09
929.418
658.959
814.327
1073.28
1324.89
1565.2
1790.44
1997.11
2181.95
2342.09
2475.03
2578.68
2651.44
2692.17
2700.22
2675.46
2618.24
2529.43
2410.33
2262.72
2088.76
1891.02
1672.35
1435.95
1185.25
924.056
657.161
817.047
1078.82
1333.15
1576.07
1803.76
2012.66
2199.51
2361.38
2495.75
2600.53
2674.07
2715.24
2723.38
2698.36
2640.54
2550.78
2430.42
2281.25
2105.44
1905.6
1684.61
1445.69
1192.33
928.353
658.602
817.047
1078.82
1333.15
1576.07
1803.76
2012.66
2199.51
2361.38
2495.75
2600.53
2674.07
2715.24
2723.38
2698.36
2640.54
2550.78
2430.42
2281.25
2105.44
1905.6
1684.61
1445.69
1192.33
928.353
658.602
814.327
1073.28
1324.89
1565.2
1790.44
1997.11
2181.95
2342.09
2475.03
2578.68
2651.44
2692.17
2700.22
2675.46
2618.24
2529.43
2410.33
2262.72
2088.76
1891.02
1672.35
1435.95
1185.25
924.056
657.161
817.709
1080.17
1335.19
1578.76
1807.05
2016.51
2203.85
2366.15
2500.88
2605.94
2679.68
2720.96
2729.12
2704.04
2646.06
2556.07
2435.4
2285.83
2109.57
1909.21
1687.65
1448.11
1194.09
929.418
658.959
814.8
1074.24
1326.31
1567.07
1792.73
1999.78
2184.96
2345.4
2478.58
2582.43
2655.32
2696.12
2704.19
2679.38
2622.07
2533.09
2413.78
2265.9
2091.62
1893.52
1674.45
1437.61
1186.47
924.793
657.408
817.047
1078.82
1333.15
1576.07
1803.76
2012.66
2199.51
2361.38
2495.75
2600.53
2674.07
2715.24
2723.38
2698.36
2640.54
2550.78
2430.42
2281.25
2105.44
1905.6
1684.61
1445.69
1192.33
928.353
658.602
814.327
1073.28
1324.89
1565.2
1790.44
1997.11
2181.95
2342.09
2475.03
2578.68
2651.44
2692.17
2700.22
2675.46
2618.24
2529.43
2410.33
2262.72
2088.76
1891.02
1672.35
1435.95
1185.25
924.056
657.161
814.327
1073.28
1324.89
1565.2
1790.44
1997.11
2181.95
2342.09
2475.03
2578.68
2651.44
2692.17
2700.22
2675.46
2618.24
2529.43
2410.33
2262.72
2088.76
1891.02
1672.35
1435.95
1185.25
924.056
657.161
817.047
1078.82
1333.15
1576.07
1803.76
2012.66
2199.51
2361.38
2495.75
2600.53
2674.07
2715.24
2723.38
2698.36
2640.54
2550.78
2430.42
2281.25
2105.44
1905.6
1684.61
1445.69
1192.33
928.353
658.602
)
;

boundaryField
{
    outletCentralUnloaded
    {
        type            zeroGradient;
    }
    inletCentralUnloaded
    {
        type            zeroGradient;
    }
    outletFuelElement
    {
        type            zeroGradient;
    }
    inletFuelElement
    {
        type            zeroGradient;
    }
    defaultFaces
    {
        type            zeroGradient;
    }
    baffle_master
    {
        type            zeroGradient;
    }
    baffle_slave
    {
        type            zeroGradient;
    }
}


// ************************************************************************* //
