/*--------------------------------*- C++ -*----------------------------------*\
| =========                 |                                                 |
| \\      /  F ield         | OpenFOAM: The Open Source CFD Toolbox           |
|  \\    /   O peration     | Version:  2212                                  |
|   \\  /    A nd           | Website:  www.openfoam.com                      |
|    \\/     M anipulation  |                                                 |
\*---------------------------------------------------------------------------*/
FoamFile
{
    version     2.0;
    format      ascii;
    arch        "LSB;label=32;scalar=64";
    class       volScalarField;
    location    "12/fluidRegion";
    object      Tci.nuclearFuelPin;
}
// * * * * * * * * * * * * * * * * * * * * * * * * * * * * * * * * * * * * * //

dimensions      [0 0 0 1 0 0 0];

internalField   nonuniform List<scalar> 
350
(
0
0
0
0
0
0
0
0
0
0
0
0
0
0
0
0
0
0
0
0
0
0
0
0
0
0
0
0
0
0
0
0
0
0
0
0
0
0
0
0
0
0
0
0
0
0
0
0
0
0
794.367
828.162
856.228
878.311
894.275
904.076
907.763
905.471
897.421
883.908
865.294
841.997
814.466
783.164
748.539
710.983
670.798
628.14
582.974
535.026
483.76
428.441
368.323
303.039
234.023
801.168
835.538
864.091
886.568
902.829
912.828
916.613
914.322
906.179
892.484
873.608
849.975
822.047
790.297
755.184
717.113
676.394
633.191
587.468
538.948
487.086
431.129
370.313
304.265
234.439
793.24
826.947
854.939
876.963
892.884
902.658
906.334
904.046
896.015
882.535
863.967
840.726
813.261
782.033
747.487
710.015
669.916
627.347
582.27
534.412
483.242
428.025
368.017
302.85
233.959
799.64
833.875
862.313
884.696
900.885
910.835
914.595
912.301
904.176
890.52
871.702
848.145
820.306
788.658
753.656
715.703
675.106
632.027
586.433
538.044
486.319
430.509
369.854
303.982
234.343
799.64
833.875
862.313
884.696
900.885
910.835
914.595
912.301
904.176
890.52
871.702
848.145
820.306
788.658
753.656
715.703
675.106
632.027
586.433
538.044
486.319
430.509
369.854
303.982
234.343
793.24
826.947
854.939
876.963
892.884
902.658
906.334
904.046
896.015
882.535
863.967
840.726
813.261
782.033
747.487
710.015
669.916
627.347
582.27
534.412
483.242
428.025
368.017
302.85
233.959
801.168
835.538
864.092
886.568
902.829
912.828
916.613
914.322
906.179
892.484
873.608
849.975
822.047
790.297
755.184
717.113
676.394
633.191
587.468
538.948
487.086
431.129
370.313
304.265
234.439
794.367
828.162
856.228
878.311
894.275
904.076
907.763
905.471
897.421
883.908
865.294
841.997
814.466
783.164
748.539
710.983
670.798
628.14
582.974
535.026
483.76
428.441
368.323
303.039
234.023
799.64
833.875
862.313
884.696
900.885
910.835
914.595
912.301
904.176
890.52
871.702
848.145
820.306
788.658
753.656
715.703
675.106
632.027
586.433
538.044
486.319
430.509
369.854
303.982
234.343
793.24
826.947
854.939
876.963
892.884
902.658
906.333
904.046
896.015
882.535
863.967
840.726
813.261
782.033
747.487
710.015
669.916
627.346
582.27
534.412
483.242
428.025
368.017
302.85
233.959
793.24
826.947
854.939
876.963
892.884
902.658
906.334
904.046
896.015
882.535
863.967
840.726
813.261
782.033
747.487
710.015
669.916
627.347
582.27
534.413
483.242
428.025
368.017
302.85
233.959
799.64
833.875
862.313
884.696
900.885
910.835
914.595
912.301
904.176
890.52
871.702
848.145
820.306
788.658
753.656
715.703
675.106
632.027
586.433
538.044
486.319
430.509
369.854
303.982
234.343
)
;

boundaryField
{
    outletCentralUnloaded
    {
        type            zeroGradient;
    }
    inletCentralUnloaded
    {
        type            zeroGradient;
    }
    outletFuelElement
    {
        type            zeroGradient;
    }
    inletFuelElement
    {
        type            zeroGradient;
    }
    defaultFaces
    {
        type            zeroGradient;
    }
    baffle_master
    {
        type            zeroGradient;
    }
    baffle_slave
    {
        type            zeroGradient;
    }
}


// ************************************************************************* //
