/*--------------------------------*- C++ -*----------------------------------*\
| =========                 |                                                 |
| \\      /  F ield         | OpenFOAM: The Open Source CFD Toolbox           |
|  \\    /   O peration     | Version:  2212                                  |
|   \\  /    A nd           | Website:  www.openfoam.com                      |
|    \\/     M anipulation  |                                                 |
\*---------------------------------------------------------------------------*/
FoamFile
{
    version     2.0;
    format      ascii;
    arch        "LSB;label=32;scalar=64";
    class       volScalarField;
    location    "12/fluidRegion";
    object      Tco.nuclearFuelPin;
}
// * * * * * * * * * * * * * * * * * * * * * * * * * * * * * * * * * * * * * //

dimensions      [0 0 0 1 0 0 0];

internalField   nonuniform List<scalar> 
350
(
0
0
0
0
0
0
0
0
0
0
0
0
0
0
0
0
0
0
0
0
0
0
0
0
0
0
0
0
0
0
0
0
0
0
0
0
0
0
0
0
0
0
0
0
0
0
0
0
0
0
797.499
822.928
842.658
856.576
864.684
867.072
863.912
855.456
842.03
824.02
801.867
776.049
747.059
715.388
681.487
645.737
608.4
569.574
529.136
486.699
441.588
392.905
339.725
281.513
219.578
804.509
830.422
850.548
864.77
873.086
875.587
872.447
863.92
850.337
832.091
809.63
783.442
754.032
721.902
687.516
651.266
613.423
574.09
533.147
490.199
444.561
395.314
341.514
282.619
219.954
796.337
821.692
841.363
855.237
863.317
865.691
862.532
854.093
840.696
822.728
800.628
774.871
745.951
714.355
680.534
644.865
607.61
568.866
528.509
486.154
441.127
392.534
339.451
281.345
219.52
802.933
828.733
848.765
862.913
871.179
873.65
870.502
861.989
848.438
830.244
807.851
781.746
752.431
720.405
686.13
649.993
612.266
573.05
532.222
489.392
443.875
394.758
341.101
282.364
219.867
802.933
828.732
848.765
862.913
871.179
873.65
870.502
861.989
848.438
830.244
807.851
781.746
752.431
720.405
686.13
649.993
612.266
573.05
532.222
489.392
443.875
394.758
341.101
282.364
219.867
796.337
821.692
841.363
855.237
863.317
865.691
862.532
854.093
840.696
822.728
800.628
774.871
745.951
714.356
680.534
644.865
607.61
568.866
528.509
486.154
441.128
392.534
339.451
281.345
219.52
804.509
830.422
850.548
864.77
873.086
875.587
872.447
863.92
850.337
832.091
809.63
783.442
754.032
721.902
687.516
651.266
613.423
574.09
533.147
490.199
444.561
395.314
341.514
282.619
219.954
797.499
822.928
842.658
856.576
864.684
867.072
863.912
855.456
842.03
824.02
801.867
776.049
747.059
715.387
681.487
645.737
608.4
569.574
529.136
486.699
441.588
392.905
339.725
281.513
219.578
802.933
828.732
848.765
862.913
871.179
873.65
870.502
861.989
848.438
830.244
807.851
781.746
752.431
720.405
686.13
649.993
612.266
573.05
532.222
489.392
443.875
394.758
341.101
282.364
219.867
796.337
821.692
841.363
855.237
863.317
865.691
862.532
854.093
840.696
822.728
800.628
774.871
745.951
714.355
680.534
644.865
607.61
568.866
528.509
486.154
441.127
392.534
339.451
281.345
219.52
796.337
821.692
841.363
855.237
863.317
865.691
862.532
854.093
840.696
822.728
800.628
774.871
745.951
714.356
680.534
644.865
607.61
568.866
528.509
486.154
441.128
392.534
339.451
281.345
219.52
802.933
828.732
848.765
862.913
871.179
873.65
870.502
861.989
848.438
830.244
807.851
781.746
752.431
720.405
686.13
649.993
612.266
573.05
532.222
489.392
443.875
394.758
341.101
282.364
219.867
)
;

boundaryField
{
    outletCentralUnloaded
    {
        type            zeroGradient;
    }
    inletCentralUnloaded
    {
        type            zeroGradient;
    }
    outletFuelElement
    {
        type            zeroGradient;
    }
    inletFuelElement
    {
        type            zeroGradient;
    }
    defaultFaces
    {
        type            zeroGradient;
    }
    baffle_master
    {
        type            zeroGradient;
    }
    baffle_slave
    {
        type            zeroGradient;
    }
}


// ************************************************************************* //
