/*--------------------------------*- C++ -*----------------------------------*\
| =========                 |                                                 |
| \\      /  F ield         | OpenFOAM: The Open Source CFD Toolbox           |
|  \\    /   O peration     | Version:  2212                                  |
|   \\  /    A nd           | Website:  www.openfoam.com                      |
|    \\/     M anipulation  |                                                 |
\*---------------------------------------------------------------------------*/
FoamFile
{
    version     2.0;
    format      ascii;
    arch        "LSB;label=32;scalar=64";
    class       volScalarField;
    location    "12/fluidRegion";
    object      Tfi.nuclearFuelPin;
}
// * * * * * * * * * * * * * * * * * * * * * * * * * * * * * * * * * * * * * //

dimensions      [0 0 0 1 0 0 0];

internalField   nonuniform List<scalar> 
350
(
0
0
0
0
0
0
0
0
0
0
0
0
0
0
0
0
0
0
0
0
0
0
0
0
0
0
0
0
0
0
0
0
0
0
0
0
0
0
0
0
0
0
0
0
0
0
0
0
0
0
855.846
1179.77
1495.92
1799.29
2085.11
2348.85
2586.35
2793.87
2968.11
3106.34
3206.37
3266.6
3286.09
3264.53
3202.23
3100.2
2960.01
2783.88
2574.58
2335.42
2070.16
1783
1478.47
1161.43
837.236
857.787
1185.43
1505.21
1812.07
2101.16
2367.93
2608.16
2818.06
2994.31
3134.13
3235.31
3296.24
3315.96
3294.16
3231.16
3127.96
2986.17
2808.04
2596.34
2354.45
2086.15
1795.71
1487.7
1167.03
839.11
855.536
1178.87
1494.44
1797.26
2082.55
2345.81
2582.88
2790.01
2963.94
3101.92
3201.76
3261.88
3281.34
3259.81
3197.63
3095.77
2955.84
2780.04
2571.11
2332.39
2067.61
1780.98
1477
1160.54
836.937
857.34
1184.13
1503.07
1809.13
2097.47
2363.54
2603.14
2812.49
2988.28
3127.73
3228.64
3289.42
3309.09
3287.33
3224.5
3121.57
2980.15
2802.48
2591.33
2350.07
2082.47
1792.79
1485.57
1165.74
838.679
857.34
1184.13
1503.07
1809.13
2097.47
2363.54
2603.14
2812.49
2988.28
3127.73
3228.64
3289.42
3309.09
3287.33
3224.5
3121.57
2980.15
2802.48
2591.33
2350.07
2082.47
1792.79
1485.57
1165.74
838.679
855.536
1178.87
1494.44
1797.26
2082.55
2345.81
2582.88
2790.01
2963.94
3101.92
3201.76
3261.88
3281.33
3259.81
3197.63
3095.77
2955.84
2780.04
2571.11
2332.39
2067.61
1780.98
1477
1160.54
836.937
857.787
1185.43
1505.21
1812.07
2101.16
2367.93
2608.16
2818.06
2994.31
3134.13
3235.31
3296.24
3315.96
3294.16
3231.16
3127.96
2986.17
2808.04
2596.34
2354.45
2086.15
1795.71
1487.7
1167.03
839.11
855.846
1179.77
1495.92
1799.29
2085.11
2348.85
2586.35
2793.87
2968.11
3106.34
3206.36
3266.6
3286.09
3264.53
3202.23
3100.2
2960.01
2783.88
2574.58
2335.42
2070.16
1783
1478.47
1161.43
837.236
857.34
1184.13
1503.07
1809.13
2097.47
2363.54
2603.14
2812.49
2988.28
3127.73
3228.64
3289.42
3309.09
3287.33
3224.5
3121.57
2980.15
2802.48
2591.33
2350.07
2082.47
1792.79
1485.57
1165.74
838.679
855.536
1178.87
1494.44
1797.26
2082.55
2345.81
2582.88
2790.01
2963.94
3101.92
3201.76
3261.88
3281.33
3259.81
3197.63
3095.77
2955.84
2780.04
2571.11
2332.39
2067.61
1780.98
1477
1160.54
836.937
855.536
1178.87
1494.44
1797.26
2082.55
2345.81
2582.88
2790.01
2963.94
3101.92
3201.76
3261.88
3281.33
3259.81
3197.63
3095.77
2955.84
2780.04
2571.11
2332.39
2067.61
1780.98
1477
1160.54
836.937
857.34
1184.13
1503.07
1809.13
2097.47
2363.54
2603.14
2812.49
2988.28
3127.73
3228.64
3289.42
3309.09
3287.33
3224.5
3121.57
2980.15
2802.48
2591.33
2350.07
2082.47
1792.79
1485.57
1165.74
838.679
)
;

boundaryField
{
    outletCentralUnloaded
    {
        type            zeroGradient;
    }
    inletCentralUnloaded
    {
        type            zeroGradient;
    }
    outletFuelElement
    {
        type            zeroGradient;
    }
    inletFuelElement
    {
        type            zeroGradient;
    }
    defaultFaces
    {
        type            zeroGradient;
    }
    baffle_master
    {
        type            zeroGradient;
    }
    baffle_slave
    {
        type            zeroGradient;
    }
}


// ************************************************************************* //
