/*--------------------------------*- C++ -*----------------------------------*\
| =========                 |                                                 |
| \\      /  F ield         | OpenFOAM: The Open Source CFD Toolbox           |
|  \\    /   O peration     | Version:  2212                                  |
|   \\  /    A nd           | Website:  www.openfoam.com                      |
|    \\/     M anipulation  |                                                 |
\*---------------------------------------------------------------------------*/
FoamFile
{
    version     2.0;
    format      ascii;
    arch        "LSB;label=32;scalar=64";
    class       volScalarField;
    location    "12/fluidRegion";
    object      Tfo.nuclearFuelPin;
}
// * * * * * * * * * * * * * * * * * * * * * * * * * * * * * * * * * * * * * //

dimensions      [0 0 0 1 0 0 0];

internalField   nonuniform List<scalar> 
350
(
0
0
0
0
0
0
0
0
0
0
0
0
0
0
0
0
0
0
0
0
0
0
0
0
0
0
0
0
0
0
0
0
0
0
0
0
0
0
0
0
0
0
0
0
0
0
0
0
0
0
789.931
946.772
1096.96
1238.2
1368.39
1485.57
1587.99
1674.15
1742.77
1792.87
1823.72
1834.89
1826.25
1797.92
1750.32
1684.08
1600.08
1499.34
1383.05
1252.51
1109.05
954.142
789.368
616.665
439.402
794.559
953.32
1105.34
1248.3
1380.06
1498.65
1602.3
1689.48
1758.91
1809.58
1840.78
1852.07
1843.3
1814.62
1766.44
1699.42
1614.43
1512.53
1394.9
1262.86
1117.77
961.092
794.433
619.747
440.437
789.168
945.705
1095.6
1236.57
1366.51
1483.47
1585.7
1671.7
1740.19
1790.2
1820.99
1832.15
1823.53
1795.27
1747.75
1681.65
1597.8
1497.25
1381.17
1250.86
1107.67
953.041
788.567
616.178
439.238
793.515
951.832
1103.42
1245.99
1377.39
1495.65
1599.02
1685.96
1755.2
1805.74
1836.86
1848.12
1839.38
1810.78
1762.73
1695.89
1611.13
1509.49
1392.17
1260.48
1115.76
959.492
793.266
619.037
440.199
793.515
951.832
1103.42
1245.99
1377.39
1495.65
1599.02
1685.96
1755.2
1805.74
1836.86
1848.12
1839.38
1810.78
1762.73
1695.89
1611.13
1509.49
1392.17
1260.48
1115.76
959.492
793.266
619.037
440.199
789.168
945.705
1095.6
1236.57
1366.51
1483.47
1585.7
1671.7
1740.19
1790.2
1820.99
1832.15
1823.53
1795.27
1747.75
1681.65
1597.8
1497.25
1381.17
1250.86
1107.67
953.042
788.567
616.178
439.238
794.559
953.32
1105.34
1248.3
1380.06
1498.65
1602.3
1689.48
1758.91
1809.58
1840.78
1852.07
1843.3
1814.62
1766.44
1699.42
1614.43
1512.53
1394.9
1262.86
1117.77
961.092
794.433
619.747
440.437
789.931
946.772
1096.96
1238.2
1368.39
1485.57
1587.99
1674.15
1742.77
1792.87
1823.72
1834.89
1826.25
1797.92
1750.32
1684.08
1600.08
1499.34
1383.05
1252.51
1109.05
954.142
789.368
616.665
439.402
793.515
951.832
1103.42
1245.99
1377.39
1495.65
1599.02
1685.96
1755.2
1805.74
1836.86
1848.12
1839.38
1810.78
1762.73
1695.89
1611.13
1509.49
1392.17
1260.48
1115.76
959.492
793.266
619.037
440.199
789.168
945.705
1095.6
1236.57
1366.51
1483.47
1585.7
1671.7
1740.19
1790.2
1820.99
1832.15
1823.53
1795.27
1747.75
1681.65
1597.8
1497.25
1381.17
1250.86
1107.67
953.041
788.567
616.178
439.238
789.168
945.705
1095.6
1236.57
1366.51
1483.47
1585.7
1671.7
1740.19
1790.2
1820.99
1832.15
1823.53
1795.27
1747.75
1681.65
1597.8
1497.25
1381.17
1250.86
1107.67
953.041
788.567
616.178
439.238
793.515
951.832
1103.42
1245.99
1377.39
1495.65
1599.02
1685.96
1755.2
1805.74
1836.86
1848.12
1839.38
1810.78
1762.73
1695.89
1611.13
1509.49
1392.17
1260.48
1115.76
959.492
793.266
619.037
440.199
)
;

boundaryField
{
    outletCentralUnloaded
    {
        type            zeroGradient;
    }
    inletCentralUnloaded
    {
        type            zeroGradient;
    }
    outletFuelElement
    {
        type            zeroGradient;
    }
    inletFuelElement
    {
        type            zeroGradient;
    }
    defaultFaces
    {
        type            zeroGradient;
    }
    baffle_master
    {
        type            zeroGradient;
    }
    baffle_slave
    {
        type            zeroGradient;
    }
}


// ************************************************************************* //
