/*--------------------------------*- C++ -*----------------------------------*\
| =========                 |                                                 |
| \\      /  F ield         | OpenFOAM: The Open Source CFD Toolbox           |
|  \\    /   O peration     | Version:  2212                                  |
|   \\  /    A nd           | Website:  www.openfoam.com                      |
|    \\/     M anipulation  |                                                 |
\*---------------------------------------------------------------------------*/
FoamFile
{
    version     2.0;
    format      ascii;
    arch        "LSB;label=32;scalar=64";
    class       scalarFieldField;
    location    "12/fluidRegion";
    object      Trad.nuclearFuelPin;
}
// * * * * * * * * * * * * * * * * * * * * * * * * * * * * * * * * * * * * * //


350
(
0()
0()
0()
0()
0()
0()
0()
0()
0()
0()
0()
0()
0()
0()
0()
0()
0()
0()
0()
0()
0()
0()
0()
0()
0()
0()
0()
0()
0()
0()
0()
0()
0()
0()
0()
0()
0()
0()
0()
0()
0()
0()
0()
0()
0()
0()
0()
0()
0()
0()

20
(
855.846
855.483
854.382
852.507
849.805
846.219
841.705
836.253
829.914
822.831
815.263
807.615
800.452
794.506
790.664
789.931
794.367
795.367
796.392
797.499
)


20
(
1179.77
1179.16
1177.28
1174.04
1169.26
1162.73
1154.17
1143.29
1129.8
1113.42
1093.9
1071.1
1044.92
1015.39
982.618
946.772
828.162
826.278
824.515
822.928
)


20
(
1495.92
1495.05
1492.41
1487.81
1480.97
1471.51
1458.93
1442.67
1422.07
1396.44
1365.05
1327.18
1282.12
1229.16
1167.66
1096.96
856.228
851.47
846.931
842.658
)


20
(
1799.29
1798.19
1794.79
1788.86
1780.01
1767.68
1751.17
1729.64
1702.08
1667.41
1624.43
1571.84
1508.32
1432.49
1342.93
1238.2
878.311
870.741
863.482
856.576
)


20
(
2085.11
2083.77
2079.64
2072.44
2061.65
2046.56
2026.28
1999.67
1965.44
1922.09
1867.95
1801.23
1720
1622.2
1505.73
1368.39
894.275
883.999
874.123
864.684
)


20
(
2348.85
2347.28
2342.48
2334.06
2321.44
2303.76
2279.9
2248.51
2207.98
2156.43
2091.8
2011.76
1913.84
1795.38
1653.59
1485.57
904.076
891.247
878.902
867.072
)


20
(
2586.35
2584.58
2579.14
2569.61
2555.29
2535.19
2508.04
2472.23
2425.87
2366.77
2292.44
2200.12
2086.82
1949.32
1784.23
1587.99
907.763
892.578
877.952
863.912
)


20
(
2793.87
2791.91
2785.89
2775.35
2759.49
2737.22
2707.09
2667.29
2615.69
2549.78
2466.72
2363.37
2236.26
2081.67
1895.67
1674.15
905.471
888.165
871.487
855.456
)


20
(
2968.11
2965.99
2959.47
2948.03
2930.83
2906.66
2873.91
2830.62
2774.43
2702.58
2611.92
2498.95
2359.81
2190.38
1986.23
1742.77
897.421
878.266
859.798
842.03
)


20
(
3106.34
3104.08
3097.13
3084.94
3066.6
3040.81
3005.86
2959.64
2899.6
2822.76
2725.74
2604.73
2455.58
2273.77
2054.54
1792.87
883.908
863.208
843.243
824.02
)


20
(
3206.37
3203.99
3196.69
3183.9
3164.65
3137.57
3100.86
3052.31
2989.21
2908.43
2806.39
2679.07
2522.05
2330.58
2099.57
1823.72
865.294
843.379
822.236
801.867
)


20
(
3266.6
3264.14
3256.59
3243.35
3223.42
3195.39
3157.41
3107.15
3041.84
2958.23
2852.6
2720.79
2558.21
2359.91
2120.64
1834.89
841.997
819.218
797.235
776.049
)


20
(
3286.09
3283.58
3275.86
3262.34
3241.99
3213.37
3174.59
3123.3
3056.66
2971.37
2863.64
2729.23
2563.47
2361.33
2117.46
1826.25
814.466
791.189
768.722
747.059
)


20
(
3264.53
3261.99
3254.2
3240.56
3220.04
3191.19
3152.13
3100.48
3033.42
2947.63
2839.31
2704.24
2537.75
2334.8
2090.06
1797.92
783.164
759.764
737.175
715.388
)


20
(
3202.23
3199.71
3191.95
3178.35
3157.92
3129.21
3090.36
3039.04
2972.46
2887.34
2779.98
2646.19
2481.41
2280.7
2038.82
1750.32
748.539
725.393
703.046
681.487
)


20
(
3100.2
3097.71
3090.07
3076.69
3056.59
3028.39
2990.25
2939.93
2874.71
2791.45
2686.52
2555.93
2395.27
2199.8
1964.48
1684.08
710.983
688.464
666.719
645.737
)


20
(
2960.01
2957.59
2950.16
2937.16
2917.65
2890.29
2853.35
2804.68
2741.69
2661.39
2560.37
2434.82
2280.6
2093.25
1868.05
1600.08
670.798
649.264
628.47
608.4
)


20
(
2783.88
2781.56
2774.43
2761.95
2743.26
2717.09
2681.8
2635.39
2575.45
2499.17
2403.42
2284.66
2139.07
1962.56
1750.81
1499.34
628.14
607.931
588.414
569.574
)


20
(
2574.58
2572.38
2565.62
2553.82
2536.16
2511.47
2478.26
2434.68
2378.53
2307.27
2218.03
2107.65
1972.71
1809.54
1614.31
1383.05
582.974
564.398
546.457
529.136
)


20
(
2335.42
2333.36
2327.06
2316.06
2299.62
2276.7
2245.95
2205.71
2154.01
2088.63
2007.03
1906.45
1783.92
1636.29
1460.28
1252.51
535.026
518.352
502.248
486.699
)


20
(
2070.16
2068.27
2062.48
2052.39
2037.35
2016.44
1988.47
1952
1905.35
1846.58
1773.56
1683.98
1575.37
1445.13
1290.59
1109.05
483.76
469.211
455.158
441.588
)


20
(
1783
1781.3
1776.07
1767
1753.5
1734.8
1709.88
1677.55
1636.4
1584.85
1521.18
1443.55
1350.03
1238.63
1107.33
954.142
428.441
416.184
404.343
392.905
)


20
(
1478.47
1476.96
1472.36
1464.37
1452.53
1436.2
1414.55
1386.64
1351.35
1307.47
1253.71
1188.71
1111.12
1019.58
912.752
789.368
368.323
358.463
348.934
339.725
)


20
(
1161.43
1160.14
1156.18
1149.34
1139.25
1125.4
1107.19
1083.89
1054.7
1018.79
975.283
923.353
862.2
791.105
709.438
616.665
303.039
295.623
288.452
281.513
)


20
(
837.236
836.166
832.906
827.29
819.051
807.832
793.207
774.701
751.821
724.088
691.078
652.448
607.975
557.572
501.308
439.402
234.023
229.055
224.245
219.578
)


20
(
857.787
857.426
856.334
854.474
851.796
848.245
843.782
838.402
832.163
825.215
817.829
810.42
803.568
798.019
794.675
794.559
801.168
802.238
803.332
804.509
)


20
(
1185.43
1184.81
1182.94
1179.7
1174.93
1168.4
1159.85
1148.99
1135.52
1119.17
1099.71
1076.98
1050.91
1021.52
988.933
953.32
835.538
833.692
831.969
830.422
)


20
(
1505.21
1504.34
1501.69
1497.07
1490.22
1480.73
1468.12
1451.81
1431.16
1405.47
1374.01
1336.06
1290.89
1237.82
1176.19
1105.34
864.091
859.341
854.811
850.548
)


20
(
1812.07
1810.95
1807.54
1801.58
1792.69
1780.31
1763.73
1742.09
1714.41
1679.59
1636.4
1583.57
1519.75
1443.55
1353.55
1248.3
886.568
878.974
871.694
864.77
)


20
(
2101.16
2099.81
2095.66
2088.42
2077.57
2062.4
2042
2015.24
1980.81
1937.21
1882.76
1815.64
1733.9
1635.51
1518.3
1380.06
902.829
892.499
882.572
873.086
)


20
(
2367.93
2366.36
2361.52
2353.05
2340.35
2322.55
2298.54
2266.95
2226.15
2174.27
2109.2
2028.62
1930.02
1810.72
1667.91
1498.65
912.828
899.916
887.492
875.587
)


20
(
2608.16
2606.38
2600.9
2591.3
2576.89
2556.66
2529.31
2493.25
2446.57
2387.04
2312.17
2219.17
2105.02
1966.47
1800.1
1602.3
916.613
901.318
886.587
872.447
)


20
(
2818.06
2816.09
2810.03
2799.41
2783.44
2761.01
2730.66
2690.57
2638.58
2572.17
2488.48
2384.32
2256.2
2100.37
1912.85
1689.48
914.322
896.881
880.074
863.92
)


20
(
2994.31
2992.17
2985.6
2974.08
2956.76
2932.4
2899.41
2855.79
2799.16
2726.75
2635.37
2521.48
2381.21
2210.36
2004.48
1758.91
906.179
886.867
868.249
850.337
)


20
(
3134.13
3131.85
3124.85
3112.57
3094.09
3068.1
3032.89
2986.3
2925.78
2848.33
2750.51
2628.5
2478.09
2294.72
2073.58
1809.58
892.484
871.609
851.475
832.091
)


20
(
3235.31
3232.91
3225.56
3212.67
3193.27
3165.98
3128.99
3080.04
3016.44
2935
2832.11
2703.71
2545.34
2352.19
2119.13
1840.78
873.608
851.502
830.175
809.63
)


20
(
3296.24
3293.76
3286.15
3272.81
3252.73
3224.48
3186.19
3135.53
3069.69
2985.39
2878.87
2745.92
2581.92
2381.87
2140.44
1852.07
849.975
826.993
804.816
783.442
)


20
(
3315.96
3313.43
3305.65
3292.02
3271.51
3242.67
3203.58
3151.88
3084.7
2998.69
2890.05
2754.47
2587.26
2383.31
2137.21
1843.3
822.047
798.559
775.889
754.032
)


20
(
3294.16
3291.6
3283.76
3270.01
3249.33
3220.25
3180.88
3128.81
3061.2
2974.69
2865.46
2729.21
2561.25
2356.47
2109.48
1814.62
790.297
766.683
743.888
721.902
)


20
(
3231.16
3228.61
3220.79
3207.1
3186.5
3157.57
3118.42
3066.69
2999.56
2913.73
2805.45
2670.51
2504.27
2301.75
2057.65
1766.44
755.184
731.825
709.273
687.516
)


20
(
3127.96
3125.45
3117.75
3104.28
3084.03
3055.61
3017.17
2966.45
2900.71
2816.75
2710.94
2579.23
2417.15
2219.92
1982.44
1699.42
717.113
694.386
672.441
651.266
)


20
(
2986.17
2983.74
2976.25
2963.16
2943.5
2915.94
2878.72
2829.67
2766.18
2685.22
2583.36
2456.74
2301.18
2112.16
1884.9
1614.43
676.394
654.662
633.676
613.423
)


20
(
2808.04
2805.7
2798.51
2785.95
2767.12
2740.76
2705.21
2658.45
2598.04
2521.16
2424.62
2304.87
2158.04
1979.98
1766.32
1512.53
633.191
612.797
593.101
574.09
)


20
(
2596.34
2594.12
2587.32
2575.44
2557.66
2532.8
2499.36
2455.46
2398.88
2327.07
2237.13
2125.85
1989.78
1825.21
1628.26
1394.9
587.468
568.725
550.622
533.147
)


20
(
2354.45
2352.38
2346.04
2334.97
2318.42
2295.35
2264.39
2223.87
2171.81
2105.94
2023.72
1922.36
1798.84
1649.99
1472.47
1262.86
538.948
522.129
505.883
490.199
)


20
(
2086.15
2084.25
2078.43
2068.28
2053.16
2032.12
2003.97
1967.27
1920.31
1861.14
1787.6
1697.36
1587.92
1456.65
1300.85
1117.77
487.086
472.415
458.244
444.561
)


20
(
1795.71
1794
1788.75
1779.63
1766.06
1747.25
1722.2
1689.69
1648.29
1596.42
1532.34
1454.19
1360.01
1247.79
1115.5
961.092
431.129
418.775
406.84
395.314
)


20
(
1487.7
1486.18
1481.56
1473.53
1461.64
1445.24
1423.5
1395.45
1359.98
1315.87
1261.81
1196.44
1118.37
1026.24
918.694
794.433
370.313
360.383
350.787
341.514
)


20
(
1167.03
1165.73
1161.76
1154.9
1144.77
1130.89
1112.61
1089.23
1059.94
1023.88
980.198
928.04
866.602
795.152
713.048
619.747
304.265
296.807
289.596
282.619
)


20
(
839.11
838.039
834.775
829.152
820.903
809.67
795.024
776.491
753.574
725.796
692.725
654.02
609.451
558.93
502.52
440.437
234.439
229.458
224.634
219.954
)


20
(
855.536
855.172
854.07
852.192
849.486
845.894
841.371
835.907
829.552
822.446
814.847
807.158
799.943
793.93
790.004
789.168
793.24
794.228
795.241
796.337
)


20
(
1178.87
1178.25
1176.38
1173.14
1168.36
1161.83
1153.26
1142.39
1128.89
1112.5
1092.97
1070.15
1043.96
1014.4
981.593
945.705
826.947
825.055
823.287
821.692
)


20
(
1494.44
1493.57
1490.93
1486.33
1479.5
1470.04
1457.47
1441.21
1420.61
1394.99
1363.62
1325.76
1280.71
1227.77
1166.28
1095.6
854.939
850.18
845.639
841.363
)


20
(
1797.26
1796.15
1792.76
1786.83
1777.99
1765.67
1749.17
1727.65
1700.12
1665.47
1622.52
1569.97
1506.49
1430.71
1341.22
1236.57
876.963
869.396
862.14
855.237
)


20
(
2082.55
2081.21
2077.09
2069.89
2059.11
2044.04
2023.77
1997.19
1962.99
1919.67
1865.59
1798.93
1717.77
1620.07
1503.72
1366.51
892.884
882.616
872.748
863.317
)


20
(
2345.81
2344.25
2339.44
2331.04
2318.43
2300.76
2276.93
2245.57
2205.08
2153.59
2089.02
2009.07
1911.25
1792.92
1651.29
1483.47
902.658
889.842
877.51
865.691
)


20
(
2582.88
2581.11
2575.67
2566.15
2551.85
2531.77
2504.65
2468.88
2422.57
2363.54
2289.29
2197.08
2083.92
1946.58
1781.69
1585.7
906.334
891.166
876.557
862.532
)


20
(
2790.01
2788.06
2782.05
2771.51
2755.68
2733.43
2703.33
2663.58
2612.04
2546.21
2463.26
2360.03
2233.07
2078.69
1892.93
1671.7
904.046
886.762
870.104
854.093
)


20
(
2963.94
2961.82
2955.3
2943.88
2926.71
2902.56
2869.85
2826.61
2770.49
2698.73
2608.18
2495.35
2356.4
2187.19
1983.32
1740.19
896.015
876.885
858.441
840.696
)


20
(
3101.92
3099.66
3092.71
3080.54
3062.22
3036.46
3001.56
2955.39
2895.42
2818.69
2721.79
2600.94
2451.99
2270.43
2051.5
1790.2
882.535
861.863
841.925
822.728
)


20
(
3201.76
3199.38
3192.09
3179.32
3160.09
3133.04
3096.38
3047.89
2984.87
2904.2
2802.29
2675.14
2518.34
2327.13
2096.45
1820.99
863.967
842.083
820.969
800.628
)


20
(
3261.88
3259.42
3251.88
3238.66
3218.75
3190.76
3152.82
3102.63
3037.41
2953.91
2848.42
2716.78
2554.43
2356.42
2117.49
1832.15
840.726
817.979
796.028
774.871
)


20
(
3281.34
3278.83
3271.12
3257.61
3237.28
3208.7
3169.97
3118.74
3052.2
2967.02
2859.43
2725.21
2559.68
2357.83
2114.32
1823.53
813.261
790.018
767.583
745.951
)


20
(
3259.81
3257.27
3249.5
3235.87
3215.37
3186.56
3147.55
3095.97
3028.99
2943.32
2835.15
2700.27
2534.01
2331.35
2086.96
1795.27
782.033
758.668
736.111
714.355
)


20
(
3197.63
3195.1
3187.35
3173.78
3153.37
3124.69
3085.89
3034.64
2968.14
2883.14
2775.92
2642.32
2477.77
2277.35
2035.83
1747.75
747.487
724.376
702.062
680.534
)


20
(
3095.77
3093.29
3085.66
3072.29
3052.22
3024.05
2985.97
2935.71
2870.58
2787.42
2682.64
2552.23
2391.79
2196.59
1961.62
1681.65
710.015
687.529
665.817
644.865
)


20
(
2955.84
2953.43
2946
2933.02
2913.53
2886.21
2849.31
2800.7
2737.79
2657.6
2556.71
2431.33
2277.33
2090.24
1865.37
1597.8
669.916
648.414
627.65
607.61
)


20
(
2780.04
2777.71
2770.59
2758.13
2739.46
2713.31
2678.07
2631.72
2571.85
2495.67
2400.04
2281.44
2136.05
1959.79
1748.35
1497.25
627.347
607.167
587.678
568.866
)


20
(
2571.11
2568.91
2562.16
2550.38
2532.73
2508.08
2474.91
2431.38
2375.29
2304.11
2214.99
2104.76
1969.99
1807.05
1612.09
1381.17
582.27
563.72
545.805
528.509
)


20
(
2332.39
2330.34
2324.04
2313.05
2296.63
2273.73
2243.01
2202.81
2151.18
2085.87
2004.37
1903.92
1781.54
1634.11
1458.34
1250.86
534.412
517.762
501.68
486.154
)


20
(
2067.61
2065.72
2059.94
2049.86
2034.83
2013.94
1986
1949.57
1902.96
1844.26
1771.33
1681.85
1573.37
1443.29
1288.96
1107.67
483.242
468.713
454.679
441.127
)


20
(
1780.98
1779.27
1774.06
1764.99
1751.5
1732.81
1707.92
1675.62
1634.51
1583.01
1519.41
1441.86
1348.44
1237.17
1106.04
953.041
428.025
415.783
403.957
392.534
)


20
(
1477
1475.5
1470.89
1462.91
1451.08
1434.75
1413.13
1385.24
1349.97
1306.13
1252.42
1187.48
1109.97
1018.52
911.81
788.567
368.017
358.167
348.649
339.451
)


20
(
1160.54
1159.25
1155.29
1148.45
1138.37
1124.53
1106.33
1083.04
1053.87
1017.97
974.5
922.606
861.5
790.462
708.865
616.178
302.85
295.441
288.277
281.345
)


20
(
836.937
835.867
832.608
826.993
818.755
807.539
792.917
774.415
751.541
723.816
690.815
652.198
607.739
557.356
501.116
439.238
233.959
228.994
224.185
219.52
)


20
(
857.34
856.979
855.885
854.022
851.338
847.78
843.305
837.909
831.648
824.67
817.244
809.781
802.86
797.223
793.768
793.515
799.64
800.694
801.773
802.933
)


20
(
1184.13
1183.51
1181.64
1178.4
1173.62
1167.09
1158.54
1147.68
1134.2
1117.85
1098.38
1075.63
1049.54
1020.12
987.494
951.832
833.875
832.021
830.289
828.733
)


20
(
1503.07
1502.2
1499.55
1494.94
1488.09
1478.61
1466.01
1449.71
1429.07
1403.39
1371.95
1334.02
1288.88
1235.84
1174.24
1103.42
862.313
857.562
853.03
848.765
)


20
(
1809.13
1808.01
1804.6
1798.65
1789.77
1777.4
1760.84
1739.22
1711.58
1676.79
1633.65
1580.88
1517.13
1441.01
1351.12
1245.99
884.696
877.108
869.833
862.913
)


20
(
2097.47
2096.12
2091.98
2084.74
2073.9
2058.76
2038.38
2011.66
1977.28
1933.73
1879.35
1812.33
1730.71
1632.45
1515.42
1377.39
900.885
890.568
880.653
871.179
)


20
(
2363.54
2361.97
2357.13
2348.68
2336
2318.23
2294.25
2262.71
2221.97
2170.17
2105.2
2024.74
1926.3
1807.19
1664.62
1495.65
910.835
897.943
885.538
873.65
)


20
(
2603.14
2601.36
2595.89
2586.31
2571.92
2551.72
2524.42
2488.42
2441.81
2382.38
2307.63
2214.79
2100.84
1962.53
1796.45
1599.02
914.595
899.325
884.619
870.502
)


20
(
2812.49
2810.52
2804.47
2793.87
2777.93
2755.54
2725.23
2685.21
2633.31
2567.02
2483.48
2379.5
2251.62
2096.08
1908.91
1685.96
912.301
894.891
878.114
861.989
)


20
(
2988.28
2986.15
2979.59
2968.09
2950.79
2926.47
2893.54
2850
2793.47
2721.18
2629.97
2516.3
2376.29
2205.76
2000.28
1755.2
904.176
884.901
866.317
848.438
)


20
(
3127.73
3125.46
3118.47
3106.21
3087.76
3061.82
3026.67
2980.17
2919.76
2842.44
2744.81
2623.03
2472.91
2289.91
2069.2
1805.74
890.52
869.686
849.591
830.244
)


20
(
3228.64
3226.25
3218.92
3206.05
3186.68
3159.44
3122.52
3073.66
3010.17
2928.88
2826.19
2698.04
2539.98
2347.22
2114.63
1836.86
871.702
849.64
828.356
807.851
)


20
(
3289.42
3286.94
3279.35
3266.03
3245.98
3217.78
3179.57
3129
3063.28
2979.14
2872.82
2740.14
2576.47
2376.82
2135.89
1848.12
848.145
825.209
803.077
781.746
)


20
(
3309.09
3306.56
3298.8
3285.19
3264.72
3235.92
3196.91
3145.3
3078.24
2992.4
2883.97
2748.66
2581.78
2378.25
2132.67
1839.38
820.306
796.867
774.244
752.431
)


20
(
3287.33
3284.78
3276.95
3263.23
3242.58
3213.57
3174.26
3122.29
3054.81
2968.46
2859.44
2723.47
2555.84
2351.49
2105.01
1810.78
788.658
765.093
742.345
720.405
)


20
(
3224.5
3221.96
3214.15
3200.48
3179.92
3151.05
3111.96
3060.32
2993.32
2907.66
2799.59
2664.91
2499.01
2296.9
2053.32
1762.73
753.656
730.346
707.841
686.13
)


20
(
3121.57
3119.06
3111.38
3097.92
3077.71
3049.34
3010.98
2960.35
2894.73
2810.93
2705.32
2573.87
2412.12
2215.29
1978.31
1695.89
715.703
693.023
671.125
649.993
)


20
(
2980.15
2977.72
2970.25
2957.17
2937.55
2910.04
2872.88
2823.92
2760.54
2679.74
2578.07
2451.7
2296.44
2107.8
1881.02
1611.13
675.106
653.419
632.478
612.266
)


20
(
2802.48
2800.14
2792.97
2780.43
2761.63
2735.31
2699.83
2653.14
2592.84
2516.1
2419.74
2300.22
2153.67
1975.97
1762.75
1509.49
632.027
611.676
592.021
573.05
)


20
(
2591.33
2589.12
2582.33
2570.47
2552.71
2527.89
2494.5
2450.68
2394.2
2322.51
2232.73
2121.66
1985.85
1821.6
1625.05
1392.17
586.433
567.728
549.662
532.222
)


20
(
2350.07
2348
2341.67
2330.61
2314.1
2291.06
2260.15
2219.69
2167.71
2101.96
2019.88
1918.7
1795.41
1646.83
1469.66
1260.48
538.044
521.258
505.045
489.392
)


20
(
2082.47
2080.57
2074.76
2064.62
2049.52
2028.51
2000.4
1963.76
1916.86
1857.78
1784.37
1694.28
1585.03
1453.99
1298.49
1115.76
486.319
471.676
457.532
443.875
)


20
(
1792.79
1791.07
1785.83
1776.72
1763.17
1744.39
1719.37
1686.89
1645.55
1593.76
1529.78
1451.74
1357.71
1245.68
1113.62
959.492
430.509
418.177
406.264
394.758
)


20
(
1485.57
1484.06
1479.44
1471.42
1459.55
1443.16
1421.44
1393.42
1357.99
1313.94
1259.94
1194.66
1116.7
1024.71
917.326
793.266
369.854
359.94
350.359
341.101
)


20
(
1165.74
1164.44
1160.47
1153.62
1143.5
1129.62
1111.37
1088
1058.73
1022.71
979.067
926.961
865.588
794.22
712.217
619.037
303.982
296.534
289.332
282.364
)


20
(
838.679
837.608
834.345
828.724
820.476
809.247
794.606
776.079
753.171
725.403
692.346
653.658
609.111
558.617
502.241
440.199
234.343
229.365
224.544
219.867
)


20
(
857.34
856.979
855.885
854.022
851.338
847.78
843.305
837.909
831.648
824.67
817.244
809.781
802.86
797.223
793.768
793.515
799.64
800.694
801.773
802.933
)


20
(
1184.13
1183.51
1181.64
1178.4
1173.62
1167.09
1158.54
1147.68
1134.2
1117.85
1098.38
1075.63
1049.54
1020.12
987.494
951.832
833.875
832.02
830.289
828.732
)


20
(
1503.07
1502.2
1499.55
1494.94
1488.09
1478.61
1466.01
1449.71
1429.07
1403.39
1371.95
1334.02
1288.88
1235.84
1174.24
1103.42
862.313
857.562
853.03
848.765
)


20
(
1809.13
1808.01
1804.6
1798.65
1789.77
1777.4
1760.84
1739.22
1711.58
1676.79
1633.65
1580.88
1517.13
1441.01
1351.12
1245.99
884.696
877.108
869.833
862.913
)


20
(
2097.47
2096.12
2091.98
2084.74
2073.9
2058.76
2038.38
2011.66
1977.27
1933.73
1879.35
1812.33
1730.71
1632.45
1515.42
1377.39
900.885
890.568
880.653
871.179
)


20
(
2363.54
2361.97
2357.13
2348.68
2336
2318.23
2294.25
2262.71
2221.97
2170.17
2105.2
2024.74
1926.3
1807.19
1664.62
1495.65
910.835
897.943
885.538
873.65
)


20
(
2603.14
2601.36
2595.89
2586.31
2571.92
2551.72
2524.42
2488.42
2441.81
2382.38
2307.63
2214.79
2100.84
1962.53
1796.45
1599.02
914.595
899.325
884.619
870.502
)


20
(
2812.49
2810.52
2804.47
2793.87
2777.93
2755.54
2725.23
2685.21
2633.31
2567.02
2483.48
2379.5
2251.62
2096.08
1908.91
1685.96
912.301
894.891
878.114
861.989
)


20
(
2988.28
2986.15
2979.59
2968.09
2950.79
2926.47
2893.54
2850
2793.47
2721.18
2629.97
2516.3
2376.29
2205.76
2000.28
1755.2
904.176
884.901
866.317
848.438
)


20
(
3127.73
3125.46
3118.47
3106.21
3087.76
3061.82
3026.67
2980.17
2919.76
2842.44
2744.81
2623.03
2472.91
2289.91
2069.2
1805.74
890.52
869.686
849.591
830.244
)


20
(
3228.64
3226.25
3218.92
3206.05
3186.68
3159.44
3122.52
3073.66
3010.17
2928.88
2826.19
2698.04
2539.98
2347.22
2114.63
1836.86
871.702
849.64
828.356
807.851
)


20
(
3289.42
3286.94
3279.35
3266.03
3245.98
3217.78
3179.57
3129
3063.28
2979.14
2872.82
2740.14
2576.47
2376.82
2135.89
1848.12
848.145
825.209
803.077
781.746
)


20
(
3309.09
3306.56
3298.8
3285.19
3264.72
3235.92
3196.91
3145.3
3078.24
2992.4
2883.97
2748.66
2581.78
2378.25
2132.67
1839.38
820.306
796.867
774.243
752.431
)


20
(
3287.33
3284.78
3276.95
3263.23
3242.58
3213.56
3174.26
3122.29
3054.81
2968.46
2859.44
2723.47
2555.84
2351.49
2105.01
1810.78
788.658
765.093
742.345
720.405
)


20
(
3224.5
3221.96
3214.15
3200.48
3179.92
3151.05
3111.96
3060.32
2993.32
2907.66
2799.59
2664.91
2499.01
2296.9
2053.32
1762.73
753.656
730.346
707.841
686.13
)


20
(
3121.57
3119.06
3111.38
3097.92
3077.71
3049.34
3010.98
2960.35
2894.73
2810.93
2705.32
2573.87
2412.12
2215.29
1978.31
1695.89
715.703
693.023
671.125
649.993
)


20
(
2980.15
2977.72
2970.25
2957.17
2937.55
2910.04
2872.88
2823.92
2760.54
2679.74
2578.07
2451.7
2296.44
2107.8
1881.02
1611.13
675.106
653.419
632.478
612.266
)


20
(
2802.48
2800.14
2792.97
2780.43
2761.63
2735.31
2699.82
2653.14
2592.84
2516.1
2419.74
2300.22
2153.67
1975.97
1762.75
1509.49
632.027
611.676
592.021
573.05
)


20
(
2591.33
2589.12
2582.33
2570.47
2552.71
2527.89
2494.5
2450.68
2394.2
2322.51
2232.73
2121.66
1985.85
1821.6
1625.05
1392.17
586.433
567.728
549.662
532.222
)


20
(
2350.07
2348
2341.67
2330.61
2314.1
2291.06
2260.15
2219.69
2167.71
2101.96
2019.88
1918.7
1795.41
1646.83
1469.66
1260.48
538.044
521.258
505.045
489.392
)


20
(
2082.47
2080.57
2074.76
2064.62
2049.52
2028.51
2000.4
1963.76
1916.86
1857.78
1784.37
1694.28
1585.03
1453.99
1298.49
1115.76
486.319
471.676
457.532
443.875
)


20
(
1792.79
1791.07
1785.83
1776.72
1763.17
1744.39
1719.37
1686.9
1645.55
1593.76
1529.78
1451.74
1357.71
1245.68
1113.62
959.492
430.509
418.177
406.264
394.758
)


20
(
1485.57
1484.06
1479.44
1471.42
1459.55
1443.16
1421.44
1393.42
1357.99
1313.94
1259.94
1194.66
1116.7
1024.71
917.326
793.266
369.854
359.94
350.36
341.101
)


20
(
1165.74
1164.44
1160.47
1153.62
1143.5
1129.62
1111.37
1088
1058.73
1022.71
979.067
926.961
865.588
794.22
712.217
619.037
303.982
296.534
289.332
282.364
)


20
(
838.679
837.608
834.345
828.724
820.476
809.247
794.606
776.079
753.171
725.403
692.346
653.658
609.111
558.617
502.241
440.199
234.343
229.365
224.544
219.867
)


20
(
855.536
855.172
854.07
852.192
849.486
845.894
841.371
835.907
829.552
822.446
814.847
807.158
799.943
793.93
790.004
789.168
793.24
794.228
795.241
796.337
)


20
(
1178.87
1178.25
1176.38
1173.14
1168.36
1161.83
1153.26
1142.39
1128.89
1112.5
1092.97
1070.15
1043.96
1014.4
981.593
945.705
826.947
825.056
823.287
821.692
)


20
(
1494.44
1493.57
1490.93
1486.33
1479.5
1470.04
1457.47
1441.21
1420.61
1394.99
1363.62
1325.76
1280.71
1227.77
1166.28
1095.6
854.939
850.18
845.639
841.363
)


20
(
1797.26
1796.15
1792.76
1786.83
1777.99
1765.67
1749.17
1727.65
1700.12
1665.47
1622.52
1569.97
1506.49
1430.71
1341.22
1236.57
876.963
869.396
862.14
855.237
)


20
(
2082.55
2081.21
2077.09
2069.89
2059.11
2044.04
2023.77
1997.19
1962.99
1919.67
1865.59
1798.93
1717.77
1620.07
1503.72
1366.51
892.884
882.616
872.748
863.317
)


20
(
2345.81
2344.25
2339.44
2331.04
2318.43
2300.76
2276.93
2245.57
2205.08
2153.59
2089.02
2009.07
1911.25
1792.92
1651.29
1483.47
902.658
889.842
877.51
865.691
)


20
(
2582.88
2581.11
2575.67
2566.15
2551.85
2531.77
2504.65
2468.88
2422.57
2363.54
2289.29
2197.08
2083.92
1946.58
1781.69
1585.7
906.334
891.166
876.557
862.532
)


20
(
2790.01
2788.06
2782.04
2771.51
2755.68
2733.43
2703.33
2663.58
2612.04
2546.21
2463.26
2360.03
2233.07
2078.69
1892.93
1671.7
904.046
886.762
870.104
854.093
)


20
(
2963.94
2961.82
2955.3
2943.88
2926.71
2902.56
2869.85
2826.61
2770.49
2698.73
2608.18
2495.35
2356.4
2187.19
1983.32
1740.19
896.015
876.886
858.441
840.696
)


20
(
3101.92
3099.66
3092.71
3080.54
3062.22
3036.46
3001.56
2955.39
2895.43
2818.69
2721.79
2600.94
2451.99
2270.43
2051.5
1790.2
882.535
861.863
841.925
822.728
)


20
(
3201.76
3199.38
3192.09
3179.32
3160.09
3133.04
3096.38
3047.89
2984.87
2904.2
2802.29
2675.14
2518.34
2327.13
2096.45
1820.99
863.967
842.083
820.969
800.628
)


20
(
3261.88
3259.42
3251.88
3238.66
3218.75
3190.76
3152.82
3102.63
3037.41
2953.91
2848.42
2716.78
2554.43
2356.42
2117.49
1832.15
840.726
817.979
796.028
774.871
)


20
(
3281.33
3278.82
3271.12
3257.61
3237.28
3208.7
3169.97
3118.74
3052.2
2967.02
2859.43
2725.21
2559.68
2357.83
2114.31
1823.53
813.261
790.018
767.583
745.951
)


20
(
3259.81
3257.27
3249.5
3235.87
3215.37
3186.56
3147.55
3095.97
3028.99
2943.32
2835.15
2700.26
2534.01
2331.35
2086.96
1795.27
782.033
758.668
736.111
714.356
)


20
(
3197.63
3195.1
3187.35
3173.78
3153.37
3124.69
3085.89
3034.64
2968.14
2883.14
2775.92
2642.32
2477.77
2277.35
2035.83
1747.75
747.487
724.376
702.062
680.534
)


20
(
3095.77
3093.29
3085.66
3072.29
3052.22
3024.05
2985.97
2935.71
2870.58
2787.42
2682.64
2552.23
2391.79
2196.59
1961.62
1681.65
710.015
687.529
665.817
644.865
)


20
(
2955.84
2953.43
2946
2933.02
2913.53
2886.21
2849.31
2800.7
2737.79
2657.6
2556.71
2431.33
2277.33
2090.24
1865.37
1597.8
669.916
648.414
627.65
607.61
)


20
(
2780.04
2777.71
2770.59
2758.13
2739.46
2713.31
2678.07
2631.72
2571.85
2495.67
2400.04
2281.44
2136.05
1959.79
1748.35
1497.25
627.347
607.167
587.678
568.866
)


20
(
2571.11
2568.91
2562.16
2550.38
2532.73
2508.08
2474.91
2431.38
2375.29
2304.11
2214.99
2104.76
1969.99
1807.05
1612.09
1381.17
582.27
563.72
545.805
528.509
)


20
(
2332.39
2330.34
2324.04
2313.05
2296.63
2273.73
2243.01
2202.81
2151.18
2085.87
2004.37
1903.92
1781.54
1634.11
1458.34
1250.86
534.412
517.762
501.681
486.154
)


20
(
2067.61
2065.72
2059.94
2049.86
2034.83
2013.94
1986
1949.57
1902.96
1844.26
1771.33
1681.85
1573.37
1443.29
1288.96
1107.67
483.242
468.713
454.679
441.128
)


20
(
1780.98
1779.27
1774.06
1764.99
1751.5
1732.81
1707.92
1675.62
1634.51
1583.01
1519.41
1441.86
1348.44
1237.17
1106.04
953.042
428.025
415.783
403.957
392.534
)


20
(
1477
1475.5
1470.89
1462.91
1451.08
1434.76
1413.13
1385.24
1349.97
1306.13
1252.42
1187.48
1109.97
1018.52
911.81
788.567
368.017
358.167
348.649
339.451
)


20
(
1160.54
1159.25
1155.29
1148.45
1138.37
1124.53
1106.33
1083.04
1053.87
1017.97
974.5
922.606
861.5
790.462
708.865
616.178
302.85
295.441
288.277
281.345
)


20
(
836.937
835.867
832.608
826.993
818.755
807.539
792.918
774.415
751.541
723.816
690.815
652.198
607.74
557.356
501.116
439.238
233.959
228.994
224.185
219.52
)


20
(
857.787
857.426
856.334
854.474
851.796
848.245
843.782
838.402
832.163
825.215
817.829
810.42
803.568
798.019
794.675
794.559
801.168
802.238
803.332
804.509
)


20
(
1185.43
1184.81
1182.94
1179.7
1174.93
1168.4
1159.85
1148.99
1135.52
1119.17
1099.71
1076.98
1050.91
1021.52
988.932
953.32
835.538
833.692
831.969
830.422
)


20
(
1505.21
1504.34
1501.69
1497.07
1490.22
1480.73
1468.12
1451.81
1431.16
1405.47
1374.01
1336.06
1290.89
1237.83
1176.19
1105.34
864.092
859.341
854.811
850.548
)


20
(
1812.07
1810.95
1807.54
1801.58
1792.69
1780.31
1763.73
1742.09
1714.41
1679.59
1636.4
1583.57
1519.75
1443.55
1353.55
1248.3
886.568
878.974
871.694
864.77
)


20
(
2101.16
2099.81
2095.66
2088.42
2077.57
2062.4
2042
2015.24
1980.81
1937.21
1882.76
1815.64
1733.9
1635.5
1518.3
1380.06
902.829
892.499
882.572
873.086
)


20
(
2367.93
2366.36
2361.52
2353.05
2340.35
2322.55
2298.54
2266.95
2226.15
2174.27
2109.2
2028.62
1930.02
1810.72
1667.91
1498.65
912.828
899.916
887.492
875.587
)


20
(
2608.16
2606.38
2600.9
2591.3
2576.89
2556.66
2529.31
2493.25
2446.57
2387.04
2312.17
2219.17
2105.02
1966.47
1800.1
1602.3
916.613
901.318
886.587
872.447
)


20
(
2818.06
2816.09
2810.03
2799.41
2783.44
2761.01
2730.66
2690.57
2638.58
2572.17
2488.48
2384.32
2256.2
2100.37
1912.85
1689.48
914.322
896.881
880.074
863.92
)


20
(
2994.31
2992.17
2985.6
2974.08
2956.76
2932.4
2899.41
2855.79
2799.16
2726.75
2635.37
2521.48
2381.21
2210.36
2004.48
1758.91
906.179
886.867
868.249
850.337
)


20
(
3134.13
3131.85
3124.85
3112.57
3094.09
3068.1
3032.89
2986.3
2925.78
2848.33
2750.51
2628.5
2478.09
2294.73
2073.58
1809.58
892.484
871.609
851.475
832.091
)


20
(
3235.31
3232.91
3225.56
3212.67
3193.27
3165.98
3128.99
3080.04
3016.44
2935
2832.11
2703.71
2545.34
2352.19
2119.13
1840.78
873.608
851.502
830.175
809.63
)


20
(
3296.24
3293.76
3286.15
3272.81
3252.73
3224.48
3186.19
3135.53
3069.69
2985.39
2878.87
2745.92
2581.92
2381.87
2140.44
1852.07
849.975
826.993
804.816
783.442
)


20
(
3315.96
3313.43
3305.65
3292.02
3271.51
3242.67
3203.58
3151.88
3084.7
2998.69
2890.05
2754.47
2587.26
2383.31
2137.21
1843.3
822.047
798.559
775.889
754.032
)


20
(
3294.16
3291.6
3283.75
3270.01
3249.33
3220.25
3180.88
3128.81
3061.2
2974.69
2865.46
2729.21
2561.25
2356.47
2109.48
1814.62
790.297
766.683
743.888
721.902
)


20
(
3231.16
3228.61
3220.79
3207.1
3186.5
3157.57
3118.42
3066.69
2999.56
2913.73
2805.45
2670.51
2504.27
2301.75
2057.65
1766.44
755.184
731.825
709.273
687.516
)


20
(
3127.96
3125.45
3117.75
3104.28
3084.03
3055.61
3017.17
2966.45
2900.71
2816.75
2710.94
2579.23
2417.15
2219.92
1982.44
1699.42
717.113
694.386
672.441
651.266
)


20
(
2986.17
2983.74
2976.25
2963.16
2943.5
2915.94
2878.72
2829.67
2766.18
2685.22
2583.36
2456.74
2301.18
2112.16
1884.9
1614.43
676.394
654.662
633.676
613.423
)


20
(
2808.04
2805.7
2798.51
2785.95
2767.12
2740.76
2705.21
2658.45
2598.04
2521.16
2424.62
2304.87
2158.04
1979.98
1766.32
1512.53
633.191
612.797
593.101
574.09
)


20
(
2596.34
2594.12
2587.32
2575.44
2557.66
2532.8
2499.36
2455.46
2398.88
2327.07
2237.13
2125.85
1989.78
1825.21
1628.26
1394.9
587.468
568.725
550.622
533.147
)


20
(
2354.45
2352.38
2346.04
2334.97
2318.42
2295.35
2264.39
2223.87
2171.81
2105.94
2023.72
1922.36
1798.84
1649.99
1472.47
1262.86
538.948
522.129
505.883
490.199
)


20
(
2086.15
2084.25
2078.43
2068.28
2053.16
2032.12
2003.97
1967.27
1920.31
1861.14
1787.6
1697.36
1587.92
1456.65
1300.85
1117.77
487.086
472.415
458.244
444.561
)


20
(
1795.71
1794
1788.75
1779.63
1766.06
1747.25
1722.2
1689.69
1648.29
1596.42
1532.34
1454.19
1360.01
1247.79
1115.5
961.092
431.129
418.775
406.84
395.314
)


20
(
1487.7
1486.18
1481.56
1473.53
1461.64
1445.24
1423.5
1395.45
1359.98
1315.87
1261.81
1196.44
1118.37
1026.24
918.694
794.433
370.313
360.383
350.787
341.514
)


20
(
1167.03
1165.73
1161.76
1154.9
1144.77
1130.89
1112.61
1089.23
1059.94