/*--------------------------------*- C++ -*----------------------------------*\
| =========                 |                                                 |
| \\      /  F ield         | OpenFOAM: The Open Source CFD Toolbox           |
|  \\    /   O peration     | Version:  2212                                  |
|   \\  /    A nd           | Website:  www.openfoam.com                      |
|    \\/     M anipulation  |                                                 |
\*---------------------------------------------------------------------------*/
FoamFile
{
    version     2.0;
    format      ascii;
    arch        "LSB;label=32;scalar=64";
    class       volScalarField;
    location    "19/fluidRegion";
    object      heatFlux.structure;
}
// * * * * * * * * * * * * * * * * * * * * * * * * * * * * * * * * * * * * * //

dimensions      [1 0 -3 0 0 0 0];

internalField   nonuniform List<scalar> 
350
(
-258118
-258121
-258124
-258127
-258130
-258133
-258136
-258139
-258142
-258145
-258148
-258151
-258154
-258157
-258160
-258163
-258166
-258168
-258171
-258174
-258177
-258180
-258183
-258186
-258711
-258118
-258121
-258124
-258127
-258130
-258133
-258136
-258139
-258142
-258145
-258148
-258151
-258154
-258157
-258160
-258163
-258166
-258168
-258171
-258174
-258177
-258180
-258183
-258186
-258711
-58617.9
691368
1.42741e+06
2.13775e+06
2.81109e+06
3.43673e+06
4.00475e+06
4.50615e+06
4.93301e+06
5.27859e+06
5.53743e+06
5.70545e+06
5.78e+06
5.75985e+06
5.64528e+06
5.43801e+06
5.14125e+06
4.75973e+06
4.29973e+06
3.76931e+06
3.1783e+06
2.53899e+06
1.86604e+06
1.1752e+06
477695
-63954.9
694581
1.43904e+06
2.15753e+06
2.83862e+06
3.47149e+06
4.0461e+06
4.55336e+06
4.98525e+06
5.33493e+06
5.59692e+06
5.76706e+06
5.84268e+06
5.82256e+06
5.70694e+06
5.49757e+06
5.1977e+06
4.81209e+06
4.34705e+06
3.81072e+06
3.21305e+06
2.56645e+06
1.88581e+06
1.18711e+06
481680
-57737.9
690879
1.42557e+06
2.13461e+06
2.80671e+06
3.43119e+06
3.99815e+06
4.49862e+06
4.92467e+06
5.26959e+06
5.52793e+06
5.69561e+06
5.76998e+06
5.74984e+06
5.63543e+06
5.42849e+06
5.13223e+06
4.75137e+06
4.29217e+06
3.76268e+06
3.17274e+06
2.53459e+06
1.86287e+06
1.17329e+06
477057
-62778.5
693795
1.43632e+06
2.15294e+06
2.83225e+06
3.46346e+06
4.03656e+06
4.54248e+06
4.97321e+06
5.32195e+06
5.58322e+06
5.75288e+06
5.82825e+06
5.80812e+06
5.69275e+06
5.48387e+06
5.18471e+06
4.80004e+06
4.33616e+06
3.80119e+06
3.20505e+06
2.56013e+06
1.88127e+06
1.18437e+06
480763
-62778.6
693795
1.43632e+06
2.15294e+06
2.83225e+06
3.46346e+06
4.03656e+06
4.54248e+06
4.97321e+06
5.32195e+06
5.58322e+06
5.75288e+06
5.82825e+06
5.80812e+06
5.69275e+06
5.48387e+06
5.18471e+06
4.80004e+06
4.33616e+06
3.80119e+06
3.20505e+06
2.56013e+06
1.88127e+06
1.18437e+06
480763
-57738.4
690879
1.42557e+06
2.13461e+06
2.80671e+06
3.43119e+06
3.99815e+06
4.49862e+06
4.92467e+06
5.26959e+06
5.52793e+06
5.69561e+06
5.76998e+06
5.74983e+06
5.63543e+06
5.42849e+06
5.13223e+06
4.75137e+06
4.29217e+06
3.76268e+06
3.17274e+06
2.53459e+06
1.86287e+06
1.17329e+06
477057
-63954.9
694581
1.43904e+06
2.15753e+06
2.83862e+06
3.47149e+06
4.0461e+06
4.55336e+06
4.98525e+06
5.33493e+06
5.59692e+06
5.76706e+06
5.84268e+06
5.82256e+06
5.70694e+06
5.49757e+06
5.1977e+06
4.81209e+06
4.34705e+06
3.81072e+06
3.21305e+06
2.56645e+06
1.88582e+06
1.18711e+06
481680
-58617.9
691368
1.42741e+06
2.13775e+06
2.81109e+06
3.43673e+06
4.00475e+06
4.50615e+06
4.93301e+06
5.27859e+06
5.53743e+06
5.70545e+06
5.77999e+06
5.75985e+06
5.64528e+06
5.43801e+06
5.14125e+06
4.75973e+06
4.29973e+06
3.76931e+06
3.1783e+06
2.53899e+06
1.86604e+06
1.1752e+06
477695
-62778.5
693795
1.43632e+06
2.15294e+06
2.83225e+06
3.46346e+06
4.03656e+06
4.54248e+06
4.97321e+06
5.32195e+06
5.58322e+06
5.75288e+06
5.82825e+06
5.80812e+06
5.69275e+06
5.48387e+06
5.18471e+06
4.80004e+06
4.33616e+06
3.80119e+06
3.20505e+06
2.56013e+06
1.88127e+06
1.18437e+06
480763
-57737.9
690879
1.42557e+06
2.13461e+06
2.80671e+06
3.43119e+06
3.99815e+06
4.49862e+06
4.92467e+06
5.26959e+06
5.52793e+06
5.69561e+06
5.76998e+06
5.74984e+06
5.63543e+06
5.42849e+06
5.13223e+06
4.75137e+06
4.29217e+06
3.76268e+06
3.17274e+06
2.53459e+06
1.86287e+06
1.17329e+06
477057
-57738.4
690879
1.42557e+06
2.13461e+06
2.80671e+06
3.43119e+06
3.99815e+06
4.49862e+06
4.92467e+06
5.26959e+06
5.52793e+06
5.69561e+06
5.76998e+06
5.74983e+06
5.63543e+06
5.42849e+06
5.13223e+06
4.75137e+06
4.29217e+06
3.76268e+06
3.17274e+06
2.53459e+06
1.86287e+06
1.17329e+06
477057
-62778.6
693795
1.43632e+06
2.15294e+06
2.83225e+06
3.46346e+06
4.03656e+06
4.54248e+06
4.97321e+06
5.32195e+06
5.58322e+06
5.75288e+06
5.82825e+06
5.80812e+06
5.69275e+06
5.48387e+06
5.18471e+06
4.80004e+06
4.33616e+06
3.80119e+06
3.20505e+06
2.56013e+06
1.88127e+06
1.18437e+06
480763
)
;

boundaryField
{
    outletCentralUnloaded
    {
        type            zeroGradient;
    }
    inletCentralUnloaded
    {
        type            zeroGradient;
    }
    outletFuelElement
    {
        type            zeroGradient;
    }
    inletFuelElement
    {
        type            zeroGradient;
    }
    defaultFaces
    {
        type            zeroGradient;
    }
    baffle_master
    {
        type            zeroGradient;
    }
    baffle_slave
    {
        type            zeroGradient;
    }
}


// ************************************************************************* //
