/*--------------------------------*- C++ -*----------------------------------*\
| =========                 |                                                 |
| \\      /  F ield         | OpenFOAM: The Open Source CFD Toolbox           |
|  \\    /   O peration     | Version:  2212                                  |
|   \\  /    A nd           | Website:  www.openfoam.com                      |
|    \\/     M anipulation  |                                                 |
\*---------------------------------------------------------------------------*/
FoamFile
{
    version     2.0;
    format      ascii;
    arch        "LSB;label=32;scalar=64";
    class       volScalarField;
    location    "19/fluidRegion";
    object      htc;
}
// * * * * * * * * * * * * * * * * * * * * * * * * * * * * * * * * * * * * * //

dimensions      [1 0 -3 -1 0 0 0];

internalField   nonuniform List<scalar> 
350
(
3099.09
3099.11
3099.13
3099.14
3099.16
3099.18
3099.2
3099.21
3099.23
3099.25
3099.26
3099.28
3099.3
3099.31
3099.33
3099.35
3099.37
3099.38
3099.4
3099.42
3099.43
3099.45
3099.47
3099.48
3105.78
3099.09
3099.11
3099.13
3099.14
3099.16
3099.18
3099.2
3099.21
3099.23
3099.25
3099.26
3099.28
3099.3
3099.31
3099.33
3099.35
3099.37
3099.38
3099.4
3099.42
3099.43
3099.45
3099.47
3099.48
3105.78
23562.6
23534.7
23429.1
23208.7
22875.1
22430.8
21879.2
21224.8
20473.5
19633.1
18713.1
17724.7
16680.3
15592.3
14472.2
13329.6
12172.7
11009.9
9852.63
8718.91
7636.58
6647.08
5807.72
5186.46
4778.99
23633
23605.3
23500.6
23280.3
22946.4
22501.1
21947.8
21290.8
20536.1
19691.4
18766
17771.6
16720.7
15626.3
14500.2
13352.4
12190.9
11024.2
9863.3
8725.88
7639.8
6646.82
5804.96
5183.12
4777.53
23551.3
23523.1
23417.5
23197.1
22863.6
22419.5
21868.2
21214.2
20463.5
19623.8
18704.7
17717.2
16673.8
15586.8
14467.6
13325.8
12169.5
11007.3
9850.56
8717.35
7635.53
6646.47
5807.42
5186.25
4778.87
23617.4
23589.7
23484.7
23264.4
22930.5
22485.4
21932.4
21276
20522
19678.2
18754.1
17761
16711.6
15618.6
14493.9
13347.2
12186.9
11021
9860.94
8724.36
7639.14
6646.96
5805.68
5183.99
4777.92
23617.4
23589.7
23484.7
23264.4
22930.5
22485.4
21932.4
21276
20522
19678.2
18754.1
17761
16711.6
15618.6
14493.9
13347.2
12186.9
11021
9860.94
8724.36
7639.14
6646.96
5805.68
5183.99
4777.92
23551.3
23523.1
23417.5
23197.1
22863.6
22419.5
21868.2
21214.2
20463.5
19623.8
18704.7
17717.2
16673.8
15586.8
14467.6
13325.8
12169.5
11007.3
9850.55
8717.35
7635.52
6646.46
5807.41
5186.25
4778.87
23633
23605.3
23500.6
23280.3
22946.4
22501.1
21947.8
21290.8
20536.1
19691.4
18766
17771.6
16720.7
15626.3
14500.2
13352.4
12190.9
11024.2
9863.3
8725.88
7639.8
6646.82
5804.96
5183.12
4777.53
23562.6
23534.7
23429.1
23208.7
22875.1
22430.8
21879.2
21224.8
20473.5
19633.1
18713.1
17724.7
16680.3
15592.3
14472.2
13329.6
12172.7
11009.9
9852.63
8718.91
7636.58
6647.08
5807.72
5186.46
4778.99
23617.4
23589.7
23484.7
23264.4
22930.5
22485.4
21932.4
21276
20522
19678.2
18754.1
17761
16711.6
15618.6
14493.9
13347.2
12186.9
11021
9860.94
8724.36
7639.14
6646.96
5805.68
5183.99
4777.92
23551.3
23523.1
23417.5
23197.1
22863.6
22419.5
21868.2
21214.2
20463.5
19623.8
18704.7
17717.2
16673.8
15586.8
14467.6
13325.8
12169.5
11007.3
9850.56
8717.36
7635.53
6646.47
5807.42
5186.25
4778.87
23551.3
23523.1
23417.5
23197.1
22863.6
22419.5
21868.2
21214.2
20463.5
19623.8
18704.7
17717.2
16673.8
15586.8
14467.6
13325.8
12169.5
11007.3
9850.55
8717.35
7635.52
6646.46
5807.41
5186.25
4778.87
23617.4
23589.7
23484.7
23264.4
22930.5
22485.4
21932.4
21276
20522
19678.2
18754.1
17761
16711.6
15618.6
14493.9
13347.2
12186.9
11021
9860.94
8724.36
7639.14
6646.96
5805.68
5183.99
4777.92
)
;

boundaryField
{
    outletCentralUnloaded
    {
        type            zeroGradient;
    }
    inletCentralUnloaded
    {
        type            zeroGradient;
    }
    outletFuelElement
    {
        type            zeroGradient;
    }
    inletFuelElement
    {
        type            zeroGradient;
    }
    defaultFaces
    {
        type            zeroGradient;
    }
    baffle_master
    {
        type            zeroGradient;
    }
    baffle_slave
    {
        type            zeroGradient;
    }
}


// ************************************************************************* //
