/*--------------------------------*- C++ -*----------------------------------*\
| =========                 |                                                 |
| \\      /  F ield         | OpenFOAM: The Open Source CFD Toolbox           |
|  \\    /   O peration     | Version:  2212                                  |
|   \\  /    A nd           | Website:  www.openfoam.com                      |
|    \\/     M anipulation  |                                                 |
\*---------------------------------------------------------------------------*/
FoamFile
{
    version     2.0;
    format      ascii;
    arch        "LSB;label=32;scalar=64";
    class       volScalarField;
    location    "19/fluidRegion";
    object      p;
}
// * * * * * * * * * * * * * * * * * * * * * * * * * * * * * * * * * * * * * //

dimensions      [1 -1 -2 0 0 0 0];

internalField   nonuniform List<scalar> 
350
(
3.44743e+06
3.44772e+06
3.44802e+06
3.44831e+06
3.44861e+06
3.4489e+06
3.4492e+06
3.44949e+06
3.44979e+06
3.45008e+06
3.45038e+06
3.45067e+06
3.45097e+06
3.45126e+06
3.45156e+06
3.45185e+06
3.45215e+06
3.45244e+06
3.45274e+06
3.45303e+06
3.45333e+06
3.45362e+06
3.45392e+06
3.45421e+06
3.4545e+06
3.44743e+06
3.44772e+06
3.44802e+06
3.44831e+06
3.44861e+06
3.4489e+06
3.4492e+06
3.44949e+06
3.44979e+06
3.45008e+06
3.45038e+06
3.45067e+06
3.45097e+06
3.45126e+06
3.45156e+06
3.45185e+06
3.45215e+06
3.45244e+06
3.45274e+06
3.45303e+06
3.45333e+06
3.45362e+06
3.45392e+06
3.45421e+06
3.4545e+06
3.46796e+06
3.50863e+06
3.54913e+06
3.58918e+06
3.62852e+06
3.66687e+06
3.70399e+06
3.73966e+06
3.77368e+06
3.80586e+06
3.83604e+06
3.86409e+06
3.8899e+06
3.91339e+06
3.9345e+06
3.95324e+06
3.96964e+06
3.98375e+06
3.9957e+06
4.00561e+06
4.01364e+06
4.01996e+06
4.02478e+06
4.02834e+06
4.03091e+06
3.46796e+06
3.50863e+06
3.54913e+06
3.58918e+06
3.62852e+06
3.66687e+06
3.70399e+06
3.73966e+06
3.77368e+06
3.80586e+06
3.83604e+06
3.86409e+06
3.8899e+06
3.91339e+06
3.9345e+06
3.95324e+06
3.96964e+06
3.98376e+06
3.9957e+06
4.00561e+06
4.01364e+06
4.01996e+06
4.02478e+06
4.02834e+06
4.03091e+06
3.46796e+06
3.50863e+06
3.54913e+06
3.58918e+06
3.62852e+06
3.66687e+06
3.70399e+06
3.73966e+06
3.77368e+06
3.80586e+06
3.83604e+06
3.86409e+06
3.8899e+06
3.91339e+06
3.9345e+06
3.95324e+06
3.96964e+06
3.98375e+06
3.9957e+06
4.00561e+06
4.01364e+06
4.01996e+06
4.02478e+06
4.02834e+06
4.03091e+06
3.46796e+06
3.50863e+06
3.54913e+06
3.58918e+06
3.62852e+06
3.66687e+06
3.70399e+06
3.73966e+06
3.77368e+06
3.80586e+06
3.83604e+06
3.86409e+06
3.8899e+06
3.91339e+06
3.9345e+06
3.95324e+06
3.96964e+06
3.98375e+06
3.9957e+06
4.00561e+06
4.01364e+06
4.01996e+06
4.02478e+06
4.02834e+06
4.03091e+06
3.46796e+06
3.50863e+06
3.54913e+06
3.58918e+06
3.62852e+06
3.66687e+06
3.70399e+06
3.73966e+06
3.77368e+06
3.80586e+06
3.83604e+06
3.86409e+06
3.8899e+06
3.91339e+06
3.9345e+06
3.95324e+06
3.96964e+06
3.98375e+06
3.9957e+06
4.00561e+06
4.01364e+06
4.01996e+06
4.02478e+06
4.02834e+06
4.03091e+06
3.46796e+06
3.50863e+06
3.54913e+06
3.58918e+06
3.62852e+06
3.66687e+06
3.70399e+06
3.73966e+06
3.77368e+06
3.80586e+06
3.83604e+06
3.86409e+06
3.8899e+06
3.91339e+06
3.9345e+06
3.95324e+06
3.96964e+06
3.98375e+06
3.9957e+06
4.00561e+06
4.01364e+06
4.01996e+06
4.02478e+06
4.02834e+06
4.03091e+06
3.46796e+06
3.50863e+06
3.54913e+06
3.58918e+06
3.62852e+06
3.66687e+06
3.70399e+06
3.73966e+06
3.77368e+06
3.80586e+06
3.83604e+06
3.86409e+06
3.8899e+06
3.91339e+06
3.9345e+06
3.95324e+06
3.96964e+06
3.98376e+06
3.9957e+06
4.00561e+06
4.01364e+06
4.01996e+06
4.02478e+06
4.02834e+06
4.03091e+06
3.46796e+06
3.50863e+06
3.54913e+06
3.58918e+06
3.62852e+06
3.66687e+06
3.70399e+06
3.73966e+06
3.77368e+06
3.80586e+06
3.83604e+06
3.86409e+06
3.8899e+06
3.91339e+06
3.9345e+06
3.95324e+06
3.96964e+06
3.98375e+06
3.9957e+06
4.00561e+06
4.01364e+06
4.01996e+06
4.02478e+06
4.02834e+06
4.03091e+06
3.46796e+06
3.50863e+06
3.54913e+06
3.58918e+06
3.62852e+06
3.66687e+06
3.70399e+06
3.73966e+06
3.77368e+06
3.80586e+06
3.83604e+06
3.86409e+06
3.8899e+06
3.91339e+06
3.9345e+06
3.95324e+06
3.96964e+06
3.98375e+06
3.9957e+06
4.00561e+06
4.01364e+06
4.01996e+06
4.02478e+06
4.02834e+06
4.03091e+06
3.46796e+06
3.50863e+06
3.54913e+06
3.58918e+06
3.62852e+06
3.66687e+06
3.70399e+06
3.73966e+06
3.77368e+06
3.80586e+06
3.83604e+06
3.86409e+06
3.8899e+06
3.91339e+06
3.9345e+06
3.95324e+06
3.96964e+06
3.98375e+06
3.9957e+06
4.00561e+06
4.01364e+06
4.01996e+06
4.02478e+06
4.02834e+06
4.03091e+06
3.46796e+06
3.50863e+06
3.54913e+06
3.58918e+06
3.62852e+06
3.66687e+06
3.70399e+06
3.73966e+06
3.77368e+06
3.80586e+06
3.83604e+06
3.86409e+06
3.8899e+06
3.91339e+06
3.9345e+06
3.95324e+06
3.96964e+06
3.98375e+06
3.9957e+06
4.00561e+06
4.01364e+06
4.01996e+06
4.02478e+06
4.02834e+06
4.03091e+06
3.46796e+06
3.50863e+06
3.54913e+06
3.58918e+06
3.62852e+06
3.66687e+06
3.70399e+06
3.73966e+06
3.77368e+06
3.80586e+06
3.83604e+06
3.86409e+06
3.8899e+06
3.91339e+06
3.9345e+06
3.95324e+06
3.96964e+06
3.98375e+06
3.9957e+06
4.00561e+06
4.01364e+06
4.01996e+06
4.02478e+06
4.02834e+06
4.03091e+06
)
;

boundaryField
{
    outletCentralUnloaded
    {
        type            fixedValue;
        value           uniform 3.44728e+06;
    }
    inletCentralUnloaded
    {
        type            zeroGradient;
    }
    outletFuelElement
    {
        type            fixedValue;
        value           uniform 3.44728e+06;
    }
    inletFuelElement
    {
        type            zeroGradient;
    }
    defaultFaces
    {
        type            zeroGradient;
    }
    baffle_master
    {
        type            zeroGradient;
    }
    baffle_slave
    {
        type            zeroGradient;
    }
}


// ************************************************************************* //
