/*--------------------------------*- C++ -*----------------------------------*\
| =========                 |                                                 |
| \\      /  F ield         | OpenFOAM: The Open Source CFD Toolbox           |
|  \\    /   O peration     | Version:  2212                                  |
|   \\  /    A nd           | Website:  www.openfoam.com                      |
|    \\/     M anipulation  |                                                 |
\*---------------------------------------------------------------------------*/
FoamFile
{
    version     2.0;
    format      ascii;
    arch        "LSB;label=32;scalar=64";
    class       volScalarField;
    location    "19/fluidRegion";
    object      T.cladAvForNeutronics;
}
// * * * * * * * * * * * * * * * * * * * * * * * * * * * * * * * * * * * * * //

dimensions      [0 0 0 1 0 0 0];

internalField   nonuniform List<scalar> 
350
(
0
0
0
0
0
0
0
0
0
0
0
0
0
0
0
0
0
0
0
0
0
0
0
0
0
0
0
0
0
0
0
0
0
0
0
0
0
0
0
0
0
0
0
0
0
0
0
0
0
0
1531.55
1573.79
1604.36
1623.21
1630.46
1626.34
1611.21
1585.57
1550.04
1505.37
1452.44
1392.23
1325.86
1254.51
1179.42
1101.8
1022.71
942.84
862.266
780.016
693.507
597.897
486.068
351.474
196.768
1553.19
1596.15
1627.22
1646.4
1653.77
1649.57
1634.17
1608.07
1571.9
1526.43
1472.54
1411.23
1343.63
1270.95
1194.46
1115.39
1034.85
953.577
871.675
788.191
700.521
603.744
490.592
354.356
197.746
1528.01
1570.16
1600.65
1619.47
1626.71
1622.62
1607.55
1581.99
1546.57
1502.04
1449.27
1389.25
1323.08
1251.94
1177.08
1099.69
1020.83
941.186
860.821
778.765
692.44
597.015
485.394
351.047
196.619
1548.33
1591.11
1622.05
1641.14
1648.48
1644.28
1628.94
1602.93
1566.9
1521.61
1467.93
1406.87
1339.55
1267.17
1190.99
1112.26
1032.05
951.098
869.502
786.302
698.9
602.392
489.544
353.689
197.52
1548.33
1591.11
1622.05
1641.14
1648.48
1644.28
1628.94
1602.93
1566.9
1521.61
1467.93
1406.87
1339.55
1267.17
1190.99
1112.26
1032.05
951.098
869.502
786.302
698.9
602.392
489.545
353.689
197.52
1528.01
1570.16
1600.65
1619.47
1626.72
1622.62
1607.55
1581.99
1546.57
1502.04
1449.27
1389.25
1323.08
1251.94
1177.08
1099.69
1020.83
941.186
860.821
778.766
692.441
597.016
485.394
351.047
196.62
1553.19
1596.15
1627.22
1646.4
1653.77
1649.57
1634.17
1608.07
1571.9
1526.43
1472.54
1411.23
1343.63
1270.95
1194.46
1115.39
1034.85
953.577
871.675
788.191
700.521
603.744
490.592
354.356
197.746
1531.55
1573.79
1604.36
1623.21
1630.46
1626.34
1611.21
1585.57
1550.04
1505.37
1452.44
1392.23
1325.86
1254.51
1179.42
1101.8
1022.71
942.84
862.266
780.016
693.507
597.897
486.068
351.474
196.768
1548.33
1591.11
1622.05
1641.14
1648.48
1644.28
1628.94
1602.93
1566.9
1521.61
1467.93
1406.87
1339.55
1267.17
1190.99
1112.26
1032.05
951.098
869.502
786.302
698.9
602.392
489.545
353.689
197.52
1528.01
1570.16
1600.65
1619.47
1626.71
1622.62
1607.55
1581.99
1546.57
1502.04
1449.27
1389.25
1323.08
1251.94
1177.08
1099.69
1020.83
941.186
860.821
778.765
692.44
597.015
485.394
351.047
196.619
1528.01
1570.16
1600.65
1619.47
1626.72
1622.62
1607.55
1581.99
1546.57
1502.04
1449.27
1389.25
1323.08
1251.94
1177.08
1099.69
1020.83
941.186
860.821
778.766
692.441
597.016
485.394
351.047
196.62
1548.33
1591.11
1622.05
1641.14
1648.48
1644.28
1628.94
1602.93
1566.9
1521.61
1467.93
1406.87
1339.55
1267.17
1190.99
1112.26
1032.05
951.098
869.502
786.302
698.9
602.392
489.545
353.689
197.52
)
;

boundaryField
{
    outletCentralUnloaded
    {
        type            zeroGradient;
    }
    inletCentralUnloaded
    {
        type            zeroGradient;
    }
    outletFuelElement
    {
        type            zeroGradient;
    }
    inletFuelElement
    {
        type            zeroGradient;
    }
    defaultFaces
    {
        type            zeroGradient;
    }
    baffle_master
    {
        type            zeroGradient;
    }
    baffle_slave
    {
        type            zeroGradient;
    }
}


// ************************************************************************* //
