/*--------------------------------*- C++ -*----------------------------------*\
| =========                 |                                                 |
| \\      /  F ield         | OpenFOAM: The Open Source CFD Toolbox           |
|  \\    /   O peration     | Version:  2212                                  |
|   \\  /    A nd           | Website:  www.openfoam.com                      |
|    \\/     M anipulation  |                                                 |
\*---------------------------------------------------------------------------*/
FoamFile
{
    version     2.0;
    format      ascii;
    arch        "LSB;label=32;scalar=64";
    class       volScalarField;
    location    "19/fluidRegion";
    object      Tci.nuclearFuelPin;
}
// * * * * * * * * * * * * * * * * * * * * * * * * * * * * * * * * * * * * * //

dimensions      [0 0 0 1 0 0 0];

internalField   nonuniform List<scalar> 
350
(
0
0
0
0
0
0
0
0
0
0
0
0
0
0
0
0
0
0
0
0
0
0
0
0
0
0
0
0
0
0
0
0
0
0
0
0
0
0
0
0
0
0
0
0
0
0
0
0
0
0
1531.03
1583.46
1624
1652.49
1668.88
1673.24
1665.81
1646.96
1617.21
1577.22
1527.79
1469.85
1404.48
1332.84
1256.18
1175.74
1092.6
1007.54
920.715
831.255
736.715
632.417
511.44
367.447
203.243
1552.61
1605.86
1647.03
1675.95
1692.56
1696.94
1689.33
1670.11
1639.79
1599.05
1548.71
1489.7
1423.11
1350.14
1272.06
1190.14
1105.51
1018.99
930.768
839.994
744.202
638.638
516.233
370.491
204.275
1527.51
1579.81
1620.27
1648.71
1665.07
1669.44
1662.06
1643.28
1613.64
1573.78
1524.5
1466.74
1401.56
1330.14
1253.71
1173.5
1090.6
1005.78
919.167
829.915
735.573
631.476
510.723
366.994
203.086
1547.76
1600.81
1641.83
1670.64
1687.18
1691.55
1683.97
1664.82
1634.63
1594.05
1543.91
1485.14
1418.83
1346.16
1268.4
1186.82
1102.53
1016.35
928.446
837.975
742.472
637.2
515.124
369.786
204.037
1547.76
1600.81
1641.83
1670.64
1687.18
1691.55
1683.97
1664.82
1634.63
1594.05
1543.91
1485.14
1418.83
1346.16
1268.4
1186.82
1102.53
1016.35
928.446
837.975
742.472
637.2
515.124
369.786
204.037
1527.51
1579.81
1620.27
1648.71
1665.07
1669.44
1662.06
1643.28
1613.64
1573.78
1524.5
1466.74
1401.56
1330.14
1253.71
1173.5
1090.6
1005.78
919.167
829.915
735.573
631.476
510.723
366.994
203.086
1552.61
1605.86
1647.03
1675.95
1692.56
1696.94
1689.33
1670.11
1639.79
1599.05
1548.71
1489.7
1423.11
1350.14
1272.06
1190.14
1105.51
1018.99
930.768
839.994
744.202
638.638
516.233
370.491
204.275
1531.03
1583.46
1624
1652.49
1668.88
1673.24
1665.81
1646.96
1617.21
1577.22
1527.79
1469.85
1404.48
1332.84
1256.18
1175.74
1092.6
1007.54
920.715
831.255
736.715
632.417
511.44
367.447
203.243
1547.76
1600.81
1641.83
1670.64
1687.18
1691.55
1683.97
1664.82
1634.63
1594.05
1543.91
1485.14
1418.83
1346.16
1268.4
1186.82
1102.53
1016.35
928.446
837.975
742.472
637.2
515.124
369.786
204.037
1527.51
1579.81
1620.27
1648.71
1665.07
1669.44
1662.06
1643.28
1613.64
1573.78
1524.5
1466.74
1401.56
1330.14
1253.71
1173.5
1090.6
1005.78
919.167
829.915
735.573
631.476
510.723
366.994
203.086
1527.51
1579.81
1620.27
1648.71
1665.07
1669.44
1662.06
1643.28
1613.64
1573.78
1524.5
1466.74
1401.56
1330.14
1253.71
1173.5
1090.6
1005.78
919.167
829.915
735.573
631.476
510.723
366.994
203.086
1547.76
1600.8
1641.83
1670.64
1687.18
1691.55
1683.97
1664.82
1634.63
1594.05
1543.91
1485.14
1418.83
1346.16
1268.4
1186.82
1102.53
1016.35
928.446
837.975
742.472
637.2
515.124
369.786
204.037
)
;

boundaryField
{
    outletCentralUnloaded
    {
        type            zeroGradient;
    }
    inletCentralUnloaded
    {
        type            zeroGradient;
    }
    outletFuelElement
    {
        type            zeroGradient;
    }
    inletFuelElement
    {
        type            zeroGradient;
    }
    defaultFaces
    {
        type            zeroGradient;
    }
    baffle_master
    {
        type            zeroGradient;
    }
    baffle_slave
    {
        type            zeroGradient;
    }
}


// ************************************************************************* //
