/*--------------------------------*- C++ -*----------------------------------*\
| =========                 |                                                 |
| \\      /  F ield         | OpenFOAM: The Open Source CFD Toolbox           |
|  \\    /   O peration     | Version:  2212                                  |
|   \\  /    A nd           | Website:  www.openfoam.com                      |
|    \\/     M anipulation  |                                                 |
\*---------------------------------------------------------------------------*/
FoamFile
{
    version     2.0;
    format      ascii;
    arch        "LSB;label=32;scalar=64";
    class       volScalarField;
    location    "19/fluidRegion";
    object      Tco.nuclearFuelPin;
}
// * * * * * * * * * * * * * * * * * * * * * * * * * * * * * * * * * * * * * //

dimensions      [0 0 0 1 0 0 0];

internalField   nonuniform List<scalar> 
350
(
0
0
0
0
0
0
0
0
0
0
0
0
0
0
0
0
0
0
0
0
0
0
0
0
0
0
0
0
0
0
0
0
0
0
0
0
0
0
0
0
0
0
0
0
0
0
0
0
0
0
1532.07
1564.81
1586.05
1595.91
1594.63
1582.59
1560.27
1528.29
1487.36
1438.32
1382.12
1319.8
1252.49
1181.4
1107.78
1032.8
957.476
882.453
807.716
732.195
653.182
565.68
462.389
336.566
190.723
1553.77
1587.11
1608.76
1618.84
1617.58
1605.37
1582.7
1550.18
1508.55
1458.66
1401.46
1338.01
1269.47
1197.05
1122.03
1045.63
968.901
892.525
816.524
739.844
659.755
571.178
466.661
339.297
191.65
1528.52
1561.18
1582.36
1592.21
1590.94
1578.94
1556.69
1524.8
1484
1435.11
1379.07
1316.94
1249.84
1178.97
1105.57
1030.81
955.714
880.905
806.367
731.029
652.186
564.854
461.755
336.164
190.582
1548.89
1582.09
1603.63
1613.64
1612.38
1600.19
1577.59
1545.19
1503.71
1454
1397.03
1333.83
1265.56
1193.45
1118.75
1042.67
966.264
890.199
814.489
738.076
658.235
569.906
465.672
338.664
191.436
1548.89
1582.09
1603.63
1613.64
1612.38
1600.19
1577.59
1545.19
1503.71
1454
1397.03
1333.83
1265.56
1193.45
1118.75
1042.67
966.264
890.199
814.489
738.076
658.235
569.906
465.672
338.664
191.436
1528.52
1561.18
1582.37
1592.21
1590.94
1578.94
1556.69
1524.8
1484
1435.11
1379.08
1316.94
1249.84
1178.97
1105.57
1030.81
955.715
880.905
806.368
731.029
652.186
564.855
461.756
336.164
190.582
1553.77
1587.11
1608.76
1618.84
1617.58
1605.37
1582.7
1550.18
1508.55
1458.66
1401.46
1338.01
1269.47
1197.05
1122.03
1045.63
968.901
892.525
816.524
739.844
659.755
571.179
466.662
339.297
191.65
1532.07
1564.81
1586.05
1595.91
1594.63
1582.59
1560.27
1528.29
1487.36
1438.32
1382.12
1319.8
1252.49
1181.4
1107.78
1032.8
957.476
882.453
807.716
732.195
653.182
565.68
462.389
336.566
190.723
1548.89
1582.09
1603.63
1613.64
1612.38
1600.19
1577.59
1545.19
1503.71
1454
1397.03
1333.83
1265.56
1193.45
1118.75
1042.67
966.264
890.199
814.489
738.076
658.235
569.906
465.672
338.664
191.436
1528.52
1561.18
1582.36
1592.21
1590.94
1578.94
1556.69
1524.8
1484
1435.11
1379.07
1316.94
1249.84
1178.97
1105.57
1030.81
955.714
880.905
806.367
731.029
652.186
564.854
461.755
336.164
190.582
1528.52
1561.18
1582.37
1592.21
1590.94
1578.94
1556.69
1524.8
1484
1435.11
1379.08
1316.94
1249.84
1178.97
1105.57
1030.81
955.715
880.905
806.368
731.029
652.186
564.855
461.756
336.164
190.582
1548.89
1582.09
1603.63
1613.64
1612.38
1600.19
1577.59
1545.19
1503.71
1454
1397.03
1333.83
1265.56
1193.45
1118.75
1042.67
966.264
890.199
814.489
738.076
658.235
569.906
465.672
338.664
191.436
)
;

boundaryField
{
    outletCentralUnloaded
    {
        type            zeroGradient;
    }
    inletCentralUnloaded
    {
        type            zeroGradient;
    }
    outletFuelElement
    {
        type            zeroGradient;
    }
    inletFuelElement
    {
        type            zeroGradient;
    }
    defaultFaces
    {
        type            zeroGradient;
    }
    baffle_master
    {
        type            zeroGradient;
    }
    baffle_slave
    {
        type            zeroGradient;
    }
}


// ************************************************************************* //
