/*--------------------------------*- C++ -*----------------------------------*\
| =========                 |                                                 |
| \\      /  F ield         | OpenFOAM: The Open Source CFD Toolbox           |
|  \\    /   O peration     | Version:  2212                                  |
|   \\  /    A nd           | Website:  www.openfoam.com                      |
|    \\/     M anipulation  |                                                 |
\*---------------------------------------------------------------------------*/
FoamFile
{
    version     2.0;
    format      ascii;
    arch        "LSB;label=32;scalar=64";
    class       volScalarField;
    location    "19/fluidRegion";
    object      Tfi.nuclearFuelPin;
}
// * * * * * * * * * * * * * * * * * * * * * * * * * * * * * * * * * * * * * //

dimensions      [0 0 0 1 0 0 0];

internalField   nonuniform List<scalar> 
350
(
0
0
0
0
0
0
0
0
0
0
0
0
0
0
0
0
0
0
0
0
0
0
0
0
0
0
0
0
0
0
0
0
0
0
0
0
0
0
0
0
0
0
0
0
0
0
0
0
0
0
1484.68
2450.31
3387.38
4281.36
5118.4
5885.49
6570.74
7163.52
7654.63
8036.47
8303.16
8450.61
8476.59
8380.77
8164.69
7831.7
7386.86
6836.78
6189.38
5453.73
4639.49
3756.88
2816.41
1830.11
814.27
1499.97
2476.81
3424.75
4329.07
5175.76
5951.67
6644.77
7244.29
7740.96
8127.07
8396.67
8545.64
8571.72
8474.59
8255.81
7918.79
7468.66
6912.1
6257.14
5512.97
4689.35
3796.6
2845.34
1847.7
820.17
1482.19
2446.04
3381.39
4273.73
5109.24
5874.93
6558.94
7150.65
7640.88
8022.05
8288.28
8435.49
8461.46
8365.85
8150.19
7817.85
7373.86
6824.81
6178.61
5444.32
4631.57
3750.57
2811.82
1827.32
813.333
1496.5
2470.76
3416.19
4318.13
5162.59
5936.47
6627.75
7225.72
7721.1
8106.23
8375.15
8523.77
8549.83
8453
8234.84
7898.74
7449.82
6894.76
6241.54
5499.33
4677.87
3787.46
2838.68
1843.65
818.812
1496.5
2470.76
3416.19
4318.13
5162.59
5936.47
6627.75
7225.72
7721.1
8106.23
8375.15
8523.77
8549.83
8453
8234.84
7898.74
7449.82
6894.76
6241.54
5499.33
4677.87
3787.46
2838.68
1843.65
818.812
1482.19
2446.04
3381.39
4273.73
5109.24
5874.93
6558.94
7150.65
7640.88
8022.05
8288.28
8435.49
8461.46
8365.85
8150.19
7817.85
7373.86
6824.81
6178.61
5444.32
4631.57
3750.58
2811.82
1827.32
813.334
1499.97
2476.81
3424.75
4329.07
5175.76
5951.67
6644.77
7244.29
7740.96
8127.07
8396.67
8545.64
8571.72
8474.59
8255.81
7918.79
7468.66
6912.1
6257.14
5512.97
4689.35
3796.6
2845.34
1847.7
820.17
1484.68
2450.3
3387.38
4281.36
5118.4
5885.49
6570.74
7163.52
7654.63
8036.47
8303.16
8450.61
8476.59
8380.77
8164.68
7831.7
7386.86
6836.78
6189.38
5453.73
4639.49
3756.88
2816.41
1830.11
814.27
1496.5
2470.76
3416.19
4318.13
5162.59
5936.47
6627.75
7225.72
7721.1
8106.23
8375.15
8523.77
8549.83
8453
8234.84
7898.74
7449.82
6894.76
6241.54
5499.33
4677.87
3787.46
2838.68
1843.65
818.812
1482.19
2446.04
3381.39
4273.73
5109.23
5874.93
6558.94
7150.65
7640.88
8022.05
8288.28
8435.49
8461.46
8365.85
8150.19
7817.85
7373.86
6824.81
6178.61
5444.32
4631.57
3750.57
2811.82
1827.32
813.333
1482.19
2446.04
3381.39
4273.73
5109.24
5874.93
6558.94
7150.65
7640.88
8022.05
8288.28
8435.49
8461.46
8365.85
8150.19
7817.85
7373.86
6824.81
6178.61
5444.32
4631.57
3750.57
2811.82
1827.32
813.333
1496.5
2470.76
3416.19
4318.13
5162.59
5936.47
6627.75
7225.72
7721.1
8106.22
8375.15
8523.77
8549.83
8453
8234.84
7898.74
7449.82
6894.76
6241.54
5499.33
4677.87
3787.46
2838.68
1843.65
818.812
)
;

boundaryField
{
    outletCentralUnloaded
    {
        type            zeroGradient;
    }
    inletCentralUnloaded
    {
        type            zeroGradient;
    }
    outletFuelElement
    {
        type            zeroGradient;
    }
    inletFuelElement
    {
        type            zeroGradient;
    }
    defaultFaces
    {
        type            zeroGradient;
    }
    baffle_master
    {
        type            zeroGradient;
    }
    baffle_slave
    {
        type            zeroGradient;
    }
}


// ************************************************************************* //
