/*--------------------------------*- C++ -*----------------------------------*\
| =========                 |                                                 |
| \\      /  F ield         | OpenFOAM: The Open Source CFD Toolbox           |
|  \\    /   O peration     | Version:  2212                                  |
|   \\  /    A nd           | Website:  www.openfoam.com                      |
|    \\/     M anipulation  |                                                 |
\*---------------------------------------------------------------------------*/
FoamFile
{
    version     2.0;
    format      ascii;
    arch        "LSB;label=32;scalar=64";
    class       volScalarField;
    location    "19/fluidRegion";
    object      Tfo.nuclearFuelPin;
}
// * * * * * * * * * * * * * * * * * * * * * * * * * * * * * * * * * * * * * //

dimensions      [0 0 0 1 0 0 0];

internalField   nonuniform List<scalar> 
350
(
0
0
0
0
0
0
0
0
0
0
0
0
0
0
0
0
0
0
0
0
0
0
0
0
0
0
0
0
0
0
0
0
0
0
0
0
0
0
0
0
0
0
0
0
0
0
0
0
0
0
1528.06
1864.98
2184.64
2482.38
2753.87
2995.14
3202.67
3373.42
3504.9
3595.23
3643.15
3648.04
3609.99
3529.71
3408.57
3248.48
3051.77
2821.03
2558.81
2267.31
1947.78
1600.1
1222.69
814.929
383.859
1547.99
1888.99
2212.47
2513.72
2788.37
3032.4
3242.24
3414.82
3547.62
3638.75
3686.92
3691.53
3652.65
3571.03
3448.05
3285.67
3086.27
2852.49
2586.94
2291.87
1968.54
1616.81
1235.05
822.533
386.417
1524.8
1861.09
2180.15
2477.34
2748.34
2989.19
3196.36
3366.83
3498.11
3588.32
3636.2
3641.15
3603.23
3523.18
3402.33
3242.6
3046.33
2816.07
2554.38
2263.44
1944.51
1597.47
1220.76
813.744
383.457
1543.5
1883.56
2206.14
2506.58
2780.49
3023.88
3233.18
3405.32
3537.82
3628.75
3676.86
3681.53
3642.84
3561.52
3438.96
3277.1
3078.32
2845.24
2580.46
2286.21
1963.75
1612.96
1232.2
820.779
385.827
1543.5
1883.56
2206.14
2506.58
2780.49
3023.88
3233.18
3405.32
3537.82
3628.75
3676.86
3681.53
3642.84
3561.52
3438.96
3277.1
3078.32
2845.24
2580.46
2286.21
1963.75
1612.96
1232.2
820.779
385.827
1524.8
1861.09
2180.15
2477.34
2748.34
2989.19
3196.36
3366.83
3498.11
3588.32
3636.2
3641.15
3603.23
3523.18
3402.33
3242.6
3046.33
2816.07
2554.38
2263.44
1944.51
1597.47
1220.76
813.744
383.457
1547.99
1888.99
2212.47
2513.72
2788.37
3032.4
3242.24
3414.82
3547.62
3638.75
3686.92
3691.53
3652.65
3571.03
3448.05
3285.67
3086.27
2852.49
2586.94
2291.87
1968.54
1616.82
1235.05
822.533
386.417
1528.06
1864.98
2184.64
2482.38
2753.87
2995.14
3202.67
3373.42
3504.9
3595.23
3643.14
3648.04
3609.99
3529.71
3408.57
3248.48
3051.77
2821.03
2558.81
2267.31
1947.78
1600.1
1222.69
814.929
383.859
1543.5
1883.56
2206.14
2506.58
2780.49
3023.88
3233.18
3405.32
3537.82
3628.75
3676.86
3681.53
3642.84
3561.52
3438.96
3277.1
3078.32
2845.24
2580.46
2286.21
1963.75
1612.96
1232.2
820.779
385.827
1524.8
1861.09
2180.15
2477.34
2748.34
2989.19
3196.36
3366.83
3498.11
3588.32
3636.2
3641.15
3603.23
3523.17
3402.33
3242.6
3046.33
2816.07
2554.38
2263.44
1944.51
1597.47
1220.76
813.744
383.457
1524.8
1861.09
2180.15
2477.34
2748.34
2989.19
3196.36
3366.83
3498.11
3588.32
3636.2
3641.15
3603.23
3523.18
3402.33
3242.6
3046.33
2816.07
2554.38
2263.44
1944.51
1597.47
1220.76
813.744
383.457
1543.5
1883.56
2206.14
2506.58
2780.49
3023.88
3233.18
3405.32
3537.82
3628.75
3676.86
3681.53
3642.84
3561.52
3438.96
3277.1
3078.32
2845.24
2580.46
2286.21
1963.75
1612.96
1232.2
820.779
385.827
)
;

boundaryField
{
    outletCentralUnloaded
    {
        type            zeroGradient;
    }
    inletCentralUnloaded
    {
        type            zeroGradient;
    }
    outletFuelElement
    {
        type            zeroGradient;
    }
    inletFuelElement
    {
        type            zeroGradient;
    }
    defaultFaces
    {
        type            zeroGradient;
    }
    baffle_master
    {
        type            zeroGradient;
    }
    baffle_slave
    {
        type            zeroGradient;
    }
}


// ************************************************************************* //
