/*--------------------------------*- C++ -*----------------------------------*\
| =========                 |                                                 |
| \\      /  F ield         | OpenFOAM: The Open Source CFD Toolbox           |
|  \\    /   O peration     | Version:  2212                                  |
|   \\  /    A nd           | Website:  www.openfoam.com                      |
|    \\/     M anipulation  |                                                 |
\*---------------------------------------------------------------------------*/
FoamFile
{
    version     2.0;
    format      ascii;
    arch        "LSB;label=32;scalar=64";
    class       volScalarField;
    location    "37/neutroRegion";
    object      TClad;
}
// * * * * * * * * * * * * * * * * * * * * * * * * * * * * * * * * * * * * * //

dimensions      [0 0 0 1 0 0 0];

internalField   nonuniform List<scalar> 
350
(
0
0
0
0
0
0
0
0
0
0
0
0
0
0
0
0
0
0
0
0
0
0
0
0
0
0
0
0
0
0
0
0
0
0
0
0
0
0
0
0
0
0
0
0
0
0
0
0
0
0
1829.68
1868.47
1894.32
1907.22
1907.31
1894.85
1870.27
1834.14
1787.16
1730.18
1664.17
1590.23
1509.59
1423.58
1333.63
1241.19
1147.65
1054.06
960.787
867.009
769.792
662.902
535.795
376.746
187.51
1857.72
1897.14
1923.4
1936.48
1936.52
1923.78
1898.71
1861.88
1814.01
1755.95
1688.7
1613.37
1531.2
1443.55
1351.86
1257.63
1162.29
1066.94
972.01
876.715
778.119
669.904
541.311
380.326
188.72
1825.12
1863.83
1889.63
1902.53
1902.64
1890.25
1865.76
1829.75
1782.93
1726.13
1660.33
1586.63
1506.23
1420.49
1330.81
1238.66
1145.41
1052.09
959.076
865.535
768.535
661.857
534.982
376.223
187.325
1851.41
1890.68
1916.82
1929.85
1929.88
1917.2
1892.23
1855.54
1807.86
1750.05
1683.07
1608.06
1526.23
1438.95
1347.66
1253.84
1158.91
1063.96
969.415
874.471
776.192
668.283
540.033
379.495
188.44
1851.41
1890.68
1916.82
1929.85
1929.88
1917.2
1892.23
1855.54
1807.86
1750.05
1683.07
1608.06
1526.23
1438.95
1347.66
1253.84
1158.91
1063.96
969.415
874.471
776.192
668.283
540.033
379.495
188.44
1825.12
1863.83
1889.64
1902.53
1902.64
1890.25
1865.76
1829.75
1782.93
1726.13
1660.33
1586.63
1506.24
1420.49
1330.81
1238.66
1145.41
1052.09
959.077
865.536
768.536
661.858
534.983
376.224
187.325
1857.72
1897.14
1923.4
1936.48
1936.52
1923.78
1898.71
1861.88
1814.01
1755.95
1688.7
1613.37
1531.2
1443.55
1351.86
1257.63
1162.29
1066.94
972.01
876.715
778.119
669.904
541.312
380.326
188.72
1829.68
1868.47
1894.32
1907.22
1907.31
1894.85
1870.27
1834.14
1787.16
1730.18
1664.17
1590.23
1509.59
1423.58
1333.63
1241.19
1147.65
1054.06
960.787
867.009
769.792
662.902
535.795
376.746
187.51
1851.41
1890.68
1916.82
1929.85
1929.88
1917.2
1892.23
1855.54
1807.86
1750.05
1683.07
1608.06
1526.23
1438.95
1347.66
1253.84
1158.91
1063.96
969.415
874.471
776.192
668.283
540.033
379.495
188.44
1825.12
1863.83
1889.63
1902.53
1902.64
1890.25
1865.76
1829.75
1782.93
1726.13
1660.33
1586.63
1506.23
1420.49
1330.81
1238.66
1145.41
1052.09
959.076
865.535
768.535
661.857
534.982
376.223
187.325
1825.12
1863.83
1889.64
1902.53
1902.65
1890.25
1865.76
1829.75
1782.93
1726.13
1660.33
1586.63
1506.24
1420.49
1330.81
1238.66
1145.41
1052.09
959.077
865.536
768.536
661.858
534.983
376.224
187.325
1851.41
1890.68
1916.82
1929.85
1929.88
1917.2
1892.23
1855.54
1807.86
1750.05
1683.07
1608.06
1526.23
1438.95
1347.66
1253.84
1158.91
1063.96
969.415
874.471
776.192
668.283
540.033
379.495
188.44
)
;

boundaryField
{
    outletCentralUnloaded
    {
        type            zeroGradient;
    }
    inletCentralUnloaded
    {
        type            zeroGradient;
    }
    outletFuelElement
    {
        type            zeroGradient;
    }
    inletFuelElement
    {
        type            zeroGradient;
    }
    defaultFaces
    {
        type            zeroGradient;
    }
}


// ************************************************************************* //
