/*--------------------------------*- C++ -*----------------------------------*\
| =========                 |                                                 |
| \\      /  F ield         | OpenFOAM: The Open Source CFD Toolbox           |
|  \\    /   O peration     | Version:  2212                                  |
|   \\  /    A nd           | Website:  www.openfoam.com                      |
|    \\/     M anipulation  |                                                 |
\*---------------------------------------------------------------------------*/
FoamFile
{
    version     2.0;
    format      ascii;
    arch        "LSB;label=32;scalar=64";
    class       volScalarField;
    location    "37/neutroRegion";
    object      TFuel;
}
// * * * * * * * * * * * * * * * * * * * * * * * * * * * * * * * * * * * * * //

dimensions      [0 0 0 1 0 0 0];

internalField   nonuniform List<scalar> 
350
(
0
0
0
0
0
0
0
0
0
0
0
0
0
0
0
0
0
0
0
0
0
0
0
0
0
0
0
0
0
0
0
0
0
0
0
0
0
0
0
0
0
0
0
0
0
0
0
0
0
0
2163.58
2948.15
3702.28
4414.51
5073.93
5670.44
6194.86
6639.11
6996.34
7261.02
7429.08
7497.93
7466.55
7335.52
7106.98
6784.57
6373.29
5879.19
5308.94
4669.33
3965.96
3202.51
2379.27
1496.21
566.701
2194.99
2988.73
3751.62
4472.05
5138.99
5742.21
6272.45
6721.52
7082.5
7349.82
7519.33
7588.45
7556.13
7422.96
7191.12
6864.31
6447.61
5947.19
5369.85
4722.49
4010.81
3238.52
2405.81
1512.53
572.181
2158.49
2941.61
3694.37
4405.31
5063.55
5659.01
6182.52
6626.02
6982.66
7246.94
7414.77
7483.59
7452.37
7321.68
7093.66
6771.96
6361.54
5868.44
5299.32
4660.93
3958.89
3196.84
2375.1
1493.66
565.837
2187.9
2979.52
3740.38
4458.9
5124.1
5725.77
6254.65
6702.6
7062.71
7329.41
7498.58
7567.62
7535.51
7402.83
7171.74
6845.94
6430.49
5931.53
5355.82
4710.24
4000.48
3230.22
2399.69
1508.77
570.918
2187.9
2979.52
3740.38
4458.91
5124.1
5725.77
6254.65
6702.6
7062.71
7329.41
7498.58
7567.62
7535.51
7402.83
7171.74
6845.94
6430.49
5931.53
5355.82
4710.24
4000.48
3230.22
2399.69
1508.77
570.918
2158.49
2941.61
3694.37
4405.31
5063.56
5659.01
6182.52
6626.02
6982.66
7246.94
7414.77
7483.59
7452.37
7321.68
7093.66
6771.96
6361.54
5868.44
5299.32
4660.94
3958.89
3196.85
2375.1
1493.66
565.837
2194.99
2988.73
3751.62
4472.05
5138.99
5742.21
6272.45
6721.52
7082.5
7349.82
7519.33
7588.45
7556.13
7422.96
7191.12
6864.31
6447.61
5947.19
5369.85
4722.49
4010.81
3238.52
2405.81
1512.53
572.181
2163.58
2948.15
3702.28
4414.51
5073.93
5670.44
6194.86
6639.11
6996.34
7261.02
7429.08
7497.93
7466.55
7335.52
7106.98
6784.57
6373.29
5879.19
5308.94
4669.33
3965.96
3202.51
2379.27
1496.21
566.701
2187.9
2979.52
3740.38
4458.91
5124.1
5725.77
6254.65
6702.6
7062.71
7329.41
7498.58
7567.62
7535.51
7402.83
7171.74
6845.94
6430.49
5931.53
5355.82
4710.24
4000.48
3230.22
2399.69
1508.77
570.918
2158.49
2941.61
3694.37
4405.31
5063.55
5659.01
6182.52
6626.02
6982.66
7246.94
7414.77
7483.59
7452.37
7321.68
7093.66
6771.96
6361.54
5868.44
5299.32
4660.93
3958.89
3196.85
2375.1
1493.66
565.837
2158.49
2941.61
3694.37
4405.31
5063.56
5659.01
6182.52
6626.02
6982.66
7246.94
7414.77
7483.59
7452.37
7321.68
7093.66
6771.96
6361.54
5868.44
5299.32
4660.94
3958.89
3196.85
2375.1
1493.66
565.837
2187.9
2979.52
3740.38
4458.91
5124.1
5725.77
6254.65
6702.6
7062.71
7329.41
7498.58
7567.62
7535.51
7402.83
7171.74
6845.94
6430.49
5931.53
5355.82
4710.24
4000.48
3230.22
2399.69
1508.77
570.918
)
;

boundaryField
{
    outletCentralUnloaded
    {
        type            zeroGradient;
    }
    inletCentralUnloaded
    {
        type            zeroGradient;
    }
    outletFuelElement
    {
        type            zeroGradient;
    }
    inletFuelElement
    {
        type            zeroGradient;
    }
    defaultFaces
    {
        type            zeroGradient;
    }
}


// ************************************************************************* //
