/*--------------------------------*- C++ -*----------------------------------*\
| =========                 |                                                 |
| \\      /  F ield         | OpenFOAM: The Open Source CFD Toolbox           |
|  \\    /   O peration     | Version:  2212                                  |
|   \\  /    A nd           | Website:  www.openfoam.com                      |
|    \\/     M anipulation  |                                                 |
\*---------------------------------------------------------------------------*/
FoamFile
{
    version     2.0;
    format      ascii;
    arch        "LSB;label=32;scalar=64";
    class       volScalarField;
    location    "15/neutroRegion";
    object      TCool;
}
// * * * * * * * * * * * * * * * * * * * * * * * * * * * * * * * * * * * * * //

dimensions      [0 0 0 1 0 0 0];

internalField   nonuniform List<scalar> 
350
(
83.2881
83.2886
83.2891
83.2896
83.2901
83.2906
83.2911
83.2916
83.2921
83.2926
83.2931
83.2937
83.2942
83.2947
83.2952
83.2957
83.2962
83.2967
83.2972
83.2977
83.2982
83.2987
83.2992
83.2997
83.3001
83.2881
83.2886
83.2891
83.2896
83.2901
83.2906
83.2911
83.2916
83.2921
83.2926
83.2931
83.2937
83.2942
83.2947
83.2952
83.2957
83.2962
83.2967
83.2972
83.2977
83.2982
83.2987
83.2992
83.2997
83.3001
1240.3
1244.11
1238.59
1223.86
1200.12
1167.73
1127.12
1078.86
1023.65
962.318
895.809
825.208
751.717
676.628
601.282
527.021
455.137
386.836
323.225
265.323
214.076
170.382
135.042
108.644
91.4034
1256.37
1260.54
1255.22
1240.54
1216.7
1184.03
1143
1094.17
1038.24
976.047
908.553
836.859
762.185
685.854
609.24
533.721
460.624
391.186
326.541
267.726
215.704
171.383
135.573
108.861
91.4505
1237.65
1241.42
1235.88
1221.15
1197.44
1165.1
1124.57
1076.41
1021.33
960.141
893.796
823.376
750.078
675.189
600.047
525.986
454.294
386.171
322.721
264.96
213.831
170.232
134.963
108.611
91.3958
1252.76
1256.84
1251.47
1236.76
1212.94
1180.33
1139.38
1090.68
1034.91
972.909
905.636
834.188
759.783
683.734
607.409
532.178
459.359
390.183
325.776
267.171
215.328
171.152
135.45
108.81
91.4397
1252.76
1256.84
1251.47
1236.76
1212.94
1180.33
1139.38
1090.68
1034.91
972.909
905.636
834.188
759.783
683.734
607.409
532.178
459.359
390.183
325.776
267.171
215.328
171.152
135.45
108.81
91.4397
1237.65
1241.42
1235.88
1221.15
1197.44
1165.1
1124.57
1076.41
1021.33
960.141
893.796
823.376
750.079
675.19
600.047
525.987
454.295
386.172
322.722
264.96
213.832
170.233
134.963
108.611
91.3958
1256.37
1260.54
1255.22
1240.54
1216.7
1184.03
1143
1094.17
1038.24
976.047
908.553
836.859
762.185
685.854
609.24
533.721
460.624
391.186
326.541
267.726
215.704
171.383
135.573
108.861
91.4505
1240.3
1244.11
1238.59
1223.86
1200.12
1167.73
1127.12
1078.86
1023.65
962.318
895.809
825.208
751.717
676.628
601.282
527.021
455.137
386.836
323.225
265.323
214.076
170.382
135.042
108.644
91.4034
1252.76
1256.84
1251.47
1236.76
1212.94
1180.33
1139.38
1090.68
1034.91
972.909
905.636
834.188
759.783
683.734
607.409
532.178
459.359
390.183
325.776
267.171
215.328
171.152
135.45
108.81
91.4397
1237.65
1241.42
1235.88
1221.15
1197.44
1165.1
1124.57
1076.41
1021.33
960.141
893.796
823.376
750.078
675.189
600.047
525.986
454.294
386.171
322.721
264.96
213.831
170.232
134.963
108.611
91.3958
1237.65
1241.42
1235.88
1221.15
1197.44
1165.1
1124.57
1076.41
1021.33
960.141
893.796
823.376
750.079
675.19
600.047
525.987
454.294
386.172
322.722
264.96
213.832
170.233
134.963
108.611
91.3958
1252.76
1256.84
1251.47
1236.76
1212.94
1180.33
1139.38
1090.68
1034.91
972.909
905.636
834.188
759.783
683.734
607.409
532.178
459.359
390.183
325.776
267.171
215.328
171.152
135.45
108.81
91.4397
)
;

boundaryField
{
    outletCentralUnloaded
    {
        type            zeroGradient;
    }
    inletCentralUnloaded
    {
        type            zeroGradient;
    }
    outletFuelElement
    {
        type            zeroGradient;
    }
    inletFuelElement
    {
        type            zeroGradient;
    }
    defaultFaces
    {
        type            zeroGradient;
    }
}


// ************************************************************************* //
