/*--------------------------------*- C++ -*----------------------------------*\
| =========                 |                                                 |
| \\      /  F ield         | OpenFOAM: The Open Source CFD Toolbox           |
|  \\    /   O peration     | Version:  2212                                  |
|   \\  /    A nd           | Website:  www.openfoam.com                      |
|    \\/     M anipulation  |                                                 |
\*---------------------------------------------------------------------------*/
FoamFile
{
    version     2.0;
    format      ascii;
    arch        "LSB;label=32;scalar=64";
    class       volScalarField;
    location    "82/fluidRegion";
    object      heatFlux.structure;
}
// * * * * * * * * * * * * * * * * * * * * * * * * * * * * * * * * * * * * * //

dimensions      [1 0 -3 0 0 0 0];

internalField   nonuniform List<scalar> 
350
(
-258302
-258309
-258317
-258322
-258326
-258328
-258330
-258333
-258336
-258339
-258340
-258339
-258338
-258338
-258342
-258348
-258357
-258366
-258374
-258378
-258379
-258377
-258376
-258377
-258807
-258302
-258309
-258317
-258322
-258326
-258328
-258330
-258333
-258336
-258339
-258340
-258339
-258338
-258338
-258342
-258348
-258357
-258366
-258374
-258378
-258379
-258377
-258376
-258377
-258807
450405
1.34419e+06
2.21678e+06
3.0544e+06
3.84386e+06
4.57269e+06
5.2294e+06
5.80365e+06
6.28637e+06
6.66994e+06
6.94833e+06
7.11714e+06
7.17371e+06
7.11714e+06
6.94834e+06
6.66995e+06
6.28638e+06
5.80366e+06
5.2294e+06
4.57271e+06
3.84388e+06
3.05446e+06
2.2168e+06
1.34419e+06
450446
455563
1.35959e+06
2.24217e+06
3.08939e+06
3.88789e+06
4.62507e+06
5.28931e+06
5.87013e+06
6.35838e+06
6.74635e+06
7.02792e+06
7.19867e+06
7.25588e+06
7.19867e+06
7.02793e+06
6.74636e+06
6.35839e+06
5.87015e+06
5.2893e+06
4.62509e+06
3.88791e+06
3.08945e+06
2.2422e+06
1.35959e+06
455606
449583
1.34174e+06
2.21273e+06
3.04883e+06
3.83684e+06
4.56435e+06
5.21987e+06
5.79306e+06
6.2749e+06
6.65778e+06
6.93566e+06
7.10416e+06
7.16062e+06
7.10416e+06
6.93566e+06
6.65779e+06
6.27491e+06
5.79308e+06
5.21986e+06
4.56437e+06
3.83687e+06
3.04889e+06
2.21276e+06
1.34174e+06
449625
454376
1.35604e+06
2.23632e+06
3.08133e+06
3.87775e+06
4.61301e+06
5.27552e+06
5.85483e+06
6.3418e+06
6.72876e+06
7.0096e+06
7.1799e+06
7.23697e+06
7.1799e+06
7.00961e+06
6.72877e+06
6.34181e+06
5.85484e+06
5.27551e+06
4.61303e+06
3.87778e+06
3.08139e+06
2.23635e+06
1.35604e+06
454418
454376
1.35604e+06
2.23632e+06
3.08134e+06
3.87775e+06
4.61301e+06
5.27552e+06
5.85483e+06
6.3418e+06
6.72876e+06
7.0096e+06
7.1799e+06
7.23697e+06
7.1799e+06
7.00961e+06
6.72877e+06
6.34181e+06
5.85484e+06
5.27551e+06
4.61303e+06
3.87778e+06
3.08139e+06
2.23635e+06
1.35604e+06
454418
449583
1.34174e+06
2.21273e+06
3.04883e+06
3.83684e+06
4.56435e+06
5.21987e+06
5.79306e+06
6.2749e+06
6.65778e+06
6.93566e+06
7.10416e+06
7.16062e+06
7.10416e+06
6.93566e+06
6.65779e+06
6.27491e+06
5.79308e+06
5.21986e+06
4.56437e+06
3.83687e+06
3.04889e+06
2.21276e+06
1.34174e+06
449625
455563
1.35959e+06
2.24217e+06
3.08939e+06
3.88789e+06
4.62507e+06
5.28931e+06
5.87013e+06
6.35838e+06
6.74635e+06
7.02792e+06
7.19867e+06
7.25588e+06
7.19867e+06
7.02793e+06
6.74636e+06
6.35839e+06
5.87014e+06
5.2893e+06
4.62509e+06
3.88791e+06
3.08945e+06
2.2422e+06
1.35959e+06
455606
450405
1.34419e+06
2.21678e+06
3.0544e+06
3.84386e+06
4.57269e+06
5.2294e+06
5.80365e+06
6.28637e+06
6.66994e+06
6.94833e+06
7.11714e+06
7.17371e+06
7.11714e+06
6.94834e+06
6.66995e+06
6.28638e+06
5.80366e+06
5.2294e+06
4.57271e+06
3.84388e+06
3.05446e+06
2.2168e+06
1.34419e+06
450446
454376
1.35604e+06
2.23632e+06
3.08134e+06
3.87775e+06
4.61301e+06
5.27552e+06
5.85483e+06
6.3418e+06
6.72876e+06
7.0096e+06
7.1799e+06
7.23697e+06
7.1799e+06
7.00961e+06
6.72877e+06
6.34181e+06
5.85484e+06
5.27551e+06
4.61303e+06
3.87778e+06
3.08139e+06
2.23635e+06
1.35604e+06
454418
449583
1.34174e+06
2.21273e+06
3.04883e+06
3.83684e+06
4.56435e+06
5.21987e+06
5.79306e+06
6.2749e+06
6.65778e+06
6.93566e+06
7.10416e+06
7.16062e+06
7.10416e+06
6.93566e+06
6.65779e+06
6.27491e+06
5.79308e+06
5.21986e+06
4.56437e+06
3.83687e+06
3.04889e+06
2.21276e+06
1.34174e+06
449625
449583
1.34174e+06
2.21273e+06
3.04883e+06
3.83684e+06
4.56435e+06
5.21987e+06
5.79306e+06
6.2749e+06
6.65778e+06
6.93566e+06
7.10416e+06
7.16062e+06
7.10416e+06
6.93566e+06
6.65779e+06
6.27491e+06
5.79308e+06
5.21986e+06
4.56437e+06
3.83687e+06
3.04889e+06
2.21276e+06
1.34174e+06
449625
454376
1.35604e+06
2.23632e+06
3.08133e+06
3.87775e+06
4.61301e+06
5.27552e+06
5.85483e+06
6.3418e+06
6.72876e+06
7.0096e+06
7.1799e+06
7.23697e+06
7.1799e+06
7.00961e+06
6.72877e+06
6.34181e+06
5.85484e+06
5.27551e+06
4.61303e+06
3.87777e+06
3.08139e+06
2.23635e+06
1.35604e+06
454418
)
;

boundaryField
{
    outletCentralUnloaded
    {
        type            zeroGradient;
    }
    inletCentralUnloaded
    {
        type            zeroGradient;
    }
    outletFuelElement
    {
        type            zeroGradient;
    }
    inletFuelElement
    {
        type            zeroGradient;
    }
    defaultFaces
    {
        type            zeroGradient;
    }
    baffle_master
    {
        type            zeroGradient;
    }
    baffle_slave
    {
        type            zeroGradient;
    }
}


// ************************************************************************* //
