/*--------------------------------*- C++ -*----------------------------------*\
| =========                 |                                                 |
| \\      /  F ield         | OpenFOAM: The Open Source CFD Toolbox           |
|  \\    /   O peration     | Version:  2212                                  |
|   \\  /    A nd           | Website:  www.openfoam.com                      |
|    \\/     M anipulation  |                                                 |
\*---------------------------------------------------------------------------*/
FoamFile
{
    version     2.0;
    format      ascii;
    arch        "LSB;label=32;scalar=64";
    class       volScalarField;
    location    "82/fluidRegion";
    object      Tfi.nuclearFuelPin;
}
// * * * * * * * * * * * * * * * * * * * * * * * * * * * * * * * * * * * * * //

dimensions      [0 0 0 1 0 0 0];

internalField   nonuniform List<scalar> 
350
(
0
0
0
0
0
0
0
0
0
0
0
0
0
0
0
0
0
0
0
0
0
0
0
0
0
0
0
0
0
0
0
0
0
0
0
0
0
0
0
0
0
0
0
0
0
0
0
0
0
0
2425.56
3613.96
4762.14
5852.37
6867.79
7792.64
8612.55
9314.76
9888.33
10324.3
10615.9
10758.5
10749.9
10590.4
10282.5
9831.16
9243.32
8527.88
7695.01
6755.61
5720.03
4596.81
3391.13
2107.93
766.633
2460.65
3662.85
4824.28
5927.02
6954.01
7889.31
8718.39
9428.35
10008.1
10448.7
10743.1
10886.8
10877.5
10715.5
10403.4
9946.07
9350.76
8626.43
7783.41
6832.81
5785.08
4648.9
3429.38
2131.37
774.497
2419.88
3606.1
4752.19
5840.45
6854.05
7777.25
8595.72
9296.71
9869.3
10304.6
10595.7
10738.1
10729.7
10570.6
10263.4
9812.95
9226.3
8512.27
7681.01
6743.4
5709.74
4588.59
3385.1
2104.25
765.389
2452.72
3651.73
4810.09
5909.94
6934.25
7867.13
8694.09
9402.25
9980.58
10420.1
10713.8
10857.2
10848.1
10686.7
10375.5
9919.61
9326.02
8603.73
7763.05
6815.03
5770.1
4636.9
3420.56
2125.97
772.685
2452.72
3651.73
4810.09
5909.94
6934.25
7867.13
8694.09
9402.25
9980.58
10420.1
10713.8
10857.2
10848.1
10686.7
10375.5
9919.61
9326.02
8603.73
7763.05
6815.03
5770.1
4636.9
3420.56
2125.97
772.685
2419.88
3606.11
4752.19
5840.46
6854.05
7777.25
8595.72
9296.71
9869.3
10304.6
10595.7
10738.1
10729.7
10570.6
10263.4
9812.95
9226.3
8512.28
7681.01
6743.4
5709.74
4588.59
3385.1
2104.25
765.389
2460.65
3662.85
4824.28
5927.02
6954.01
7889.31
8718.39
9428.35
10008.1
10448.7
10743.1
10886.8
10877.5
10715.5
10403.4
9946.07
9350.76
8626.43
7783.41
6832.81
5785.08
4648.9
3429.38
2131.37
774.497
2425.56
3613.96
4762.14
5852.37
6867.79
7792.64
8612.55
9314.76
9888.33
10324.3
10615.9
10758.5
10749.9
10590.4
10282.5
9831.16
9243.32
8527.88
7695.01
6755.61
5720.03
4596.81
3391.13
2107.93
766.633
2452.72
3651.73
4810.09
5909.94
6934.25
7867.13
8694.09
9402.25
9980.58
10420.1
10713.8
10857.2
10848.1
10686.7
10375.5
9919.61
9326.02
8603.73
7763.05
6815.03
5770.1
4636.9
3420.56
2125.97
772.685
2419.88
3606.1
4752.19
5840.45
6854.05
7777.25
8595.72
9296.71
9869.3
10304.6
10595.7
10738.1
10729.7
10570.6
10263.4
9812.95
9226.3
8512.27
7681.01
6743.4
5709.74
4588.59
3385.1
2104.25
765.389
2419.88
3606.11
4752.19
5840.46
6854.05
7777.25
8595.72
9296.71
9869.3
10304.6
10595.7
10738.1
10729.7
10570.6
10263.4
9812.95
9226.3
8512.28
7681.01
6743.4
5709.74
4588.59
3385.1
2104.25
765.389
2452.72
3651.73
4810.09
5909.94
6934.25
7867.13
8694.09
9402.25
9980.58
10420.1
10713.8
10857.2
10848.1
10686.7
10375.5
9919.61
9326.02
8603.73
7763.05
6815.03
5770.1
4636.9
3420.56
2125.97
772.685
)
;

boundaryField
{
    outletCentralUnloaded
    {
        type            zeroGradient;
    }
    inletCentralUnloaded
    {
        type            zeroGradient;
    }
    outletFuelElement
    {
        type            zeroGradient;
    }
    inletFuelElement
    {
        type            zeroGradient;
    }
    defaultFaces
    {
        type            zeroGradient;
    }
    baffle_master
    {
        type            zeroGradient;
    }
    baffle_slave
    {
        type            zeroGradient;
    }
}


// ************************************************************************* //
