/*--------------------------------*- C++ -*----------------------------------*\
| =========                 |                                                 |
| \\      /  F ield         | OpenFOAM: The Open Source CFD Toolbox           |
|  \\    /   O peration     | Version:  2212                                  |
|   \\  /    A nd           | Website:  www.openfoam.com                      |
|    \\/     M anipulation  |                                                 |
\*---------------------------------------------------------------------------*/
FoamFile
{
    version     2.0;
    format      ascii;
    arch        "LSB;label=32;scalar=64";
    class       surfaceScalarField;
    location    "21/fluidRegion";
    object      alphaRhoPhi;
}
// * * * * * * * * * * * * * * * * * * * * * * * * * * * * * * * * * * * * * //

dimensions      [1 0 -1 0 0 0 0];

oriented        oriented;

internalField   nonuniform List<scalar> 
661
(
-0.00584608
-1.00372e-14
-0.00584608
-1.8622e-14
-0.00584608
-1.14335e-14
-0.00584608
-1.0169e-14
-0.00584608
-1.32424e-14
-0.00584608
-1.6059e-14
-0.00584608
-1.81213e-14
-0.00584608
-1.18412e-14
-0.00584608
-8.68765e-15
-0.00584608
-1.32879e-14
-0.00584608
-4.1609e-15
-0.00584608
-1.43336e-15
-0.00584608
8.99717e-16
-0.00584608
6.92368e-15
-0.00584608
1.52694e-15
-0.00584608
-3.39886e-15
-0.00584608
-6.55961e-15
-0.00584608
-2.69485e-15
-0.00584608
2.46618e-15
-0.00584608
2.42661e-15
-0.00584608
9.06113e-15
-0.00584608
-4.18148e-15
-0.00584608
5.47929e-15
-0.00584608
2.17576e-14
8.18602e-14
-0.00584608
-0.00584608
-0.00584608
-0.00584608
-0.00584608
-0.00584608
-0.00584608
-0.00584608
-0.00584608
-0.00584608
-0.00584608
-0.00584608
-0.00584608
-0.00584608
-0.00584608
-0.00584608
-0.00584608
-0.00584608
-0.00584608
-0.00584608
-0.00584608
-0.00584608
-0.00584608
-0.00584608
-0.00915229
5.63804e-07
-0.00915255
3.51023e-07
-0.00915287
4.01447e-07
-0.00915316
3.69211e-07
-0.00915343
3.43295e-07
-0.00915368
3.18548e-07
-0.00915391
2.93805e-07
-0.00915412
2.65707e-07
-0.0091543
2.29161e-07
-0.00915444
1.75728e-07
-0.00915452
9.50985e-08
-0.00915451
-2.6816e-08
-0.00915435
-1.94638e-07
-0.00915401
-4.14302e-07
-0.00915344
-6.77898e-07
-0.0091526
-9.70402e-07
-0.00915147
-1.27642e-06
-0.00915004
-1.59293e-06
-0.00914828
-1.93876e-06
-0.00914611
-2.35867e-06
-0.00914339
-2.91868e-06
-0.00913994
-3.66819e-06
-0.00913559
-4.57142e-06
-0.00913063
-5.1949e-06
-5.91047e-06
-0.00907479
-3.37411e-08
-3.33604e-08
-0.00907427
-1.03317e-07
-1.04814e-07
-0.00907371
-9.6682e-08
-9.63821e-08
-0.0090732
-8.62959e-08
-8.48799e-08
-0.00907274
-7.74748e-08
-7.5189e-08
-0.00907231
-6.89562e-08
-6.65506e-08
-0.00907193
-6.02387e-08
-5.77978e-08
-0.0090716
-5.06176e-08
-4.83586e-08
-0.00907132
-3.8356e-08
-3.61641e-08
-0.00907112
-2.12961e-08
-1.92913e-08
-0.00907106
4.6868e-09
6.56767e-09
-0.00907117
4.09078e-08
4.26809e-08
-0.00907156
9.50237e-08
9.67101e-08
-0.0090723
1.65842e-07
1.67248e-07
-0.00907347
2.52863e-07
2.53962e-07
-0.00907512
3.51685e-07
3.52219e-07
-0.00907728
4.58054e-07
4.57881e-07
-0.00907999
5.71135e-07
5.69966e-07
-0.00908331
6.97891e-07
6.95418e-07
-0.00908735
8.53471e-07
8.49329e-07
-0.00909237
1.0597e-06
1.05366e-06
-0.00909869
1.32662e-06
1.31781e-06
-0.0091065
1.6155e-06
1.60214e-06
-0.00911506
1.67074e-06
1.6515e-06
1.59903e-06
1.5754e-06
-0.00916505
3.25204e-07
-0.00916545
3.70463e-07
-0.00916585
3.64124e-07
-0.00916621
3.31209e-07
-0.00916653
3.02133e-07
-0.00916683
2.746e-07
-0.00916709
2.4634e-07
-0.00916732
2.13957e-07
-0.00916751
1.71171e-07
-0.00916763
1.09165e-07
-0.00916765
1.63223e-08
-0.00916752
-1.1981e-07
-0.00916718
-3.07799e-07
-0.00916656
-5.50897e-07
-0.00916559
-8.40747e-07
-0.00916422
-1.16083e-06
-0.00916243
-1.49609e-06
-0.00916019
-1.84476e-06
-0.00915746
-2.22982e-06
-0.0091541
-2.70011e-06
-0.00914993
-3.32291e-06
-0.00914468
-4.13926e-06
-0.00913823
-5.03712e-06
-0.00913132
-5.44442e-06
-5.44724e-06
-0.00909217
1.08675e-09
-0.00909185
-1.67857e-10
-0.00909152
7.98739e-11
-0.00909123
2.98624e-11
-0.00909097
4.84293e-11
-0.00909073
5.79844e-11
-0.00909051
4.33868e-11
-0.00909033
7.35109e-11
-0.00909019
9.16215e-11
-0.0090901
8.35286e-11
-0.00909009
1.4416e-10
-0.00909021
1.79268e-10
-0.00909051
2.65597e-10
-0.00909103
3.31219e-10
-0.00909183
3.4814e-10
-0.00909294
3.28005e-10
-0.00909438
3.29973e-10
-0.00909617
4.76227e-10
-0.00909834
5.61508e-10
-0.00910099
7.04523e-10
-0.00910426
9.49433e-10
-0.00910837
7.02614e-10
-0.00911341
-3.0402e-11
-0.00911888
-1.09603e-09
-4.32306e-09
-0.00909218
-3.22933e-07
-0.00909186
-3.70819e-07
-0.00909153
-3.63848e-07
-0.00909124
-3.31045e-07
-0.00909098
-3.0197e-07
-0.00909074
-2.74457e-07
-0.00909053
-2.46219e-07
-0.00909034
-2.13786e-07
-0.0090902
-1.70968e-07
-0.00909011
-1.08948e-07
-0.0090901
-1.5981e-08
-0.00909022
1.20231e-07
-0.00909052
3.08383e-07
-0.00909104
5.51601e-07
-0.00909184
8.41479e-07
-0.00909295
1.16155e-06
-0.00909439
1.49683e-06
-0.00909618
1.84576e-06
-0.00909835
2.23097e-06
-0.009101
2.70151e-06
-0.00910427
3.32468e-06
-0.00910838
4.14069e-06
-0.00911342
5.03715e-06
-0.00911889
5.44228e-06
5.43878e-06
-0.00916506
3.17561e-08
-0.00916546
1.02872e-07
-0.00916585
9.66441e-08
-0.00916621
8.67106e-08
-0.00916654
7.83683e-08
-0.00916683
6.97393e-08
-0.0091671
6.11545e-08
-0.00916733
5.12932e-08
-0.00916751
3.91062e-08
-0.00916763
2.17528e-08
-0.00916765
-4.15109e-09
-0.00916752
-4.06623e-08
-0.00916718
-9.46998e-08
-0.00916656
-1.65809e-07
-0.00916559
-2.52918e-07
-0.00916422
-3.52208e-07
-0.00916243
-4.58837e-07
-0.00916019
-5.72479e-07
-0.00915745
-6.99767e-07
-0.00915409
-8.56327e-07
-0.00914992
-1.06343e-06
-0.00914466
-1.33182e-06
-0.00913822
-1.62224e-06
-0.00913131
-1.67785e-06
-1.60296e-06
-0.00907479
-5.64823e-07
-3.45764e-08
-0.00907427
-3.5205e-07
-1.04313e-07
-0.00907371
-4.00985e-07
-9.66855e-08
-0.0090732
-3.68044e-07
-8.52907e-08
-0.00907274
-3.4142e-07
-7.57705e-08
-0.00907232
-3.16876e-07
-6.70818e-08
-0.00907193
-2.91951e-07
-5.83531e-08
-0.0090716
-2.64214e-07
-4.88676e-08
-0.00907132
-2.27561e-07
-3.67048e-08
-0.00907112
-1.74522e-07
-1.97626e-08
-0.00907106
-9.37636e-08
6.01106e-09
-0.00907117
2.77673e-08
4.2153e-08
-0.00907156
1.95708e-07
9.60751e-08
-0.0090723
4.14945e-07
1.66632e-07
-0.00907347
6.78415e-07
2.53359e-07
-0.00907512
9.70238e-07
3.51764e-07
-0.00907728
1.27587e-06
4.5752e-07
-0.00907999
1.59155e-06
5.69665e-07
-0.00908331
1.93666e-06
6.9523e-07
-0.00908735
2.3553e-06
8.49308e-07
-0.00909237
2.91417e-06
1.05373e-06
-0.00909869
3.66164e-06
1.3185e-06
-0.0091065
4.56202e-06
1.60436e-06
-0.00911506
5.18287e-06
1.65567e-06
5.89758e-06
1.58393e-06
-0.00915229
-0.00915255
-0.00915287
-0.00915316
-0.00915343
-0.00915368
-0.00915391
-0.00915412
-0.0091543
-0.00915444
-0.00915452
-0.00915451
-0.00915436
-0.00915401
-0.00915344
-0.0091526
-0.00915147
-0.00915004
-0.00914828
-0.00914611
-0.00914339
-0.00913994
-0.00913559
-0.00913063
-0.00909217
-3.25368e-07
1.12509e-09
-0.00909185
-3.70486e-07
-3.22718e-10
-0.00909152
-3.63984e-07
1.05283e-10
-0.00909123
-3.31055e-07
3.69298e-11
-0.00909097
-3.01852e-07
5.3135e-11
-0.00909073
-2.74409e-07
1.45093e-12
-0.00909051
-2.46081e-07
5.85873e-11
-0.00909033
-2.13794e-07
3.87554e-11
-0.00909019
-1.70941e-07
8.71944e-11
-0.0090901
-1.0909e-07
1.30828e-10
-0.00909009
-1.61585e-08
1.65406e-10
-0.00909021
1.19818e-07
2.14575e-10
-0.00909051
3.07908e-07
2.47702e-10
-0.00909103
5.50876e-07
2.54243e-10
-0.00909183
8.40672e-07
3.79501e-10
-0.00909294
1.16048e-06
4.79204e-10
-0.00909438
1.49564e-06
6.25018e-10
-0.00909617
1.84419e-06
6.36173e-10
-0.00909834
2.22919e-06
7.99443e-10
-0.00910099
2.6993e-06
9.81988e-10
-0.00910426
3.32206e-06
1.14389e-09
-0.00910837
4.13776e-06
1.50752e-09
-0.00911341
5.03502e-06
1.48407e-09
-0.00911888
5.44264e-06
1.39859e-10
5.44616e-06
-3.29485e-09
-0.00916505
-0.00916545
-0.00916585
-0.00916621
-0.00916653
-0.00916683
-0.00916709
-0.00916732
-0.00916751
-0.00916763
-0.00916765
-0.00916752
-0.00916718
-0.00916656
-0.00916559
-0.00916422
-0.00916243
-0.00916019
-0.00915746
-0.0091541
-0.00914993
-0.00914468
-0.00913823
-0.00913132
-0.00916506
3.2167e-07
-0.00916546
3.69474e-07
-0.00916585
3.64232e-07
-0.00916621
3.32355e-07
-0.00916654
3.04277e-07
-0.00916683
2.76525e-07
-0.0091671
2.48531e-07
-0.00916733
2.15625e-07
-0.00916751
1.72976e-07
-0.00916763
1.10406e-07
-0.00916765
1.76566e-08
-0.00916752
-1.19028e-07
-0.00916718
-3.06983e-07
-0.00916656
-5.50764e-07
-0.00916559
-8.40769e-07
-0.00916422
-1.1618e-06
-0.00916243
-1.4976e-06
-0.00916019
-1.84769e-06
-0.00915745
-2.23395e-06
-0.00915409
-2.70639e-06
-0.00914992
-3.3312e-06
-0.00914466
-4.15048e-06
-0.00913822
-5.05131e-06
-0.00913131
-5.46069e-06
-5.45746e-06
-0.00909218
-0.00909186
-0.00909153
-0.00909124
-0.00909098
-0.00909074
-0.00909053
-0.00909034
-0.0090902
-0.00909011
-0.0090901
-0.00909022
-0.00909052
-0.00909104
-0.00909184
-0.00909295
-0.00909439
-0.00909618
-0.00909835
-0.009101
-0.00910428
-0.00910838
-0.00911342
-0.00911889
)
;

boundaryField
{
    outletCentralUnloaded
    {
        type            calculated;
        value           nonuniform List<scalar> 2(0.00584608 0.00584608);
    }
    inletCentralUnloaded
    {
        type            calculated;
        value           nonuniform List<scalar> 2(-0.00587368 -0.00587368);
    }
    outletFuelElement
    {
        type            calculated;
        value           nonuniform List<scalar> 
12
(
0.00915181
0.00907539
0.00916477
0.00909246
0.00909247
0.00916477
0.00907539
0.00915181
0.00909246
0.00916477
0.00916477
0.00909247
)
;
    }
    inletFuelElement
    {
        type            calculated;
        value           nonuniform List<scalar> 
12
(
-0.00931662
-0.00931663
-0.00931662
-0.00931662
-0.00931663
-0.00931662
-0.00931663
-0.00931662
-0.00931662
-0.00931662
-0.00931662
-0.00931663
)
;
    }
    defaultFaces
    {
        type            calculated;
        value           nonuniform List<scalar> 
450
(
8.48359e-24
-1.17606e-23
0
8.78028e-24
-3.46602e-24
0
2.65305e-24
1.58897e-23
0
-2.50567e-23
-1.23412e-24
0
-1.01252e-23
-1.85615e-23
0
-1.72444e-23
-1.4702e-23
0
-1.9326e-23
-5.62921e-24
0
-1.63448e-23
-7.1563e-24
0
-1.0928e-23
-4.81837e-24
0
-1.13018e-23
-8.94943e-24
0
-7.05887e-24
-2.57904e-24
0
2.06429e-24
5.31424e-25
0
1.26227e-23
8.19971e-24
0
3.47233e-23
2.52189e-24
0
4.81765e-23
2.03001e-23
0
6.61021e-23
2.58594e-23
0
4.32247e-23
-3.34214e-23
0
9.46184e-23
1.59891e-23
0
9.81716e-23
-1.27052e-22
0
-7.66608e-23
-7.60357e-23
0
-8.89516e-23
-4.32576e-23
0
2.39051e-22
-1.56064e-22
0
-1.38445e-22
1.53109e-22
0
-1.79548e-22
-1.70989e-22
0
-2.0122e-22
-3.07456e-22
0
1.35324e-23
0
8.43514e-24
0
8.60371e-24
0
4.41836e-24
0
-2.28493e-24
0
2.38019e-24
0
7.49332e-24
0
7.92437e-24
0
-2.81631e-24
0
3.78636e-24
0
4.11106e-25
0
-3.60775e-24
0
-1.60088e-23
0
-8.98905e-24
0
-3.06928e-23
0
-2.36322e-23
0
8.3206e-23
0
-6.62655e-23
0
0
0
-1.25689e-22
0
-1.60317e-22
0
1.67553e-22
0
5.5722e-23
0
-1.47881e-22
0
-2.33112e-22
0
-4.10755e-24
0
0
-4.35661e-24
4.5054e-24
-4.69267e-24
0
-2.60335e-24
5.55092e-24
-1.49249e-24
0
3.55524e-24
7.88864e-24
0
3.02637e-23
2.33119e-23
-5.47504e-23
0
-7.9819e-23
4.9759e-23
6.35542e-23
-2.49506e-22
0
7.37254e-23
0
0
0
0
0
0
0
0
0
0
0
0
0
0
0
0
0
0
0
0
0
0
0
0
0
0
-7.28669e-24
8.32765e-24
0
1.26527e-23
1.29056e-23
2.58111e-23
-1.32551e-23
-1.32551e-23
1.14246e-23
-9.1397e-24
-4.76038e-24
-7.14057e-24
-7.49332e-24
-7.49332e-24
-5.28291e-24
-7.92436e-24
9.85706e-24
-7.04076e-24
-1.51454e-24
-3.02908e-24
0
4.11106e-25
3.60775e-24
4.50968e-24
8.00439e-24
1.00055e-23
1.79781e-23
1.79781e-23
3.06928e-23
1.53464e-23
2.36322e-23
3.54483e-23
-4.16029e-23
8.32059e-23
3.31327e-23
8.28318e-23
-1.41289e-22
1.00921e-22
-1.25689e-22
-1.00551e-22
3.20633e-23
-1.28253e-22
-2.09441e-22
2.09441e-22
-1.11444e-22
-1.95027e-22
7.39403e-23
-7.39403e-23
-1.8649e-22
-1.8649e-22
6.72419e-24
0
8.30785e-24
2.38134e-24
0
8.41489e-24
9.3179e-24
0
-2.57487e-23
-3.28785e-23
0
0
1.48509e-23
0
0
-2.86314e-23
0
4.74863e-24
-2.31153e-23
0
0
-2.21316e-23
0
0
-1.04863e-23
0
-8.42784e-24
-1.36488e-23
0
6.04305e-24
-7.87465e-24
0
1.64033e-24
2.34936e-24
-0
-4.49851e-25
1.58953e-23
-0
-3.99238e-24
3.92136e-23
-0
-8.96736e-24
6.15978e-23
-0
-2.04137e-23
9.51334e-23
-0
-1.17893e-23
5.04423e-23
-0
0
1.3863e-22
-0
-3.30655e-23
9.45646e-23
-0
-4.02928e-23
-9.38284e-23
-0
5.01911e-23
-8.95098e-23
-0
0
1.86238e-22
-0
0
-1.43148e-22
-0
0
-3.27259e-23
-0
0
-2.3634e-22
-0
0
0
0
8.48469e-24
0
9.01079e-24
0
-9.84791e-24
-5.2067e-24
-2.77546e-24
-1.49249e-24
-2.02556e-25
1.77762e-24
3.94432e-24
8.86071e-24
1.00879e-23
2.33119e-23
-2.73752e-23
0
-3.99095e-23
0
0
-1.66337e-22
-2.21726e-22
7.37254e-23
0
1.24915e-23
0
1.68703e-23
0
4.30186e-24
0
8.83672e-24
0
-2.28493e-24
0
4.76038e-24
0
9.99109e-24
0
5.28291e-24
0
0
0
4.54363e-24
0
4.11106e-25
0
-5.41163e-24
-0
-1.60088e-23
-0
-2.69672e-23
-0
-3.06928e-23
-0
-2.36322e-23
-0
8.3206e-23
-0
-6.62655e-23
-0
1.41289e-22
-0
-7.54133e-23
-0
-1.28253e-22
-0
1.25665e-22
-0
5.5722e-23
-0
-2.21821e-22
-0
-1.8649e-22
-0
-9.36861e-24
0
-8.43514e-24
1.26527e-23
-8.60371e-24
8.60371e-24
-4.41836e-24
-2.65101e-23
2.28492e-24
6.85477e-24
-4.76038e-24
-2.14217e-23
-4.99554e-24
-1.99822e-23
-5.28291e-24
-1.32073e-23
0
-7.04076e-24
-3.78636e-24
-7.57271e-24
-4.11106e-25
0
1.80387e-24
1.08232e-23
8.00439e-24
2.40132e-23
1.79781e-23
4.49452e-23
2.04618e-23
7.67319e-23
1.18161e-23
8.27126e-23
0
6.93383e-23
4.96991e-23
1.32531e-22
-2.01842e-23
1.21105e-22
2.51377e-23
-1.00551e-22
3.20633e-23
-9.61898e-23
-4.18881e-23
2.09441e-22
1.11444e-22
-1.11444e-22
-7.39403e-23
-1.84851e-22
0
-1.8649e-22
-0
-0
-0
-0
-0
-0
-0
-0
-0
-0
-0
0
0
0
0
0
0
0
0
0
0
0
0
0
0
)
;
    }
    baffle_master
    {
        type            calculated;
        value           nonuniform List<scalar> 
150
(
-5.61777e-32
0
2.42639e-31
8.76427e-32
0
0
4.98483e-32
0
2.42679e-31
-3.23613e-32
0
1.2135e-31
-6.54579e-31
0
-4.85439e-31
2.50329e-32
0
2.42739e-31
-3.53576e-32
0
0
-7.249e-32
0
0
-7.95657e-33
0
0
3.94994e-32
0
0
-4.63334e-32
0
6.07098e-32
1.8289e-33
0
0
-8.00169e-33
0
0
-1.71025e-32
0
0
1.94509e-32
0
0
4.75927e-32
0
-6.07348e-32
5.95531e-31
0
3.64439e-31
3.26196e-32
0
6.07448e-32
-1.84956e-31
0
-1.215e-31
6.70311e-33
0
-3.03774e-32
1.97801e-32
0
0
-2.86568e-31
0
-1.82294e-31
-2.87965e-33
0
1.2154e-31
3.80116e-31
0
-9.72395e-31
-4.6616e-32
0
0
0
-4.8365e-31
0
2.42659e-31
-6.1044e-31
0
0
-3.99346e-31
0
1.2135e-31
-3.25476e-31
0
2.42719e-31
2.3146e-31
0
-2.42739e-31
-5.64757e-31
0
2.42759e-31
-5.4852e-31
0
2.42779e-31
-5.26271e-31
0
-2.42799e-31
-2.65643e-31
0
2.42819e-31
-6.73081e-31
0
6.07098e-32
-1.1741e-31
0
0
-4.75298e-32
0
-1.51799e-32
2.12208e-32
-0
-1.2145e-31
2.59563e-31
-0
-3.03649e-32
1.52269e-32
-0
1.2147e-31
-1.08903e-31
0
-2.42959e-31
-4.39562e-31
0
0
-7.78515e-32
0
3.03749e-32
-3.78203e-33
-0
-3.03774e-32
-3.08372e-32
-0
-1.2152e-31
-2.29896e-31
-0
-1.82294e-31
2.78515e-31
0
2.43079e-31
2.79688e-31
-0
4.86198e-31
-7.07485e-31
-0
1.94495e-30
-1.40668e-30
-0
)
;
    }
    baffle_slave
    {
        type            calculated;
        value           nonuniform List<scalar> 
150
(
5.86957e-24
-0
4.10755e-24
2.20269e-24
-0
8.31974e-24
2.23799e-24
-0
0
1.01764e-24
-0
-8.71322e-24
-1.58554e-23
-0
-1.35162e-23
-2.1921e-25
-0
4.69267e-24
-3.83343e-25
-0
0
-6.48547e-25
-0
0
7.77827e-25
-0
0
-1.02242e-24
-0
1.49249e-24
0
-0
0
5.53511e-26
0
0
-1.41242e-24
0
0
7.58771e-25
0
0
3.25931e-24
0
0
-4.58309e-24
0
2.33119e-23
-7.76023e-23
0
-8.21256e-23
7.0095e-24
0
0
-6.01597e-23
0
-3.99095e-23
1.82236e-23
0
-4.9759e-23
2.9724e-24
0
0
1.45278e-22
0
8.31687e-23
-1.60021e-23
0
0
5.98579e-23
0
-1.47451e-22
5.09404e-24
0
-1.86335e-22
1.00462e-24
1.72728e-23
0
1.68027e-24
1.05599e-23
0
5.6348e-24
1.32958e-23
0
-5.44395e-24
1.0787e-23
0
-2.02303e-24
-1.97842e-23
0
-3.08986e-24
5.40718e-24
0
-3.01255e-24
8.43354e-24
0
-2.36146e-24
5.83692e-24
0
7.09879e-24
6.82759e-24
0
-2.85695e-24
6.78517e-24
0
-2.26094e-25
3.33018e-24
0
3.7442e-24
6.08862e-25
0
7.61665e-24
-3.8688e-24
0
2.25101e-23
-7.72567e-24
0
2.47831e-23
-1.69641e-23
0
-1.20121e-23
-2.1055e-23
0
-1.38441e-23
-1.92923e-23
0
2.48299e-23
-4.60078e-23
0
-3.85991e-23
4.19719e-24
0
4.85661e-23
5.27322e-23
0
9.8875e-23
5.25123e-23
0
-2.01544e-22
1.59547e-22
0
-1.07823e-22
-7.35229e-23
0
3.13491e-23
5.98579e-23
0
7.49849e-23
6.40393e-23
0
)
;
    }
}


// ************************************************************************* //
