/*--------------------------------*- C++ -*----------------------------------*\
| =========                 |                                                 |
| \\      /  F ield         | OpenFOAM: The Open Source CFD Toolbox           |
|  \\    /   O peration     | Version:  2212                                  |
|   \\  /    A nd           | Website:  www.openfoam.com                      |
|    \\/     M anipulation  |                                                 |
\*---------------------------------------------------------------------------*/
FoamFile
{
    version     2.0;
    format      ascii;
    arch        "LSB;label=32;scalar=64";
    class       volScalarField;
    location    "21/fluidRegion";
    object      heatFlux.structure;
}
// * * * * * * * * * * * * * * * * * * * * * * * * * * * * * * * * * * * * * //

dimensions      [1 0 -3 0 0 0 0];

internalField   nonuniform List<scalar> 
350
(
-258182
-258185
-258188
-258191
-258194
-258197
-258200
-258202
-258205
-258208
-258211
-258214
-258217
-258220
-258223
-258226
-258229
-258232
-258235
-258238
-258240
-258243
-258246
-258249
-258743
-258182
-258185
-258188
-258191
-258194
-258197
-258200
-258202
-258205
-258208
-258211
-258214
-258217
-258220
-258223
-258226
-258229
-258232
-258235
-258238
-258240
-258243
-258246
-258249
-258743
35407.6
832765
1.61416e+06
2.36717e+06
3.07987e+06
3.74098e+06
4.34004e+06
4.86761e+06
5.31536e+06
5.67625e+06
5.94459e+06
6.1162e+06
6.18836e+06
6.15995e+06
6.03137e+06
5.80458e+06
5.48312e+06
5.07205e+06
4.57799e+06
4.00932e+06
3.37611e+06
2.69078e+06
1.96805e+06
1.22405e+06
470984
31984.2
838455
1.6288e+06
2.39046e+06
3.11136e+06
3.78011e+06
4.38612e+06
4.91984e+06
5.37283e+06
5.73799e+06
6.00956e+06
6.18329e+06
6.25647e+06
6.22792e+06
6.09808e+06
5.86894e+06
5.54403e+06
5.12848e+06
4.62896e+06
4.05393e+06
3.41357e+06
2.72042e+06
1.98942e+06
1.23692e+06
475296
35973.6
831874
1.61183e+06
2.36346e+06
3.07485e+06
3.73474e+06
4.33269e+06
4.85928e+06
5.30619e+06
5.66639e+06
5.93422e+06
6.10549e+06
6.17749e+06
6.14909e+06
6.02071e+06
5.79431e+06
5.4734e+06
5.06304e+06
4.56985e+06
4.00219e+06
3.37013e+06
2.68604e+06
1.96463e+06
1.22199e+06
470295
32729.5
837107
1.62539e+06
2.38507e+06
3.10409e+06
3.77108e+06
4.3755e+06
4.9078e+06
5.35959e+06
5.72377e+06
5.9946e+06
6.16785e+06
6.24079e+06
6.21228e+06
6.08273e+06
5.85413e+06
5.53002e+06
5.11549e+06
4.61723e+06
4.04366e+06
3.40495e+06
2.7136e+06
1.9845e+06
1.23396e+06
474304
32729.5
837107
1.62539e+06
2.38507e+06
3.10409e+06
3.77108e+06
4.3755e+06
4.9078e+06
5.35959e+06
5.72377e+06
5.9946e+06
6.16785e+06
6.24079e+06
6.21228e+06
6.08273e+06
5.85413e+06
5.53002e+06
5.11549e+06
4.61723e+06
4.04366e+06
3.40495e+06
2.7136e+06
1.9845e+06
1.23396e+06
474304
35973.1
831874
1.61183e+06
2.36346e+06
3.07485e+06
3.73474e+06
4.33269e+06
4.85928e+06
5.30619e+06
5.66639e+06
5.93422e+06
6.10549e+06
6.17749e+06
6.14909e+06
6.02071e+06
5.79431e+06
5.4734e+06
5.06304e+06
4.56985e+06
4.00219e+06
3.37013e+06
2.68604e+06
1.96463e+06
1.22199e+06
470295
31984.2
838455
1.6288e+06
2.39046e+06
3.11136e+06
3.78011e+06
4.38612e+06
4.91984e+06
5.37283e+06
5.73799e+06
6.00956e+06
6.18329e+06
6.25647e+06
6.22792e+06
6.09808e+06
5.86894e+06
5.54403e+06
5.12848e+06
4.62896e+06
4.05393e+06
3.41357e+06
2.72042e+06
1.98942e+06
1.23692e+06
475296
35407.6
832765
1.61416e+06
2.36717e+06
3.07987e+06
3.74098e+06
4.34004e+06
4.86761e+06
5.31536e+06
5.67625e+06
5.94459e+06
6.1162e+06
6.18836e+06
6.15995e+06
6.03136e+06
5.80458e+06
5.48312e+06
5.07205e+06
4.57799e+06
4.00932e+06
3.37611e+06
2.69078e+06
1.96806e+06
1.22405e+06
470984
32729.5
837107
1.62539e+06
2.38507e+06
3.10409e+06
3.77108e+06
4.3755e+06
4.9078e+06
5.35959e+06
5.72377e+06
5.9946e+06
6.16785e+06
6.24079e+06
6.21228e+06
6.08273e+06
5.85413e+06
5.53002e+06
5.11549e+06
4.61723e+06
4.04366e+06
3.40495e+06
2.7136e+06
1.9845e+06
1.23396e+06
474304
35973.6
831874
1.61183e+06
2.36346e+06
3.07485e+06
3.73474e+06
4.33269e+06
4.85928e+06
5.30619e+06
5.66639e+06
5.93422e+06
6.10549e+06
6.17749e+06
6.14909e+06
6.02071e+06
5.79431e+06
5.4734e+06
5.06304e+06
4.56985e+06
4.00219e+06
3.37013e+06
2.68604e+06
1.96463e+06
1.22199e+06
470295
35973.1
831874
1.61183e+06
2.36346e+06
3.07485e+06
3.73474e+06
4.33269e+06
4.85928e+06
5.30619e+06
5.66639e+06
5.93422e+06
6.10549e+06
6.17749e+06
6.14909e+06
6.02071e+06
5.79431e+06
5.4734e+06
5.06304e+06
4.56985e+06
4.00219e+06
3.37013e+06
2.68604e+06
1.96463e+06
1.22199e+06
470295
32729.5
837107
1.62539e+06
2.38507e+06
3.10409e+06
3.77108e+06
4.3755e+06
4.9078e+06
5.35959e+06
5.72377e+06
5.9946e+06
6.16785e+06
6.24079e+06
6.21228e+06
6.08273e+06
5.85413e+06
5.53002e+06
5.11549e+06
4.61723e+06
4.04366e+06
3.40495e+06
2.7136e+06
1.9845e+06
1.23396e+06
474304
)
;

boundaryField
{
    outletCentralUnloaded
    {
        type            zeroGradient;
    }
    inletCentralUnloaded
    {
        type            zeroGradient;
    }
    outletFuelElement
    {
        type            zeroGradient;
    }
    inletFuelElement
    {
        type            zeroGradient;
    }
    defaultFaces
    {
        type            zeroGradient;
    }
    baffle_master
    {
        type            zeroGradient;
    }
    baffle_slave
    {
        type            zeroGradient;
    }
}


// ************************************************************************* //
