/*--------------------------------*- C++ -*----------------------------------*\
| =========                 |                                                 |
| \\      /  F ield         | OpenFOAM: The Open Source CFD Toolbox           |
|  \\    /   O peration     | Version:  2212                                  |
|   \\  /    A nd           | Website:  www.openfoam.com                      |
|    \\/     M anipulation  |                                                 |
\*---------------------------------------------------------------------------*/
FoamFile
{
    version     2.0;
    format      ascii;
    arch        "LSB;label=32;scalar=64";
    class       volScalarField;
    location    "21/fluidRegion";
    object      htc;
}
// * * * * * * * * * * * * * * * * * * * * * * * * * * * * * * * * * * * * * //

dimensions      [1 0 -3 -1 0 0 0];

internalField   nonuniform List<scalar> 
350
(
3099.85
3099.87
3099.89
3099.9
3099.92
3099.94
3099.96
3099.97
3099.99
3100.01
3100.02
3100.04
3100.06
3100.07
3100.09
3100.11
3100.12
3100.14
3100.16
3100.18
3100.19
3100.21
3100.23
3100.24
3106.16
3099.85
3099.87
3099.89
3099.9
3099.92
3099.94
3099.96
3099.97
3099.99
3100.01
3100.02
3100.04
3100.06
3100.07
3100.09
3100.11
3100.12
3100.14
3100.16
3100.18
3100.19
3100.21
3100.23
3100.24
3106.16
24638.1
24598.9
24475.1
24232.6
23873
23398.6
22812.7
22119.6
21325.3
20437.2
19465.2
18420.9
17317.9
16170
14989.9
13788.4
12574.2
11355.5
10143.2
8954.95
7818.94
6778.58
5895.5
5244.92
4827.15
24713.8
24674.7
24551.8
24309.4
23949.5
23474.1
22886.6
22191.1
21393.3
20500.8
19523.3
18472.7
17362.7
16207.5
15020.7
13813.3
12594.1
11371.1
10154.9
8962.66
7822.66
6778.52
5892.65
5241.32
4825.55
24626
24586.5
24462.7
24220.2
23860.6
23386.4
22800.8
22108.2
21314.4
20427
19455.9
18412.7
17310.8
16163.9
14984.8
13784.2
12570.8
11352.7
10141
8953.25
7817.79
6777.9
5895.17
5244.69
4827.02
24697
24657.9
24534.7
24292.3
23932.4
23457.2
22870
22175
21378
20486.5
19510.2
18461
17352.5
16199
15013.8
13807.7
12589.6
11367.6
10152.3
8960.97
7821.89
6778.62
5893.4
5242.25
4825.97
24697
24657.9
24534.7
24292.3
23932.4
23457.2
22870
22175
21378
20486.5
19510.2
18461
17352.5
16199
15013.8
13807.7
12589.6
11367.6
10152.3
8960.97
7821.89
6778.62
5893.4
5242.25
4825.97
24626
24586.5
24462.7
24220.2
23860.6
23386.4
22800.8
22108.2
21314.4
20427
19455.9
18412.7
17310.8
16163.9
14984.8
13784.2
12570.8
11352.7
10141
8953.25
7817.78
6777.89
5895.16
5244.68
4827.02
24713.8
24674.7
24551.8
24309.4
23949.5
23474.1
22886.6
22191.1
21393.3
20500.8
19523.3
18472.7
17362.7
16207.5
15020.7
13813.3
12594.1
11371.1
10154.9
8962.66
7822.66
6778.52
5892.65
5241.32
4825.55
24638.1
24598.9
24475.1
24232.6
23873
23398.6
22812.7
22119.6
21325.3
20437.2
19465.2
18420.9
17317.9
16170
14989.9
13788.4
12574.2
11355.5
10143.2
8954.95
7818.94
6778.58
5895.5
5244.92
4827.15
24697
24657.9
24534.7
24292.3
23932.4
23457.2
22870
22175
21378
20486.5
19510.2
18461
17352.5
16199
15013.8
13807.7
12589.6
11367.6
10152.3
8960.98
7821.89
6778.62
5893.4
5242.25
4825.97
24626
24586.5
24462.7
24220.2
23860.6
23386.4
22800.8
22108.2
21314.4
20427
19455.9
18412.7
17310.8
16163.9
14984.8
13784.2
12570.8
11352.7
10141
8953.25
7817.79
6777.9
5895.17
5244.69
4827.02
24626
24586.5
24462.7
24220.2
23860.6
23386.4
22800.8
22108.2
21314.4
20427
19455.9
18412.7
17310.8
16163.9
14984.8
13784.2
12570.8
11352.7
10141
8953.25
7817.78
6777.89
5895.16
5244.68
4827.02
24697
24657.9
24534.7
24292.3
23932.4
23457.2
22870
22175
21378
20486.5
19510.2
18461
17352.5
16199
15013.8
13807.7
12589.6
11367.6
10152.3
8960.97
7821.89
6778.62
5893.4
5242.25
4825.97
)
;

boundaryField
{
    outletCentralUnloaded
    {
        type            zeroGradient;
    }
    inletCentralUnloaded
    {
        type            zeroGradient;
    }
    outletFuelElement
    {
        type            zeroGradient;
    }
    inletFuelElement
    {
        type            zeroGradient;
    }
    defaultFaces
    {
        type            zeroGradient;
    }
    baffle_master
    {
        type            zeroGradient;
    }
    baffle_slave
    {
        type            zeroGradient;
    }
}


// ************************************************************************* //
