/*--------------------------------*- C++ -*----------------------------------*\
| =========                 |                                                 |
| \\      /  F ield         | OpenFOAM: The Open Source CFD Toolbox           |
|  \\    /   O peration     | Version:  2212                                  |
|   \\  /    A nd           | Website:  www.openfoam.com                      |
|    \\/     M anipulation  |                                                 |
\*---------------------------------------------------------------------------*/
FoamFile
{
    version     2.0;
    format      ascii;
    arch        "LSB;label=32;scalar=64";
    class       volTensorField;
    location    "21/fluidRegion";
    object      Kd;
}
// * * * * * * * * * * * * * * * * * * * * * * * * * * * * * * * * * * * * * //

dimensions      [1 -3 -1 0 0 0 0];

internalField   nonuniform List<tensor> 
350
(
(84.7032 0 0 0 84.7032 0 0 0 84.7032)
(84.7032 0 0 0 84.7032 0 0 0 84.7032)
(84.7032 0 0 0 84.7032 0 0 0 84.7032)
(84.7032 0 0 0 84.7032 0 0 0 84.7032)
(84.7032 0 0 0 84.7032 0 0 0 84.7032)
(84.7032 0 0 0 84.7032 0 0 0 84.7032)
(84.7032 0 0 0 84.7032 0 0 0 84.7032)
(84.7032 0 0 0 84.7032 0 0 0 84.7032)
(84.7032 0 0 0 84.7032 0 0 0 84.7032)
(84.7032 0 0 0 84.7032 0 0 0 84.7032)
(84.7032 0 0 0 84.7032 0 0 0 84.7032)
(84.7032 0 0 0 84.7032 0 0 0 84.7032)
(84.7032 0 0 0 84.7032 0 0 0 84.7032)
(84.7032 0 0 0 84.7032 0 0 0 84.7032)
(84.7032 0 0 0 84.7032 0 0 0 84.7032)
(84.7032 0 0 0 84.7032 0 0 0 84.7032)
(84.7032 0 0 0 84.7032 0 0 0 84.7032)
(84.7032 0 0 0 84.7032 0 0 0 84.7032)
(84.7032 0 0 0 84.7032 0 0 0 84.7032)
(84.7032 0 0 0 84.7032 0 0 0 84.7032)
(84.7032 0 0 0 84.7032 0 0 0 84.7032)
(84.7032 0 0 0 84.7032 0 0 0 84.7032)
(84.7032 0 0 0 84.7032 0 0 0 84.7032)
(84.7032 0 0 0 84.7032 0 0 0 84.7032)
(84.8543 0 0 0 84.8543 0 0 0 84.8543)
(84.7032 0 0 0 84.7032 0 0 0 84.7032)
(84.7032 0 0 0 84.7032 0 0 0 84.7032)
(84.7032 0 0 0 84.7032 0 0 0 84.7032)
(84.7032 0 0 0 84.7032 0 0 0 84.7032)
(84.7032 0 0 0 84.7032 0 0 0 84.7032)
(84.7032 0 0 0 84.7032 0 0 0 84.7032)
(84.7032 0 0 0 84.7032 0 0 0 84.7032)
(84.7032 0 0 0 84.7032 0 0 0 84.7032)
(84.7032 0 0 0 84.7032 0 0 0 84.7032)
(84.7032 0 0 0 84.7032 0 0 0 84.7032)
(84.7032 0 0 0 84.7032 0 0 0 84.7032)
(84.7032 0 0 0 84.7032 0 0 0 84.7032)
(84.7032 0 0 0 84.7032 0 0 0 84.7032)
(84.7032 0 0 0 84.7032 0 0 0 84.7032)
(84.7032 0 0 0 84.7032 0 0 0 84.7032)
(84.7032 0 0 0 84.7032 0 0 0 84.7032)
(84.7032 0 0 0 84.7032 0 0 0 84.7032)
(84.7032 0 0 0 84.7032 0 0 0 84.7032)
(84.7032 0 0 0 84.7032 0 0 0 84.7032)
(84.7032 0 0 0 84.7032 0 0 0 84.7032)
(84.7032 0 0 0 84.7032 0 0 0 84.7032)
(84.7032 0 0 0 84.7032 0 0 0 84.7032)
(84.7032 0 0 0 84.7032 0 0 0 84.7032)
(84.7032 0 0 0 84.7032 0 0 0 84.7032)
(84.8543 0 0 0 84.8543 0 0 0 84.8543)
(669.642 0 0 0 669.642 0 0 0 669.642)
(668.775 0 0 0 668.775 0 0 0 668.775)
(668.794 0 0 0 668.794 0 0 0 668.794)
(668.804 0 0 0 668.804 0 0 0 668.804)
(668.801 0 0 0 668.801 0 0 0 668.801)
(668.786 0 0 0 668.786 0 0 0 668.786)
(668.756 0 0 0 668.756 0 0 0 668.756)
(668.711 0 0 0 668.711 0 0 0 668.711)
(668.65 0 0 0 668.65 0 0 0 668.65)
(668.571 0 0 0 668.571 0 0 0 668.571)
(668.474 0 0 0 668.474 0 0 0 668.474)
(668.358 0 0 0 668.358 0 0 0 668.358)
(668.223 0 0 0 668.223 0 0 0 668.223)
(668.068 0 0 0 668.068 0 0 0 668.068)
(667.889 0 0 0 667.889 0 0 0 667.889)
(667.676 0 0 0 667.676 0 0 0 667.676)
(667.418 0 0 0 667.418 0 0 0 667.418)
(667.104 0 0 0 667.104 0 0 0 667.104)
(666.744 0 0 0 666.744 0 0 0 666.744)
(666.405 0 0 0 666.405 0 0 0 666.405)
(666.273 0 0 0 666.273 0 0 0 666.273)
(666.842 0 0 0 666.842 0 0 0 666.842)
(669.164 0 0 0 669.164 0 0 0 669.164)
(674.875 0 0 0 674.875 0 0 0 674.875)
(677.115 0 0 0 677.115 0 0 0 677.115)
(665.439 0 0 0 665.439 0 0 0 665.439)
(664.5 0 0 0 664.5 0 0 0 664.5)
(664.474 0 0 0 664.474 0 0 0 664.474)
(664.437 0 0 0 664.437 0 0 0 664.437)
(664.393 0 0 0 664.393 0 0 0 664.393)
(664.339 0 0 0 664.339 0 0 0 664.339)
(664.275 0 0 0 664.275 0 0 0 664.275)
(664.198 0 0 0 664.198 0 0 0 664.198)
(664.109 0 0 0 664.109 0 0 0 664.109)
(664.007 0 0 0 664.007 0 0 0 664.007)
(663.895 0 0 0 663.895 0 0 0 663.895)
(663.776 0 0 0 663.776 0 0 0 663.776)
(663.657 0 0 0 663.657 0 0 0 663.657)
(663.543 0 0 0 663.543 0 0 0 663.543)
(663.439 0 0 0 663.439 0 0 0 663.439)
(663.339 0 0 0 663.339 0 0 0 663.339)
(663.237 0 0 0 663.237 0 0 0 663.237)
(663.124 0 0 0 663.124 0 0 0 663.124)
(663.009 0 0 0 663.009 0 0 0 663.009)
(662.968 0 0 0 662.968 0 0 0 662.968)
(663.2 0 0 0 663.2 0 0 0 663.2)
(664.229 0 0 0 664.229 0 0 0 664.229)
(667.147 0 0 0 667.147 0 0 0 667.147)
(673.618 0 0 0 673.618 0 0 0 673.618)
(676.714 0 0 0 676.714 0 0 0 676.714)
(670.345 0 0 0 670.345 0 0 0 670.345)
(669.478 0 0 0 669.478 0 0 0 669.478)
(669.504 0 0 0 669.504 0 0 0 669.504)
(669.517 0 0 0 669.517 0 0 0 669.517)
(669.518 0 0 0 669.518 0 0 0 669.518)
(669.505 0 0 0 669.505 0 0 0 669.505)
(669.478 0 0 0 669.478 0 0 0 669.478)
(669.435 0 0 0 669.435 0 0 0 669.435)
(669.374 0 0 0 669.374 0 0 0 669.374)
(669.295 0 0 0 669.295 0 0 0 669.295)
(669.196 0 0 0 669.196 0 0 0 669.196)
(669.075 0 0 0 669.075 0 0 0 669.075)
(668.933 0 0 0 668.933 0 0 0 668.933)
(668.766 0 0 0 668.766 0 0 0 668.766)
(668.568 0 0 0 668.568 0 0 0 668.568)
(668.331 0 0 0 668.331 0 0 0 668.331)
(668.04 0 0 0 668.04 0 0 0 668.04)
(667.687 0 0 0 667.687 0 0 0 667.687)
(667.279 0 0 0 667.279 0 0 0 667.279)
(666.883 0 0 0 666.883 0 0 0 666.883)
(666.681 0 0 0 666.681 0 0 0 666.681)
(667.164 0 0 0 667.164 0 0 0 667.164)
(669.38 0 0 0 669.38 0 0 0 669.38)
(674.97 0 0 0 674.97 0 0 0 674.97)
(677.129 0 0 0 677.129 0 0 0 677.129)
(666.38 0 0 0 666.38 0 0 0 666.38)
(665.46 0 0 0 665.46 0 0 0 665.46)
(665.446 0 0 0 665.446 0 0 0 665.446)
(665.422 0 0 0 665.422 0 0 0 665.422)
(665.389 0 0 0 665.389 0 0 0 665.389)
(665.346 0 0 0 665.346 0 0 0 665.346)
(665.291 0 0 0 665.291 0 0 0 665.291)
(665.223 0 0 0 665.223 0 0 0 665.223)
(665.142 0 0 0 665.142 0 0 0 665.142)
(665.047 0 0 0 665.047 0 0 0 665.047)
(664.94 0 0 0 664.94 0 0 0 664.94)
(664.823 0 0 0 664.823 0 0 0 664.823)
(664.702 0 0 0 664.702 0 0 0 664.702)
(664.581 0 0 0 664.581 0 0 0 664.581)
(664.461 0 0 0 664.461 0 0 0 664.461)
(664.337 0 0 0 664.337 0 0 0 664.337)
(664.201 0 0 0 664.201 0 0 0 664.201)
(664.043 0 0 0 664.043 0 0 0 664.043)
(663.873 0 0 0 663.873 0 0 0 663.873)
(663.765 0 0 0 663.765 0 0 0 663.765)
(663.915 0 0 0 663.915 0 0 0 663.915)
(664.841 0 0 0 664.841 0 0 0 664.841)
(667.624 0 0 0 667.624 0 0 0 667.624)
(673.921 0 0 0 673.921 0 0 0 673.921)
(676.813 0 0 0 676.813 0 0 0 676.813)
(666.38 0 0 0 666.38 0 0 0 666.38)
(665.46 0 0 0 665.46 0 0 0 665.46)
(665.446 0 0 0 665.446 0 0 0 665.446)
(665.422 0 0 0 665.422 0 0 0 665.422)
(665.389 0 0 0 665.389 0 0 0 665.389)
(665.346 0 0 0 665.346 0 0 0 665.346)
(665.291 0 0 0 665.291 0 0 0 665.291)
(665.223 0 0 0 665.223 0 0 0 665.223)
(665.142 0 0 0 665.142 0 0 0 665.142)
(665.047 0 0 0 665.047 0 0 0 665.047)
(664.94 0 0 0 664.94 0 0 0 664.94)
(664.823 0 0 0 664.823 0 0 0 664.823)
(664.702 0 0 0 664.702 0 0 0 664.702)
(664.581 0 0 0 664.581 0 0 0 664.581)
(664.461 0 0 0 664.461 0 0 0 664.461)
(664.337 0 0 0 664.337 0 0 0 664.337)
(664.201 0 0 0 664.201 0 0 0 664.201)
(664.043 0 0 0 664.043 0 0 0 664.043)
(663.873 0 0 0 663.873 0 0 0 663.873)
(663.765 0 0 0 663.765 0 0 0 663.765)
(663.915 0 0 0 663.915 0 0 0 663.915)
(664.841 0 0 0 664.841 0 0 0 664.841)
(667.624 0 0 0 667.624 0 0 0 667.624)
(673.921 0 0 0 673.921 0 0 0 673.921)
(676.813 0 0 0 676.813 0 0 0 676.813)
(670.345 0 0 0 670.345 0 0 0 670.345)
(669.478 0 0 0 669.478 0 0 0 669.478)
(669.504 0 0 0 669.504 0 0 0 669.504)
(669.517 0 0 0 669.517 0 0 0 669.517)
(669.518 0 0 0 669.518 0 0 0 669.518)
(669.505 0 0 0 669.505 0 0 0 669.505)
(669.478 0 0 0 669.478 0 0 0 669.478)
(669.435 0 0 0 669.435 0 0 0 669.435)
(669.374 0 0 0 669.374 0 0 0 669.374)
(669.295 0 0 0 669.295 0 0 0 669.295)
(669.195 0 0 0 669.195 0 0 0 669.195)
(669.075 0 0 0 669.075 0 0 0 669.075)
(668.932 0 0 0 668.932 0 0 0 668.932)
(668.765 0 0 0 668.765 0 0 0 668.765)
(668.568 0 0 0 668.568 0 0 0 668.568)
(668.33 0 0 0 668.33 0 0 0 668.33)
(668.04 0 0 0 668.04 0 0 0 668.04)
(667.687 0 0 0 667.687 0 0 0 667.687)
(667.279 0 0 0 667.279 0 0 0 667.279)
(666.882 0 0 0 666.882 0 0 0 666.882)
(666.68 0 0 0 666.68 0 0 0 666.68)
(667.163 0 0 0 667.163 0 0 0 667.163)
(669.378 0 0 0 669.378 0 0 0 669.378)
(674.969 0 0 0 674.969 0 0 0 674.969)
(677.128 0 0 0 677.128 0 0 0 677.128)
(665.439 0 0 0 665.439 0 0 0 665.439)
(664.5 0 0 0 664.5 0 0 0 664.5)
(664.474 0 0 0 664.474 0 0 0 664.474)
(664.437 0 0 0 664.437 0 0 0 664.437)
(664.393 0 0 0 664.393 0 0 0 664.393)
(664.339 0 0 0 664.339 0 0 0 664.339)
(664.275 0 0 0 664.275 0 0 0 664.275)
(664.198 0 0 0 664.198 0 0 0 664.198)
(664.109 0 0 0 664.109 0 0 0 664.109)
(664.007 0 0 0 664.007 0 0 0 664.007)
(663.895 0 0 0 663.895 0 0 0 663.895)
(663.776 0 0 0 663.776 0 0 0 663.776)
(663.657 0 0 0 663.657 0 0 0 663.657)
(663.543 0 0 0 663.543 0 0 0 663.543)
(663.439 0 0 0 663.439 0 0 0 663.439)
(663.339 0 0 0 663.339 0 0 0 663.339)
(663.237 0 0 0 663.237 0 0 0 663.237)
(663.124 0 0 0 663.124 0 0 0 663.124)
(663.009 0 0 0 663.009 0 0 0 663.009)
(662.968 0 0 0 662.968 0 0 0 662.968)
(663.2 0 0 0 663.2 0 0 0 663.2)
(664.229 0 0 0 664.229 0 0 0 664.229)
(667.147 0 0 0 667.147 0 0 0 667.147)
(673.619 0 0 0 673.619 0 0 0 673.619)
(676.714 0 0 0 676.714 0 0 0 676.714)
(669.642 0 0 0 669.642 0 0 0 669.642)
(668.775 0 0 0 668.775 0 0 0 668.775)
(668.794 0 0 0 668.794 0 0 0 668.794)
(668.804 0 0 0 668.804 0 0 0 668.804)
(668.801 0 0 0 668.801 0 0 0 668.801)
(668.786 0 0 0 668.786 0 0 0 668.786)
(668.756 0 0 0 668.756 0 0 0 668.756)
(668.711 0 0 0 668.711 0 0 0 668.711)
(668.65 0 0 0 668.65 0 0 0 668.65)
(668.571 0 0 0 668.571 0 0 0 668.571)
(668.474 0 0 0 668.474 0 0 0 668.474)
(668.358 0 0 0 668.358 0 0 0 668.358)
(668.223 0 0 0 668.223 0 0 0 668.223)
(668.068 0 0 0 668.068 0 0 0 668.068)
(667.889 0 0 0 667.889 0 0 0 667.889)
(667.676 0 0 0 667.676 0 0 0 667.676)
(667.418 0 0 0 667.418 0 0 0 667.418)
(667.104 0 0 0 667.104 0 0 0 667.104)
(666.744 0 0 0 666.744 0 0 0 666.744)
(666.405 0 0 0 666.405 0 0 0 666.405)
(666.273 0 0 0 666.273 0 0 0 666.273)
(666.842 0 0 0 666.842 0 0 0 666.842)
(669.164 0 0 0 669.164 0 0 0 669.164)
(674.875 0 0 0 674.875 0 0 0 674.875)
(677.115 0 0 0 677.115 0 0 0 677.115)
(666.38 0 0 0 666.38 0 0 0 666.38)
(665.46 0 0 0 665.46 0 0 0 665.46)
(665.446 0 0 0 665.446 0 0 0 665.446)
(665.422 0 0 0 665.422 0 0 0 665.422)
(665.389 0 0 0 665.389 0 0 0 665.389)
(665.346 0 0 0 665.346 0 0 0 665.346)
(665.291 0 0 0 665.291 0 0 0 665.291)
(665.223 0 0 0 665.223 0 0 0 665.223)
(665.142 0 0 0 665.142 0 0 0 665.142)
(665.047 0 0 0 665.047 0 0 0 665.047)
(664.94 0 0 0 664.94 0 0 0 664.94)
(664.823 0 0 0 664.823 0 0 0 664.823)
(664.702 0 0 0 664.702 0 0 0 664.702)
(664.581 0 0 0 664.581 0 0 0 664.581)
(664.461 0 0 0 664.461 0 0 0 664.461)
(664.337 0 0 0 664.337 0 0 0 664.337)
(664.201 0 0 0 664.201 0 0 0 664.201)
(664.043 0 0 0 664.043 0 0 0 664.043)
(663.873 0 0 0 663.873 0 0 0 663.873)
(663.765 0 0 0 663.765 0 0 0 663.765)
(663.915 0 0 0 663.915 0 0 0 663.915)
(664.841 0 0 0 664.841 0 0 0 664.841)
(667.624 0 0 0 667.624 0 0 0 667.624)
(673.921 0 0 0 673.921 0 0 0 673.921)
(676.813 0 0 0 676.813 0 0 0 676.813)
(670.345 0 0 0 670.345 0 0 0 670.345)
(669.478 0 0 0 669.478 0 0 0 669.478)
(669.504 0 0 0 669.504 0 0 0 669.504)
(669.517 0 0 0 669.517 0 0 0 669.517)
(669.518 0 0 0 669.518 0 0 0 669.518)
(669.505 0 0 0 669.505 0 0 0 669.505)
(669.478 0 0 0 669.478 0 0 0 669.478)
(669.435 0 0 0 669.435 0 0 0 669.435)
(669.374 0 0 0 669.374 0 0 0 669.374)
(669.295 0 0 0 669.295 0 0 0 669.295)
(669.196 0 0 0 669.196 0 0 0 669.196)
(669.075 0 0 0 669.075 0 0 0 669.075)
(668.933 0 0 0 668.933 0 0 0 668.933)
(668.766 0 0 0 668.766 0 0 0 668.766)
(668.568 0 0 0 668.568 0 0 0 668.568)
(668.331 0 0 0 668.331 0 0 0 668.331)
(668.04 0 0 0 668.04 0 0 0 668.04)
(667.687 0 0 0 667.687 0 0 0 667.687)
(667.279 0 0 0 667.279 0 0 0 667.279)
(666.883 0 0 0 666.883 0 0 0 666.883)
(666.681 0 0 0 666.681 0 0 0 666.681)
(667.164 0 0 0 667.164 0 0 0 667.164)
(669.38 0 0 0 669.38 0 0 0 669.38)
(674.97 0 0 0 674.97 0 0 0 674.97)
(677.129 0 0 0 677.129 0 0 0 677.129)
(670.345 0 0 0 670.345 0 0 0 670.345)
(669.478 0 0 0 669.478 0 0 0 669.478)
(669.504 0 0 0 669.504 0 0 0 669.504)
(669.517 0 0 0 669.517 0 0 0 669.517)
(669.518 0 0 0 669.518 0 0 0 669.518)
(669.505 0 0 0 669.505 0 0 0 669.505)
(669.478 0 0 0 669.478 0 0 0 669.478)
(669.435 0 0 0 669.435 0 0 0 669.435)
(669.374 0 0 0 669.374 0 0 0 669.374)
(669.295 0 0 0 669.295 0 0 0 669.295)
(669.195 0 0 0 669.195 0 0 0 669.195)
(669.075 0 0 0 669.075 0 0 0 669.075)
(668.932 0 0 0 668.932 0 0 0 668.932)
(668.765 0 0 0 668.765 0 0 0 668.765)
(668.568 0 0 0 668.568 0 0 0 668.568)
(668.33 0 0 0 668.33 0 0 0 668.33)
(668.04 0 0 0 668.04 0 0 0 668.04)
(667.687 0 0 0 667.687 0 0 0 667.687)
(667.279 0 0 0 667.279 0 0 0 667.279)
(666.882 0 0 0 666.882 0 0 0 666.882)
(666.68 0 0 0 666.68 0 0 0 666.68)
(667.163 0 0 0 667.163 0 0 0 667.163)
(669.378 0 0 0 669.378 0 0 0 669.378)
(674.969 0 0 0 674.969 0 0 0 674.969)
(677.128 0 0 0 677.128 0 0 0 677.128)
(666.38 0 0 0 666.38 0 0 0 666.38)
(665.46 0 0 0 665.46 0 0 0 665.46)
(665.446 0 0 0 665.446 0 0 0 665.446)
(665.422 0 0 0 665.422 0 0 0 665.422)
(665.389 0 0 0 665.389 0 0 0 665.389)
(665.346 0 0 0 665.346 0 0 0 665.346)
(665.291 0 0 0 665.291 0 0 0 665.291)
(665.223 0 0 0 665.223 0 0 0 665.223)
(665.142 0 0 0 665.142 0 0 0 665.142)
(665.047 0 0 0 665.047 0 0 0 665.047)
(664.94 0 0 0 664.94 0 0 0 664.94)
(664.823 0 0 0 664.823 0 0 0 664.823)
(664.702 0 0 0 664.702 0 0 0 664.702)
(664.581 0 0 0 664.581 0 0 0 664.581)
(664.461 0 0 0 664.461 0 0 0 664.461)
(664.337 0 0 0 664.337 0 0 0 664.337)
(664.201 0 0 0 664.201 0 0 0 664.201)
(664.043 0 0 0 664.043 0 0 0 664.043)
(663.873 0 0 0 663.873 0 0 0 663.873)
(663.765 0 0 0 663.765 0 0 0 663.765)
(663.915 0 0 0 663.915 0 0 0 663.915)
(664.841 0 0 0 664.841 0 0 0 664.841)
(667.624 0 0 0 667.624 0 0 0 667.624)
(673.921 0 0 0 673.921 0 0 0 673.921)
(676.814 0 0 0 676.814 0 0 0 676.814)
)
;

boundaryField
{
    outletCentralUnloaded
    {
        type            zeroGradient;
    }
    inletCentralUnloaded
    {
        type            zeroGradient;
    }
    outletFuelElement
    {
        type            zeroGradient;
    }
    inletFuelElement
    {
        type            zeroGradient;
    }
    defaultFaces
    {
        type            zeroGradient;
    }
    baffle_master
    {
        type            zeroGradient;
    }
    baffle_slave
    {
        type            zeroGradient;
    }
}


// ************************************************************************* //
