/*--------------------------------*- C++ -*----------------------------------*\
| =========                 |                                                 |
| \\      /  F ield         | OpenFOAM: The Open Source CFD Toolbox           |
|  \\    /   O peration     | Version:  2212                                  |
|   \\  /    A nd           | Website:  www.openfoam.com                      |
|    \\/     M anipulation  |                                                 |
\*---------------------------------------------------------------------------*/
FoamFile
{
    version     2.0;
    format      ascii;
    arch        "LSB;label=32;scalar=64";
    class       volScalarField;
    location    "21/fluidRegion";
    object      nut;
}
// * * * * * * * * * * * * * * * * * * * * * * * * * * * * * * * * * * * * * //

dimensions      [0 2 -1 0 0 0 0];

internalField   nonuniform List<scalar> 
350
(
0.000537296
0.000537252
0.000537207
0.000537163
0.000537119
0.000537075
0.000537032
0.000536988
0.000536945
0.000536903
0.000536861
0.00053682
0.000536782
0.000536747
0.000536716
0.000536692
0.000536679
0.000536682
0.000536711
0.000536777
0.000536903
0.000537117
0.000537469
0.00053803
0.000539621
0.000537296
0.000537252
0.000537207
0.000537163
0.000537119
0.000537075
0.000537032
0.000536988
0.000536945
0.000536903
0.000536861
0.00053682
0.000536782
0.000536747
0.000536716
0.000536692
0.000536679
0.000536682
0.000536711
0.000536777
0.000536903
0.000537117
0.000537469
0.00053803
0.000539621
0.00904997
0.00889875
0.00870266
0.00845172
0.00815025
0.00780293
0.00741468
0.00699064
0.00653623
0.00605713
0.00555939
0.00504948
0.00453438
0.00402151
0.00351858
0.00303327
0.00257289
0.00214397
0.00175216
0.00140236
0.00109902
0.000846377
0.000648176
0.000506344
0.000416407
0.00910518
0.00895347
0.00875698
0.00850513
0.00820236
0.00785335
0.00746305
0.00703662
0.00657949
0.00609738
0.00559635
0.00508292
0.00456412
0.00404743
0.00354065
0.00305158
0.00258761
0.00215539
0.00176062
0.00140827
0.00110281
0.000848526
0.000649173
0.000506668
0.000416468
0.00904095
0.00888972
0.00869376
0.00844299
0.00814177
0.00779475
0.00740685
0.00698323
0.00652927
0.00605067
0.00555347
0.00504414
0.00452964
0.00401738
0.00351506
0.00303035
0.00257053
0.00214212
0.00175077
0.00140137
0.00109835
0.000845957
0.000647933
0.000506217
0.000416366
0.00909297
0.00894136
0.00874492
0.00849325
0.00819074
0.00784209
0.00745222
0.0070263
0.00656977
0.00608831
0.00558801
0.00507536
0.00455738
0.00404155
0.00353563
0.00304742
0.00258426
0.00215279
0.0017587
0.00140693
0.00110195
0.000848043
0.000648955
0.000506604
0.000416459
0.00909297
0.00894136
0.00874492
0.00849325
0.00819074
0.00784209
0.00745222
0.0070263
0.00656977
0.00608831
0.00558801
0.00507536
0.00455738
0.00404155
0.00353563
0.00304742
0.00258426
0.00215279
0.0017587
0.00140693
0.00110195
0.000848043
0.000648955
0.000506604
0.000416459
0.00904096
0.00888973
0.00869377
0.008443
0.00814177
0.00779475
0.00740685
0.00698323
0.00652927
0.00605068
0.00555348
0.00504415
0.00452965
0.00401739
0.00351506
0.00303035
0.00257053
0.00214212
0.00175077
0.00140137
0.00109835
0.000845956
0.000647932
0.000506216
0.000416366
0.00910518
0.00895347
0.00875698
0.00850513
0.00820236
0.00785335
0.00746305
0.00703662
0.00657949
0.00609738
0.00559635
0.00508292
0.00456412
0.00404743
0.00354065
0.00305158
0.00258761
0.00215539
0.00176062
0.00140827
0.00110281
0.000848526
0.000649173
0.000506668
0.000416468
0.00904997
0.00889875
0.00870266
0.00845172
0.00815025
0.00780293
0.00741468
0.00699064
0.00653623
0.00605713
0.00555939
0.00504948
0.00453438
0.00402151
0.00351858
0.00303327
0.00257289
0.00214397
0.00175216
0.00140236
0.00109902
0.000846377
0.000648176
0.000506344
0.000416407
0.00909297
0.00894136
0.00874492
0.00849325
0.00819074
0.00784209
0.00745222
0.0070263
0.00656977
0.00608831
0.00558801
0.00507536
0.00455738
0.00404155
0.00353563
0.00304742
0.00258426
0.00215279
0.0017587
0.00140693
0.00110195
0.000848043
0.000648955
0.000506604
0.000416459
0.00904095
0.00888972
0.00869376
0.00844299
0.00814177
0.00779475
0.00740685
0.00698323
0.00652927
0.00605067
0.00555347
0.00504414
0.00452964
0.00401738
0.00351506
0.00303035
0.00257053
0.00214212
0.00175077
0.00140137
0.00109835
0.000845957
0.000647933
0.000506217
0.000416366
0.00904096
0.00888973
0.00869377
0.008443
0.00814177
0.00779475
0.00740685
0.00698323
0.00652927
0.00605068
0.00555348
0.00504415
0.00452965
0.00401739
0.00351506
0.00303035
0.00257053
0.00214212
0.00175077
0.00140137
0.00109835
0.000845956
0.000647932
0.000506216
0.000416366
0.00909297
0.00894136
0.00874492
0.00849325
0.00819074
0.00784209
0.00745222
0.0070263
0.00656977
0.00608831
0.00558801
0.00507536
0.00455738
0.00404155
0.00353563
0.00304742
0.00258426
0.00215279
0.0017587
0.00140693
0.00110195
0.000848042
0.000648954
0.000506603
0.000416459
)
;

boundaryField
{
    outletCentralUnloaded
    {
        type            zeroGradient;
    }
    inletCentralUnloaded
    {
        type            zeroGradient;
    }
    outletFuelElement
    {
        type            zeroGradient;
    }
    inletFuelElement
    {
        type            zeroGradient;
    }
    defaultFaces
    {
        type            zeroGradient;
    }
    baffle_master
    {
        type            calculated;
        value           nonuniform List<scalar> 
150
(
0.000537296
0.000537296
0.000537296
0.000537252
0.000537252
0.000537252
0.000537207
0.000537207
0.000537207
0.000537163
0.000537163
0.000537163
0.000537119
0.000537119
0.000537119
0.000537075
0.000537075
0.000537075
0.000537032
0.000537032
0.000537032
0.000536988
0.000536988
0.000536988
0.000536945
0.000536945
0.000536945
0.000536903
0.000536903
0.000536903
0.000536861
0.000536861
0.000536861
0.00053682
0.00053682
0.00053682
0.000536782
0.000536782
0.000536782
0.000536747
0.000536747
0.000536747
0.000536716
0.000536716
0.000536716
0.000536692
0.000536692
0.000536692
0.000536679
0.000536679
0.000536679
0.000536682
0.000536682
0.000536682
0.000536711
0.000536711
0.000536711
0.000536777
0.000536777
0.000536777
0.000536903
0.000536903
0.000536903
0.000537117
0.000537117
0.000537117
0.000537469
0.000537469
0.000537469
0.00053803
0.00053803
0.00053803
0.000539621
0.000539621
0.000539621
0.000537296
0.000537296
0.000537296
0.000537252
0.000537252
0.000537252
0.000537207
0.000537207
0.000537207
0.000537163
0.000537163
0.000537163
0.000537119
0.000537119
0.000537119
0.000537075
0.000537075
0.000537075
0.000537032
0.000537032
0.000537032
0.000536988
0.000536988
0.000536988
0.000536945
0.000536945
0.000536945
0.000536903
0.000536903
0.000536903
0.000536861
0.000536861
0.000536861
0.00053682
0.00053682
0.00053682
0.000536782
0.000536782
0.000536782
0.000536747
0.000536747
0.000536747
0.000536716
0.000536716
0.000536716
0.000536692
0.000536692
0.000536692
0.000536679
0.000536679
0.000536679
0.000536682
0.000536682
0.000536682
0.000536711
0.000536711
0.000536711
0.000536777
0.000536777
0.000536777
0.000536903
0.000536903
0.000536903
0.000537117
0.000537117
0.000537117
0.000537469
0.000537469
0.000537469
0.00053803
0.00053803
0.00053803
0.000539621
0.000539621
0.000539621
)
;
    }
    baffle_slave
    {
        type            calculated;
        value           nonuniform List<scalar> 
150
(
0.00910518
0.00909297
0.00909297
0.00895347
0.00894136
0.00894136
0.00875698
0.00874492
0.00874492
0.00850513
0.00849325
0.00849325
0.00820236
0.00819074
0.00819074
0.00785335
0.00784209
0.00784209
0.00746305
0.00745222
0.00745222
0.00703662
0.0070263
0.0070263
0.00657949
0.00656977
0.00656977
0.00609738
0.00608831
0.00608831
0.00559635
0.00558801
0.00558801
0.00508292
0.00507536
0.00507536
0.00456412
0.00455738
0.00455738
0.00404743
0.00404155
0.00404155
0.00354065
0.00353563
0.00353563
0.00305158
0.00304742
0.00304742
0.00258761
0.00258426
0.00258426
0.00215539
0.00215279
0.00215279
0.00176062
0.0017587
0.0017587
0.00140827
0.00140693
0.00140693
0.00110281
0.00110195
0.00110195
0.000848526
0.000848043
0.000848042
0.000649173
0.000648955
0.000648954
0.000506668
0.000506604
0.000506603
0.000416468
0.000416459
0.000416459
0.00909297
0.00910518
0.00909297
0.00894136
0.00895347
0.00894136
0.00874492
0.00875698
0.00874492
0.00849325
0.00850513
0.00849325
0.00819074
0.00820236
0.00819074
0.00784209
0.00785335
0.00784209
0.00745222
0.00746305
0.00745222
0.0070263
0.00703662
0.0070263
0.00656977
0.00657949
0.00656977
0.00608831
0.00609738
0.00608831
0.00558801
0.00559635
0.00558801
0.00507536
0.00508292
0.00507536
0.00455738
0.00456412
0.00455738
0.00404155
0.00404743
0.00404155
0.00353563
0.00354065
0.00353563
0.00304742
0.00305158
0.00304742
0.00258426
0.00258761
0.00258426
0.00215279
0.00215539
0.00215279
0.0017587
0.00176062
0.0017587
0.00140693
0.00140827
0.00140693
0.00110195
0.00110281
0.00110195
0.000848043
0.000848526
0.000848043
0.000648955
0.000649173
0.000648955
0.000506604
0.000506668
0.000506604
0.000416459
0.000416468
0.000416459
)
;
    }
}


// ************************************************************************* //
