/*--------------------------------*- C++ -*----------------------------------*\
| =========                 |                                                 |
| \\      /  F ield         | OpenFOAM: The Open Source CFD Toolbox           |
|  \\    /   O peration     | Version:  2212                                  |
|   \\  /    A nd           | Website:  www.openfoam.com                      |
|    \\/     M anipulation  |                                                 |
\*---------------------------------------------------------------------------*/
FoamFile
{
    version     2.0;
    format      ascii;
    arch        "LSB;label=32;scalar=64";
    class       volScalarField;
    location    "21/fluidRegion";
    object      p_rgh;
}
// * * * * * * * * * * * * * * * * * * * * * * * * * * * * * * * * * * * * * //

dimensions      [1 -1 -2 0 0 0 0];

internalField   nonuniform List<scalar> 
350
(
3.44743e+06
3.44772e+06
3.44802e+06
3.44831e+06
3.44861e+06
3.4489e+06
3.4492e+06
3.4495e+06
3.44979e+06
3.45009e+06
3.45038e+06
3.45068e+06
3.45097e+06
3.45127e+06
3.45156e+06
3.45186e+06
3.45215e+06
3.45245e+06
3.45274e+06
3.45304e+06
3.45333e+06
3.45363e+06
3.45392e+06
3.45421e+06
3.4545e+06
3.44743e+06
3.44772e+06
3.44802e+06
3.44831e+06
3.44861e+06
3.4489e+06
3.4492e+06
3.4495e+06
3.44979e+06
3.45009e+06
3.45038e+06
3.45068e+06
3.45097e+06
3.45127e+06
3.45156e+06
3.45186e+06
3.45215e+06
3.45245e+06
3.45274e+06
3.45304e+06
3.45333e+06
3.45363e+06
3.45392e+06
3.45421e+06
3.4545e+06
3.46959e+06
3.51338e+06
3.5569e+06
3.59986e+06
3.64199e+06
3.683e+06
3.72264e+06
3.76069e+06
3.79693e+06
3.83118e+06
3.86328e+06
3.89308e+06
3.92047e+06
3.94537e+06
3.96775e+06
3.98757e+06
4.00489e+06
4.01978e+06
4.03235e+06
4.04275e+06
4.05115e+06
4.05773e+06
4.06271e+06
4.06636e+06
4.06896e+06
3.46959e+06
3.51338e+06
3.5569e+06
3.59986e+06
3.64199e+06
3.683e+06
3.72264e+06
3.76069e+06
3.79693e+06
3.83118e+06
3.86328e+06
3.89308e+06
3.92047e+06
3.94537e+06
3.96775e+06
3.98757e+06
4.00489e+06
4.01978e+06
4.03235e+06
4.04275e+06
4.05115e+06
4.05773e+06
4.06271e+06
4.06636e+06
4.06896e+06
3.46959e+06
3.51338e+06
3.5569e+06
3.59986e+06
3.64199e+06
3.683e+06
3.72264e+06
3.76069e+06
3.79693e+06
3.83118e+06
3.86328e+06
3.89308e+06
3.92047e+06
3.94537e+06
3.96775e+06
3.98757e+06
4.00489e+06
4.01978e+06
4.03235e+06
4.04275e+06
4.05115e+06
4.05773e+06
4.06271e+06
4.06636e+06
4.06896e+06
3.46959e+06
3.51338e+06
3.5569e+06
3.59986e+06
3.64199e+06
3.683e+06
3.72264e+06
3.76069e+06
3.79693e+06
3.83118e+06
3.86328e+06
3.89308e+06
3.92047e+06
3.94537e+06
3.96775e+06
3.98757e+06
4.00489e+06
4.01978e+06
4.03235e+06
4.04275e+06
4.05115e+06
4.05773e+06
4.06271e+06
4.06636e+06
4.06896e+06
3.46959e+06
3.51338e+06
3.5569e+06
3.59986e+06
3.64199e+06
3.683e+06
3.72264e+06
3.76069e+06
3.79693e+06
3.83118e+06
3.86328e+06
3.89308e+06
3.92047e+06
3.94537e+06
3.96775e+06
3.98757e+06
4.00489e+06
4.01978e+06
4.03235e+06
4.04275e+06
4.05115e+06
4.05773e+06
4.06271e+06
4.06636e+06
4.06896e+06
3.46959e+06
3.51338e+06
3.5569e+06
3.59986e+06
3.64199e+06
3.683e+06
3.72264e+06
3.76069e+06
3.79693e+06
3.83118e+06
3.86328e+06
3.89308e+06
3.92047e+06
3.94537e+06
3.96775e+06
3.98757e+06
4.00489e+06
4.01978e+06
4.03235e+06
4.04275e+06
4.05115e+06
4.05773e+06
4.06271e+06
4.06636e+06
4.06896e+06
3.46959e+06
3.51338e+06
3.5569e+06
3.59986e+06
3.64199e+06
3.683e+06
3.72264e+06
3.76069e+06
3.79693e+06
3.83118e+06
3.86328e+06
3.89308e+06
3.92047e+06
3.94537e+06
3.96775e+06
3.98757e+06
4.00489e+06
4.01978e+06
4.03235e+06
4.04275e+06
4.05115e+06
4.05773e+06
4.06271e+06
4.06636e+06
4.06896e+06
3.46959e+06
3.51338e+06
3.5569e+06
3.59986e+06
3.64199e+06
3.683e+06
3.72264e+06
3.76069e+06
3.79693e+06
3.83118e+06
3.86328e+06
3.89308e+06
3.92047e+06
3.94537e+06
3.96775e+06
3.98757e+06
4.00489e+06
4.01978e+06
4.03235e+06
4.04275e+06
4.05115e+06
4.05773e+06
4.06271e+06
4.06636e+06
4.06896e+06
3.46959e+06
3.51338e+06
3.5569e+06
3.59986e+06
3.64199e+06
3.683e+06
3.72264e+06
3.76069e+06
3.79693e+06
3.83118e+06
3.86328e+06
3.89308e+06
3.92047e+06
3.94537e+06
3.96775e+06
3.98757e+06
4.00489e+06
4.01978e+06
4.03235e+06
4.04275e+06
4.05115e+06
4.05773e+06
4.06271e+06
4.06636e+06
4.06896e+06
3.46959e+06
3.51338e+06
3.5569e+06
3.59986e+06
3.64199e+06
3.683e+06
3.72264e+06
3.76069e+06
3.79693e+06
3.83118e+06
3.86328e+06
3.89308e+06
3.92047e+06
3.94537e+06
3.96775e+06
3.98757e+06
4.00489e+06
4.01978e+06
4.03235e+06
4.04275e+06
4.05115e+06
4.05773e+06
4.06271e+06
4.06636e+06
4.06896e+06
3.46959e+06
3.51338e+06
3.5569e+06
3.59986e+06
3.64199e+06
3.683e+06
3.72264e+06
3.76069e+06
3.79693e+06
3.83118e+06
3.86328e+06
3.89308e+06
3.92047e+06
3.94537e+06
3.96775e+06
3.98757e+06
4.00489e+06
4.01978e+06
4.03235e+06
4.04275e+06
4.05115e+06
4.05773e+06
4.06271e+06
4.06636e+06
4.06896e+06
3.46959e+06
3.51338e+06
3.5569e+06
3.59986e+06
3.64199e+06
3.683e+06
3.72264e+06
3.76069e+06
3.79693e+06
3.83118e+06
3.86328e+06
3.89308e+06
3.92047e+06
3.94537e+06
3.96775e+06
3.98757e+06
4.00489e+06
4.01978e+06
4.03235e+06
4.04275e+06
4.05115e+06
4.05773e+06
4.06271e+06
4.06636e+06
4.06896e+06
)
;

boundaryField
{
    outletCentralUnloaded
    {
        type            fixedValue;
        value           uniform 3.44728e+06;
    }
    inletCentralUnloaded
    {
        type            zeroGradient;
    }
    outletFuelElement
    {
        type            fixedValue;
        value           uniform 3.44728e+06;
    }
    inletFuelElement
    {
        type            zeroGradient;
    }
    defaultFaces
    {
        type            zeroGradient;
    }
    baffle_master
    {
        type            zeroGradient;
    }
    baffle_slave
    {
        type            zeroGradient;
    }
}


// ************************************************************************* //
