/*--------------------------------*- C++ -*----------------------------------*\
| =========                 |                                                 |
| \\      /  F ield         | OpenFOAM: The Open Source CFD Toolbox           |
|  \\    /   O peration     | Version:  2212                                  |
|   \\  /    A nd           | Website:  www.openfoam.com                      |
|    \\/     M anipulation  |                                                 |
\*---------------------------------------------------------------------------*/
FoamFile
{
    version     2.0;
    format      ascii;
    arch        "LSB;label=32;scalar=64";
    class       volScalarField;
    location    "21/fluidRegion";
    object      Re;
}
// * * * * * * * * * * * * * * * * * * * * * * * * * * * * * * * * * * * * * //

dimensions      [0 0 0 0 0 0 0];

internalField   nonuniform List<scalar> 
350
(
173926
173926
173926
173926
173926
173926
173926
173926
173926
173926
173926
173926
173926
173926
173926
173926
173926
173926
173926
173926
173926
173926
173926
173926
174340
173926
173926
173926
173926
173926
173926
173926
173926
173926
173926
173926
173926
173926
173926
173926
173926
173926
173926
173926
173926
173926
173926
173926
173926
174340
54027.7
53934.5
53936.6
53937.6
53937.3
53935.7
53932.5
53927.7
53921.1
53912.6
53902.1
53889.6
53875.1
53858.5
53839.3
53816.4
53788.6
53755
53716.2
53679.8
53665.6
53726.8
53976.4
54591.5
54833.1
53576.1
53475.3
53472.5
53468.6
53463.9
53458.1
53451.2
53442.9
53433.4
53422.4
53410.4
53397.6
53384.9
53372.7
53361.5
53350.8
53339.8
53327.7
53315.4
53311
53335.9
53446.3
53759.6
54456
54789.9
54103.4
54010.2
54012.9
54014.4
54014.4
54013.1
54010.2
54005.5
53999
53990.5
53979.8
53966.8
53951.5
53933.5
53912.3
53886.8
53855.5
53817.6
53773.8
53731.2
53709.5
53761.4
53999.5
54601.7
54834.7
53677.1
53578.4
53576.9
53574.3
53570.8
53566.1
53560.2
53553
53544.2
53534
53522.5
53510
53497
53484
53471.1
53457.9
53443.2
53426.3
53408.1
53396.5
53412.6
53511.9
53810.7
54488.6
54800.6
53677.1
53578.4
53576.9
53574.3
53570.8
53566.1
53560.2
53553
53544.2
53534
53522.5
53510
53497
53484
53471.1
53457.9
53443.2
53426.3
53408.1
53396.5
53412.6
53511.9
53810.7
54488.6
54800.6
54103.4
54010.2
54012.9
54014.3
54014.4
54013.1
54010.1
54005.5
53999
53990.4
53979.7
53966.8
53951.4
53933.5
53912.3
53886.7
53855.5
53817.5
53773.7
53731.1
53709.4
53761.3
53999.4
54601.6
54834.6
53576.1
53475.3
53472.5
53468.6
53463.9
53458.1
53451.2
53442.9
53433.4
53422.4
53410.4
53397.6
53384.9
53372.7
53361.5
53350.8
53339.8
53327.7
53315.4
53311
53335.9
53446.3
53759.6
54456
54789.9
54027.7
53934.5
53936.6
53937.6
53937.3
53935.7
53932.5
53927.7
53921.1
53912.6
53902.1
53889.6
53875.2
53858.5
53839.3
53816.4
53788.6
53755
53716.2
53679.8
53665.6
53726.8
53976.4
54591.5
54833.1
53677.1
53578.4
53576.9
53574.3
53570.8
53566.1
53560.2
53553
53544.2
53534
53522.5
53510
53497
53484
53471.1
53457.9
53443.2
53426.3
53408.1
53396.5
53412.6
53511.9
53810.7
54488.6
54800.6
54103.4
54010.2
54012.9
54014.4
54014.4
54013.1
54010.2
54005.5
53999
53990.5
53979.8
53966.8
53951.5
53933.5
53912.3
53886.8
53855.5
53817.6
53773.8
53731.2
53709.5
53761.4
53999.5
54601.7
54834.7
54103.4
54010.2
54012.9
54014.3
54014.4
54013.1
54010.1
54005.5
53999
53990.4
53979.7
53966.8
53951.4
53933.5
53912.3
53886.7
53855.5
53817.6
53773.7
53731.1
53709.4
53761.3
53999.4
54601.6
54834.6
53677.1
53578.4
53576.9
53574.3
53570.8
53566.1
53560.2
53553
53544.2
53534
53522.5
53510
53497
53484
53471.1
53457.9
53443.2
53426.3
53408.1
53396.5
53412.6
53511.9
53810.8
54488.6
54800.6
)
;

boundaryField
{
    outletCentralUnloaded
    {
        type            zeroGradient;
    }
    inletCentralUnloaded
    {
        type            zeroGradient;
    }
    outletFuelElement
    {
        type            zeroGradient;
    }
    inletFuelElement
    {
        type            zeroGradient;
    }
    defaultFaces
    {
        type            zeroGradient;
    }
    baffle_master
    {
        type            zeroGradient;
    }
    baffle_slave
    {
        type            zeroGradient;
    }
}


// ************************************************************************* //
