/*--------------------------------*- C++ -*----------------------------------*\
| =========                 |                                                 |
| \\      /  F ield         | OpenFOAM: The Open Source CFD Toolbox           |
|  \\    /   O peration     | Version:  2212                                  |
|   \\  /    A nd           | Website:  www.openfoam.com                      |
|    \\/     M anipulation  |                                                 |
\*---------------------------------------------------------------------------*/
FoamFile
{
    version     2.0;
    format      ascii;
    arch        "LSB;label=32;scalar=64";
    class       volScalarField;
    location    "21/fluidRegion";
    object      T.cladAvForNeutronics;
}
// * * * * * * * * * * * * * * * * * * * * * * * * * * * * * * * * * * * * * //

dimensions      [0 0 0 1 0 0 0];

internalField   nonuniform List<scalar> 
350
(
0
0
0
0
0
0
0
0
0
0
0
0
0
0
0
0
0
0
0
0
0
0
0
0
0
0
0
0
0
0
0
0
0
0
0
0
0
0
0
0
0
0
0
0
0
0
0
0
0
0
1620.53
1662.54
1692.4
1710.08
1715.7
1709.51
1691.89
1663.36
1624.58
1576.32
1519.5
1455.14
1384.39
1308.5
1228.78
1146.52
1062.89
978.684
894.065
808.079
718.007
618.547
501.587
359.257
194.114
1644
1686.72
1717.07
1735.04
1740.75
1734.43
1716.48
1687.44
1647.95
1598.81
1540.95
1475.41
1403.35
1326.03
1244.8
1160.99
1075.8
990.082
904.036
816.731
725.431
624.753
506.413
362.347
195.161
1616.7
1658.62
1688.41
1706.06
1711.68
1705.53
1687.97
1659.54
1620.88
1572.77
1516.13
1451.96
1381.43
1305.78
1226.29
1144.28
1060.9
976.931
892.536
806.758
716.881
617.614
500.87
358.801
193.954
1638.72
1681.27
1711.49
1729.39
1735.06
1728.76
1710.88
1681.94
1642.6
1593.66
1536.03
1470.75
1398.99
1322
1241.11
1157.65
1072.82
987.45
901.732
814.731
723.715
623.317
505.295
361.631
194.919
1638.72
1681.27
1711.49
1729.39
1735.06
1728.76
1710.88
1681.94
1642.6
1593.66
1536.03
1470.75
1398.99
1322
1241.11
1157.65
1072.82
987.45
901.732
814.731
723.715
623.317
505.295
361.631
194.919
1616.7
1658.62
1688.41
1706.06
1711.68
1705.53
1687.97
1659.54
1620.88
1572.78
1516.13
1451.97
1381.43
1305.78
1226.3
1144.29
1060.9
976.931
892.537
806.759
716.881
617.615
500.871
358.802
193.954
1644
1686.72
1717.07
1735.04
1740.75
1734.43
1716.48
1687.44
1647.95
1598.81
1540.95
1475.41
1403.35
1326.03
1244.8
1160.99
1075.8
990.082
904.036
816.731
725.431
624.753
506.413
362.347
195.161
1620.53
1662.54
1692.4
1710.08
1715.7
1709.51
1691.89
1663.36
1624.58
1576.32
1519.5
1455.14
1384.39
1308.5
1228.78
1146.52
1062.89
978.684
894.065
808.079
718.007
618.547
501.587
359.257
194.114
1638.72
1681.27
1711.49
1729.39
1735.06
1728.76
1710.88
1681.94
1642.6
1593.66
1536.03
1470.75
1398.99
1322
1241.11
1157.65
1072.82
987.449
901.732
814.731
723.715
623.317
505.295
361.631
194.919
1616.7
1658.62
1688.41
1706.06
1711.68
1705.53
1687.97
1659.54
1620.88
1572.77
1516.13
1451.96
1381.43
1305.78
1226.29
1144.28
1060.9
976.931
892.536
806.758
716.88
617.614
500.87
358.801
193.954
1616.7
1658.62
1688.41
1706.06
1711.68
1705.53
1687.97
1659.54
1620.88
1572.78
1516.13
1451.97
1381.43
1305.78
1226.3
1144.29
1060.9
976.931
892.537
806.759
716.881
617.615
500.871
358.802
193.954
1638.72
1681.27
1711.49
1729.39
1735.06
1728.76
1710.88
1681.94
1642.6
1593.66
1536.03
1470.75
1398.99
1322
1241.11
1157.65
1072.82
987.449
901.732
814.731
723.715
623.317
505.295
361.631
194.919
)
;

boundaryField
{
    outletCentralUnloaded
    {
        type            zeroGradient;
    }
    inletCentralUnloaded
    {
        type            zeroGradient;
    }
    outletFuelElement
    {
        type            zeroGradient;
    }
    inletFuelElement
    {
        type            zeroGradient;
    }
    defaultFaces
    {
        type            zeroGradient;
    }
    baffle_master
    {
        type            zeroGradient;
    }
    baffle_slave
    {
        type            zeroGradient;
    }
}


// ************************************************************************* //
