/*--------------------------------*- C++ -*----------------------------------*\
| =========                 |                                                 |
| \\      /  F ield         | OpenFOAM: The Open Source CFD Toolbox           |
|  \\    /   O peration     | Version:  2212                                  |
|   \\  /    A nd           | Website:  www.openfoam.com                      |
|    \\/     M anipulation  |                                                 |
\*---------------------------------------------------------------------------*/
FoamFile
{
    version     2.0;
    format      ascii;
    arch        "LSB;label=32;scalar=64";
    class       volScalarField;
    location    "21/fluidRegion";
    object      T.fuelAvForNeutronics;
}
// * * * * * * * * * * * * * * * * * * * * * * * * * * * * * * * * * * * * * //

dimensions      [0 0 0 1 0 0 0];

internalField   nonuniform List<scalar> 
350
(
0
0
0
0
0
0
0
0
0
0
0
0
0
0
0
0
0
0
0
0
0
0
0
0
0
0
0
0
0
0
0
0
0
0
0
0
0
0
0
0
0
0
0
0
0
0
0
0
0
0
1666.16
2366.93
3042.38
3682.22
4276.7
4816.72
5294.03
5701.32
6032.37
6282.12
6446.79
6523.91
6512.41
6412.58
6226.07
5955.81
5605.9
5181.36
4687.87
4131.43
3517.67
2851.47
2136.69
1378.37
589.066
1687.09
2396.09
3079.43
3726.7
4328.02
4874.23
5356.94
5768.78
6103.45
6355.84
6522.13
6599.82
6587.83
6486.45
6297.38
6023.61
5669.28
5239.5
4740.05
4177.02
3556.1
2882.23
2159.22
1392.14
593.688
1662.75
2362.22
3036.43
3675.1
4268.49
4807.54
5284
5690.58
6021.06
6270.4
6434.82
6511.86
6500.44
6400.86
6214.75
5945.06
5595.85
5172.15
4679.6
4124.2
3511.58
2846.61
2133.14
1376.2
588.335
1682.36
2389.46
3070.97
3716.52
4316.27
4861.04
5342.5
5753.29
6087.12
6338.89
6504.8
6582.35
6570.47
6469.45
6280.96
6008
5654.68
5226.11
4728.03
4166.52
3547.25
2875.14
2154.03
1388.97
592.624
1682.36
2389.46
3070.98
3716.52
4316.27
4861.04
5342.5
5753.29
6087.12
6338.89
6504.8
6582.35
6570.47
6469.45
6280.96
6008
5654.68
5226.11
4728.03
4166.52
3547.25
2875.14
2154.03
1388.97
592.624
1662.75
2362.22
3036.43
3675.1
4268.49
4807.54
5284
5690.58
6021.06
6270.4
6434.82
6511.86
6500.44
6400.86
6214.75
5945.06
5595.85
5172.15
4679.6
4124.2
3511.58
2846.62
2133.14
1376.2
588.335
1687.09
2396.09
3079.43
3726.7
4328.02
4874.23
5356.94
5768.78
6103.45
6355.84
6522.13
6599.82
6587.82
6486.45
6297.38
6023.61
5669.28
5239.5
4740.05
4177.02
3556.1
2882.23
2159.22
1392.14
593.688
1666.16
2366.93
3042.38
3682.22
4276.69
4816.72
5294.03
5701.32
6032.37
6282.12
6446.79
6523.91
6512.41
6412.58
6226.07
5955.81
5605.9
5181.36
4687.87
4131.43
3517.67
2851.47
2136.69
1378.37
589.066
1682.36
2389.46
3070.98
3716.52
4316.27
4861.04
5342.5
5753.29
6087.12
6338.89
6504.8
6582.35
6570.47
6469.45
6280.96
6008
5654.68
5226.11
4728.03
4166.52
3547.25
2875.14
2154.03
1388.97
592.624
1662.75
2362.22
3036.43
3675.1
4268.49
4807.54
5284
5690.58
6021.06
6270.4
6434.82
6511.86
6500.44
6400.86
6214.75
5945.06
5595.85
5172.15
4679.6
4124.2
3511.58
2846.62
2133.14
1376.2
588.335
1662.75
2362.22
3036.43
3675.1
4268.49
4807.54
5284
5690.58
6021.06
6270.4
6434.82
6511.86
6500.44
6400.86
6214.75
5945.06
5595.85
5172.15
4679.6
4124.21
3511.58
2846.62
2133.14
1376.2
588.335
1682.36
2389.46
3070.98
3716.52
4316.27
4861.04
5342.5
5753.29
6087.12
6338.89
6504.8
6582.35
6570.47
6469.45
6280.96
6008
5654.68
5226.11
4728.03
4166.52
3547.25
2875.14
2154.03
1388.97
592.624
)
;

boundaryField
{
    outletCentralUnloaded
    {
        type            zeroGradient;
    }
    inletCentralUnloaded
    {
        type            zeroGradient;
    }
    outletFuelElement
    {
        type            zeroGradient;
    }
    inletFuelElement
    {
        type            zeroGradient;
    }
    defaultFaces
    {
        type            zeroGradient;
    }
    baffle_master
    {
        type            zeroGradient;
    }
    baffle_slave
    {
        type            zeroGradient;
    }
}


// ************************************************************************* //
