/*--------------------------------*- C++ -*----------------------------------*\
| =========                 |                                                 |
| \\      /  F ield         | OpenFOAM: The Open Source CFD Toolbox           |
|  \\    /   O peration     | Version:  2212                                  |
|   \\  /    A nd           | Website:  www.openfoam.com                      |
|    \\/     M anipulation  |                                                 |
\*---------------------------------------------------------------------------*/
FoamFile
{
    version     2.0;
    format      ascii;
    arch        "LSB;label=32;scalar=64";
    class       volScalarField;
    location    "21/fluidRegion";
    object      Tci.nuclearFuelPin;
}
// * * * * * * * * * * * * * * * * * * * * * * * * * * * * * * * * * * * * * //

dimensions      [0 0 0 1 0 0 0];

internalField   nonuniform List<scalar> 
350
(
0
0
0
0
0
0
0
0
0
0
0
0
0
0
0
0
0
0
0
0
0
0
0
0
0
0
0
0
0
0
0
0
0
0
0
0
0
0
0
0
0
0
0
0
0
0
0
0
0
0
1621.21
1674.04
1714.5
1742.4
1757.69
1760.46
1750.97
1729.59
1696.87
1653.51
1600.31
1538.28
1468.5
1392.21
1310.74
1225.39
1137.38
1047.59
956.259
862.548
763.876
655.108
528.329
375.886
200.5
1644.64
1698.3
1739.37
1767.68
1783.16
1785.91
1776.19
1754.37
1721.03
1676.84
1622.65
1559.46
1488.38
1410.67
1327.67
1240.73
1151.12
1059.76
966.923
871.807
771.809
661.716
533.445
379.151
201.605
1617.39
1670.1
1710.47
1738.32
1753.6
1756.39
1746.95
1725.65
1693.05
1649.82
1596.8
1534.96
1465.39
1389.34
1308.11
1223.01
1135.26
1045.72
954.62
861.13
762.668
654.11
527.566
375.402
200.331
1639.37
1692.83
1733.75
1761.95
1777.38
1780.12
1770.44
1748.71
1715.5
1671.49
1617.53
1554.59
1483.81
1406.42
1323.76
1237.2
1147.95
1056.95
964.46
869.668
769.976
660.188
532.261
378.394
201.35
1639.37
1692.83
1733.75
1761.95
1777.38
1780.12
1770.44
1748.71
1715.5
1671.49
1617.53
1554.59
1483.81
1406.42
1323.76
1237.2
1147.95
1056.95
964.46
869.668
769.976
660.188
532.261
378.394
201.35
1617.39
1670.1
1710.48
1738.32
1753.6
1756.39
1746.95
1725.66
1693.05
1649.83
1596.8
1534.96
1465.39
1389.34
1308.11
1223.01
1135.26
1045.72
954.62
861.131
762.669
654.111
527.566
375.402
200.331
1644.64
1698.3
1739.37
1767.68
1783.16
1785.91
1776.19
1754.37
1721.03
1676.84
1622.65
1559.46
1488.38
1410.67
1327.67
1240.73
1151.12
1059.76
966.923
871.807
771.809
661.716
533.445
379.15
201.605
1621.21
1674.04
1714.5
1742.4
1757.69
1760.46
1750.97
1729.59
1696.87
1653.51
1600.31
1538.28
1468.5
1392.21
1310.74
1225.39
1137.38
1047.59
956.259
862.548
763.876
655.108
528.329
375.886
200.5
1639.37
1692.83
1733.75
1761.95
1777.38
1780.12
1770.44
1748.71
1715.5
1671.49
1617.53
1554.59
1483.81
1406.42
1323.76
1237.2
1147.95
1056.95
964.46
869.668
769.976
660.188
532.261
378.394
201.35
1617.39
1670.1
1710.47
1738.32
1753.6
1756.39
1746.95
1725.65
1693.05
1649.82
1596.8
1534.96
1465.39
1389.34
1308.11
1223.01
1135.26
1045.72
954.62
861.13
762.668
654.11
527.566
375.402
200.331
1617.39
1670.1
1710.48
1738.32
1753.6
1756.39
1746.95
1725.66
1693.05
1649.83
1596.8
1534.96
1465.39
1389.34
1308.11
1223.01
1135.26
1045.72
954.62
861.131
762.669
654.111
527.566
375.402
200.331
1639.37
1692.83
1733.75
1761.95
1777.38
1780.12
1770.44
1748.71
1715.5
1671.49
1617.53
1554.59
1483.81
1406.42
1323.76
1237.2
1147.95
1056.95
964.46
869.668
769.976
660.188
532.261
378.394
201.35
)
;

boundaryField
{
    outletCentralUnloaded
    {
        type            zeroGradient;
    }
    inletCentralUnloaded
    {
        type            zeroGradient;
    }
    outletFuelElement
    {
        type            zeroGradient;
    }
    inletFuelElement
    {
        type            zeroGradient;
    }
    defaultFaces
    {
        type            zeroGradient;
    }
    baffle_master
    {
        type            zeroGradient;
    }
    baffle_slave
    {
        type            zeroGradient;
    }
}


// ************************************************************************* //
