/*--------------------------------*- C++ -*----------------------------------*\
| =========                 |                                                 |
| \\      /  F ield         | OpenFOAM: The Open Source CFD Toolbox           |
|  \\    /   O peration     | Version:  2212                                  |
|   \\  /    A nd           | Website:  www.openfoam.com                      |
|    \\/     M anipulation  |                                                 |
\*---------------------------------------------------------------------------*/
FoamFile
{
    version     2.0;
    format      ascii;
    arch        "LSB;label=32;scalar=64";
    class       volScalarField;
    location    "21/fluidRegion";
    object      Tco.nuclearFuelPin;
}
// * * * * * * * * * * * * * * * * * * * * * * * * * * * * * * * * * * * * * //

dimensions      [0 0 0 1 0 0 0];

internalField   nonuniform List<scalar> 
350
(
0
0
0
0
0
0
0
0
0
0
0
0
0
0
0
0
0
0
0
0
0
0
0
0
0
0
0
0
0
0
0
0
0
0
0
0
0
0
0
0
0
0
0
0
0
0
0
0
0
0
1619.92
1651.83
1671.79
1679.94
1676.53
1661.97
1636.77
1601.56
1557.11
1504.29
1444.07
1377.55
1305.89
1230.37
1152.29
1072.91
993.356
914.368
836.014
757.24
675.195
584.424
476.628
343.736
188.152
1643.43
1675.93
1696.27
1704.6
1701.17
1686.39
1660.77
1624.97
1579.75
1525.99
1464.7
1396.96
1323.98
1247.04
1167.46
1086.56
1005.49
925.05
845.339
765.325
682.144
590.253
481.182
346.663
189.144
1616.08
1647.92
1667.83
1675.96
1672.58
1658.07
1632.94
1597.85
1553.53
1500.87
1440.83
1374.51
1303.07
1227.78
1149.94
1070.8
991.488
912.729
834.589
756.009
674.144
583.551
475.954
343.307
188.001
1638.14
1670.5
1690.74
1699.01
1695.58
1680.84
1655.3
1619.63
1574.57
1521.02
1459.97
1392.5
1319.82
1243.2
1163.97
1083.41
1002.69
922.582
843.184
763.456
680.537
588.904
480.127
345.984
188.914
1638.14
1670.5
1690.74
1699.01
1695.58
1680.84
1655.3
1619.63
1574.57
1521.02
1459.97
1392.5
1319.82
1243.2
1163.97
1083.41
1002.69
922.582
843.184
763.456
680.537
588.904
480.127
345.984
188.914
1616.08
1647.92
1667.83
1675.96
1672.58
1658.07
1632.94
1597.85
1553.53
1500.87
1440.83
1374.51
1303.07
1227.78
1149.94
1070.8
991.489
912.73
834.59
756.009
674.145
583.551
475.955
343.307
188.001
1643.43
1675.93
1696.27
1704.6
1701.17
1686.39
1660.77
1624.97
1579.75
1525.99
1464.7
1396.96
1323.98
1247.04
1167.46
1086.56
1005.49
925.05
845.339
765.325
682.144
590.253
481.182
346.662
189.144
1619.92
1651.83
1671.79
1679.94
1676.53
1661.97
1636.77
1601.56
1557.11
1504.29
1444.07
1377.55
1305.89
1230.37
1152.29
1072.91
993.356
914.368
836.014
757.24
675.195
584.424
476.628
343.736
188.152
1638.14
1670.5
1690.74
1699.01
1695.58
1680.84
1655.3
1619.63
1574.57
1521.02
1459.97
1392.5
1319.82
1243.2
1163.97
1083.41
1002.69
922.582
843.184
763.456
680.537
588.904
480.127
345.984
188.914
1616.08
1647.92
1667.83
1675.96
1672.58
1658.07
1632.94
1597.85
1553.53
1500.87
1440.83
1374.51
1303.07
1227.78
1149.94
1070.8
991.488
912.729
834.589
756.009
674.144
583.551
475.954
343.307
188.001
1616.08
1647.92
1667.83
1675.96
1672.58
1658.07
1632.94
1597.85
1553.53
1500.87
1440.83
1374.51
1303.07
1227.78
1149.94
1070.8
991.489
912.73
834.59
756.009
674.145
583.551
475.955
343.307
188.001
1638.14
1670.5
1690.74
1699.01
1695.58
1680.84
1655.3
1619.63
1574.57
1521.02
1459.97
1392.5
1319.82
1243.2
1163.97
1083.41
1002.69
922.582
843.184
763.456
680.537
588.904
480.127
345.984
188.914
)
;

boundaryField
{
    outletCentralUnloaded
    {
        type            zeroGradient;
    }
    inletCentralUnloaded
    {
        type            zeroGradient;
    }
    outletFuelElement
    {
        type            zeroGradient;
    }
    inletFuelElement
    {
        type            zeroGradient;
    }
    defaultFaces
    {
        type            zeroGradient;
    }
    baffle_master
    {
        type            zeroGradient;
    }
    baffle_slave
    {
        type            zeroGradient;
    }
}


// ************************************************************************* //
