/*--------------------------------*- C++ -*----------------------------------*\
| =========                 |                                                 |
| \\      /  F ield         | OpenFOAM: The Open Source CFD Toolbox           |
|  \\    /   O peration     | Version:  2212                                  |
|   \\  /    A nd           | Website:  www.openfoam.com                      |
|    \\/     M anipulation  |                                                 |
\*---------------------------------------------------------------------------*/
FoamFile
{
    version     2.0;
    format      ascii;
    arch        "LSB;label=32;scalar=64";
    class       volScalarField;
    location    "21/fluidRegion";
    object      Tfo.nuclearFuelPin;
}
// * * * * * * * * * * * * * * * * * * * * * * * * * * * * * * * * * * * * * //

dimensions      [0 0 0 1 0 0 0];

internalField   nonuniform List<scalar> 
350
(
0
0
0
0
0
0
0
0
0
0
0
0
0
0
0
0
0
0
0
0
0
0
0
0
0
0
0
0
0
0
0
0
0
0
0
0
0
0
0
0
0
0
0
0
0
0
0
0
0
0
1648.35
2003.57
2340.28
2653.6
2938.96
3192.17
3409.51
3587.8
3724.41
3817.37
3865.37
3867.79
3824.71
3736.96
3606
3433.92
3223.29
2976.91
2697.55
2387.57
2048.18
1678.88
1277.2
841.366
378.724
1670.76
2030.26
2370.99
2687.99
2976.65
3232.73
3452.46
3632.63
3770.59
3864.34
3912.56
3914.61
3870.61
3781.36
3648.39
3473.81
3260.25
3010.58
2727.64
2413.83
2070.38
1696.79
1290.46
849.546
381.476
1644.69
1999.24
2335.33
2648.08
2932.93
3185.69
3402.67
3580.66
3717.07
3809.92
3857.89
3860.37
3817.46
3729.94
3599.3
3427.63
3217.46
2971.6
2692.81
2383.44
2044.69
1676.08
1275.13
840.094
378.292
1665.71
2024.22
2364.01
2680.16
2968.04
3223.45
3442.63
3622.35
3759.99
3853.56
3901.71
3903.84
3860.05
3771.14
3638.62
3464.62
3251.73
3002.82
2720.71
2407.78
2065.27
1692.66
1287.4
847.659
380.841
1665.71
2024.22
2364.01
2680.16
2968.04
3223.45
3442.63
3622.35
3759.99
3853.56
3901.71
3903.84
3860.05
3771.14
3638.62
3464.62
3251.73
3002.82
2720.71
2407.78
2065.27
1692.66
1287.4
847.659
380.841
1644.7
1999.24
2335.33
2648.08
2932.93
3185.69
3402.67
3580.66
3717.07
3809.92
3857.89
3860.38
3817.46
3729.94
3599.3
3427.63
3217.46
2971.6
2692.82
2383.44
2044.69
1676.08
1275.13
840.094
378.292
1670.76
2030.26
2370.99
2687.99
2976.65
3232.73
3452.46
3632.63
3770.59
3864.34
3912.56
3914.61
3870.61
3781.36
3648.39
3473.81
3260.25
3010.58
2727.64
2413.83
2070.38
1696.79
1290.46
849.546
381.476
1648.35
2003.57
2340.28
2653.6
2938.96
3192.17
3409.51
3587.79
3724.41
3817.37
3865.37
3867.79
3824.71
3736.96
3606
3433.92
3223.29
2976.91
2697.55
2387.57
2048.18
1678.88
1277.2
841.366
378.724
1665.71
2024.22
2364.01
2680.16
2968.04
3223.45
3442.63
3622.35
3759.99
3853.56
3901.71
3903.84
3860.05
3771.14
3638.62
3464.62
3251.73
3002.82
2720.71
2407.78
2065.27
1692.66
1287.4
847.659
380.841
1644.69
1999.24
2335.33
2648.08
2932.93
3185.69
3402.67
3580.66
3717.07
3809.92
3857.89
3860.37
3817.45
3729.94
3599.3
3427.63
3217.46
2971.6
2692.81
2383.44
2044.69
1676.08
1275.13
840.094
378.292
1644.7
1999.24
2335.33
2648.08
2932.93
3185.69
3402.67
3580.66
3717.07
3809.92
3857.89
3860.38
3817.46
3729.94
3599.3
3427.63
3217.46
2971.6
2692.82
2383.44
2044.69
1676.08
1275.13
840.094
378.292
1665.71
2024.22
2364.01
2680.16
2968.04
3223.45
3442.63
3622.35
3759.99
3853.56
3901.71
3903.84
3860.05
3771.14
3638.62
3464.62
3251.73
3002.82
2720.71
2407.78
2065.27
1692.66
1287.4
847.659
380.841
)
;

boundaryField
{
    outletCentralUnloaded
    {
        type            zeroGradient;
    }
    inletCentralUnloaded
    {
        type            zeroGradient;
    }
    outletFuelElement
    {
        type            zeroGradient;
    }
    inletFuelElement
    {
        type            zeroGradient;
    }
    defaultFaces
    {
        type            zeroGradient;
    }
    baffle_master
    {
        type            zeroGradient;
    }
    baffle_slave
    {
        type            zeroGradient;
    }
}


// ************************************************************************* //
