/*--------------------------------*- C++ -*----------------------------------*\
| =========                 |                                                 |
| \\      /  F ield         | OpenFOAM: The Open Source CFD Toolbox           |
|  \\    /   O peration     | Version:  2212                                  |
|   \\  /    A nd           | Website:  www.openfoam.com                      |
|    \\/     M anipulation  |                                                 |
\*---------------------------------------------------------------------------*/
FoamFile
{
    version     2.0;
    format      ascii;
    arch        "LSB;label=32;scalar=64";
    class       scalarFieldField;
    location    "21/fluidRegion";
    object      Trad.nuclearFuelPin;
}
// * * * * * * * * * * * * * * * * * * * * * * * * * * * * * * * * * * * * * //


350
(
0()
0()
0()
0()
0()
0()
0()
0()
0()
0()
0()
0()
0()
0()
0()
0()
0()
0()
0()
0()
0()
0()
0()
0()
0()
0()
0()
0()
0()
0()
0()
0()
0()
0()
0()
0()
0()
0()
0()
0()
0()
0()
0()
0()
0()
0()
0()
0()
0()
0()

20
(
1670.51
1670.59
1670.83
1671.19
1671.62
1672.07
1672.44
1672.63
1672.52
1671.96
1670.78
1668.8
1665.81
1661.57
1655.84
1648.35
1621.21
1620.75
1620.32
1619.92
)


20
(
2709.98
2707.16
2698.68
2684.49
2664.5
2638.59
2606.61
2568.35
2523.6
2472.11
2413.58
2347.71
2274.15
2192.54
2102.48
2003.57
1674.04
1666.38
1658.98
1651.83
)


20
(
3717.62
3711.95
3694.92
3666.46
3626.42
3574.65
3510.91
3434.94
3346.4
3244.95
3130.19
3001.67
2858.94
2701.48
2528.78
2340.28
1714.5
1699.78
1685.55
1671.79
)


20
(
4677.84
4669.43
4644.15
4601.91
4542.54
4465.81
4371.44
4259.07
4128.3
3978.67
3809.67
3620.75
3411.33
3180.76
2928.42
2653.6
1742.4
1720.88
1700.07
1679.94
)


20
(
5575.8
5564.78
5531.68
5476.38
5398.68
5298.31
5174.91
5028.06
4857.28
4662.01
4441.64
4195.52
3922.95
3623.18
3295.45
2938.96
1757.69
1729.73
1702.69
1676.53
)


20
(
6397.59
6384.15
6343.79
6276.36
6181.63
6059.29
5908.93
5730.06
5522.12
5284.47
5016.42
4717.21
4386.04
4022.07
3624.41
3192.17
1760.46
1726.54
1693.73
1661.97
)


20
(
7130.48
7114.84
7067.88
6989.44
6879.26
6736.98
6562.15
6354.23
6112.58
5836.5
5525.2
5177.86
4793.57
4371.39
3910.37
3409.51
1750.97
1711.63
1673.59
1636.77
)


20
(
7763.11
7745.53
7692.75
7604.59
7480.78
7320.91
7124.5
6890.94
6619.57
6309.59
5960.18
5570.41
5139.32
4665.88
4149.07
3587.8
1729.59
1685.49
1642.84
1601.56
)


20
(
8285.68
8266.46
8208.72
8112.3
7976.88
7802.05
7587.28
7331.93
7035.28
6696.5
6314.69
5888.88
5418.04
4901.09
4336.93
3724.41
1696.87
1648.74
1602.18
1557.11
)


20
(
8690.13
8669.57
8607.83
8504.71
8359.91
8172.98
7943.36
7670.4
7353.33
6991.28
6583.31
6128.42
5625.52
5073.48
4471.16
3817.37
1653.51
1602.11
1552.41
1504.29
)


20
(
8970.21
8948.65
8883.91
8775.79
8623.97
8427.99
8187.29
7901.17
7568.84
7189.43
6761.97
6285.4
5758.62
5180.49
4549.81
3865.37
1600.31
1546.51
1494.46
1444.07
)


20
(
9121.65
9099.44
9032.76
8921.41
8765.04
8563.21
8315.34
8020.73
7678.57
7287.98
6847.97
6357.49
5815.41
5220.56
4571.77
3867.79
1538.28
1482.92
1429.38
1377.55
)


20
(
9142.18
9119.69
9052.15
8939.37
8781.02
8576.63
8325.63
8027.32
7680.91
7285.5
6840.1
6343.68
5795.1
5193.21
4536.82
3824.71
1468.5
1412.5
1358.34
1305.89
)


20
(
9031.57
9009.16
8941.88
8829.51
8671.75
8468.14
8218.1
7920.96
7575.93
7182.13
6738.6
6244.3
5698.14
5098.98
4445.65
3736.96
1392.21
1336.48
1282.57
1230.37
)


20
(
8791.62
8769.66
8703.72
8593.61
8439.02
8239.5
7994.51
7703.38
7365.36
6979.59
6545.14
6061.01
5526.15
4939.45
4299.78
3606
1310.74
1256.17
1203.39
1152.29
)


20
(
8426.09
8404.94
8341.43
8235.37
8086.47
7894.3
7658.35
7377.99
7052.49
6681.05
6262.77
5796.7
5281.84
4717.14
4101.53
3433.92
1225.39
1172.88
1122.09
1072.91
)


20
(
7940.55
7920.55
7860.5
7760.23
7619.46
7437.8
7214.76
6949.75
6642.09
6291.04
5895.75
5455.35
4968.89
4435.4
3853.87
3223.29
1137.38
1087.78
1039.81
993.356
)


20
(
7342.19
7323.67
7268.07
7175.24
7044.9
6876.72
6670.24
6424.92
6140.14
5815.22
5449.39
5041.85
4591.74
4098.15
3560.19
2976.91
1047.59
1001.71
957.336
914.368
)


20
(
6639.55
6622.81
6572.57
6488.69
6370.93
6218.97
6032.43
5810.81
5553.58
5260.1
4929.72
4561.7
4155.27
3709.66
3224.02
2697.55
956.259
914.851
874.797
836.014
)


20
(
5842.25
5827.57
5783.51
5709.94
5606.66
5473.41
5309.83
5115.52
4890.01
4632.75
4343.17
4020.65
3664.52
3274.1
2848.69
2387.57
862.548
826.284
791.205
757.24
)


20
(
4960.31
4947.92
4910.74
4848.65
4761.51
4649.08
4511.08
4347.18
4156.98
3940.05
3695.9
3424.04
3123.9
2794.94
2436.56
2048.18
763.876
733.337
703.797
675.195
)


20
(
4003.98
3994.07
3964.33
3914.67
3844.97
3755.07
3644.74
3513.73
3361.74
3188.43
2993.44
2776.38
2536.83
2274.37
1988.53
1678.88
655.108
630.766
607.221
584.424
)


20
(
2983.42
2976.12
2954.21
2917.64
2866.32
2800.15
2718.97
2622.61
2510.88
2383.55
2240.38
2081.1
1905.44
1713.1
1503.78
1277.2
528.329
510.525
493.303
476.628
)


20
(
1910.39
1905.77
1891.92
1868.81
1836.39
1794.62
1743.43
1682.73
1612.43
1532.42
1442.58
1342.79
1232.91
1112.81
982.345
841.366
375.886
364.815
354.106
343.736
)


20
(
802.524
800.623
794.923
785.424
772.134
755.057
734.203
709.582
681.206
649.088
613.244
573.689
530.441
483.518
432.939
378.724
200.5
196.249
192.135
188.152
)


20
(
1689.67
1689.76
1690.05
1690.5
1691.06
1691.67
1692.23
1692.64
1692.78
1692.48
1691.6
1689.92
1687.24
1683.33
1677.93
1670.76
1644.64
1644.2
1643.8
1643.43
)


20
(
2741.22
2738.39
2729.86
2715.6
2695.5
2669.45
2637.28
2598.81
2553.8
2501.99
2443.1
2376.81
2302.77
2220.59
2129.9
2030.26
1698.3
1690.58
1683.13
1675.93
)


20
(
3760.55
3754.83
3737.66
3708.95
3668.59
3616.38
3552.1
3475.47
3386.17
3283.84
3168.07
3038.42
2894.4
2735.52
2561.23
2370.99
1739.37
1724.52
1710.16
1696.27
)


20
(
4731.87
4723.38
4697.86
4655.22
4595.29
4517.84
4422.58
4309.14
4177.13
4026.06
3855.43
3664.69
3453.21
3220.39
2965.54
2687.99
1767.68
1745.94
1724.93
1704.6
)


20
(
5640.18
5629.05
5595.62
5539.77
5461.3
5359.94
5235.31
5087
4914.51
4717.28
4494.69
4246.08
3970.74
3667.91
3336.82
2976.65
1783.16
1754.92
1727.6
1701.17
)


20
(
6471.39
6457.81
6417.04
6348.92
6253.23
6129.64
5977.74
5797.04
5586.96
5346.87
5076.05
4773.74
4439.12
4071.35
3669.52
3232.73
1785.91
1751.63
1718.48
1686.39
)


20
(
7212.64
7196.84
7149.39
7070.14
6958.81
6815.06
6638.41
6428.32
6184.14
5905.16
5590.6
5239.59
4851.24
4424.6
3958.67
3452.46
1776.19
1736.43
1697.99
1660.77
)


20
(
7852.44
7834.68
7781.35
7692.26
7567.14
7405.59
7207.11
6971.09
6696.84
6383.58
6030.45
5636.52
5200.82
4722.32
4199.95
3632.63
1754.37
1709.8
1666.7
1624.97
)


20
(
8380.89
8361.46
8303.11
8205.66
8068.8
7892.11
7675.05
7416.98
7117.16
6774.76
6388.85
5958.47
5482.56
4960.03
4389.76
3770.59
1721.03
1672.37
1625.31
1579.75
)


20
(
8789.8
8769.02
8706.62
8602.4
8456.05
8267.11
8035.04
7759.14
7438.66
7072.71
6660.34
6200.52
5692.17
5134.14
4525.27
3864.34
1676.84
1624.89
1574.64
1525.99
)


20
(
9072.89
9051.1
8985.66
8876.38
8722.93
8524.83
8281.53
7992.32
7656.4
7272.88
6840.77
6359.03
5826.51
5242.07
4604.49
3912.56
1622.65
1568.25
1515.64
1464.7
)


20
(
9225.83
9203.38
9135.98
9023.42
8865.36
8661.35
8410.78
8112.97
7767.1
7372.26
6927.46
6431.62
5883.61
5282.25
4626.33
3914.61
1559.46
1503.5
1449.37
1396.96
)


20
(
9246.32
9223.58
9155.31
9041.31
8881.23
8674.62
8420.89
8119.33
7769.14
7369.41
6919.15
6417.28
5862.68
5254.18
4590.57
3870.61
1488.38
1431.76
1377
1323.98
)


20
(
9134.14
9111.49
9043.47
8929.88
8770.4
8564.56
8311.8
8011.41
7662.6
7264.49
6816.09
6316.37
5764.2
5158.43
4497.89
3781.36
1410.67
1354.32
1299.81
1247.04
)


20
(
8891.13
8868.93
8802.27
8690.96
8534.67
8332.97
8085.29
7790.97
7449.24
7059.23
6620.01
6130.55
5589.79
4996.61
4349.86
3648.39
1327.67
1272.5
1219.13
1167.46
)


20
(
8521.09
8499.71
8435.5
8328.28
8177.74
7983.47
7744.93
7461.49
7132.41
6756.87
6333.98
5862.77
5342.22
4771.27
4148.84
3473.81
1240.73
1187.64
1136.29
1086.56
)


20
(
8029.68
8009.47
7948.76
7847.39
7705.07
7521.41
7295.91
7027.99
6716.94
6362.01
5962.36
5517.09
5025.24
4485.83
3897.84
3260.25
1151.12
1100.97
1052.46
1005.49
)


20
(
7424.2
7405.48
7349.27
7255.41
7123.65
6953.61
6744.85
6496.83
6208.91
5880.4
5510.53
5098.48
4643.37
4144.3
3600.35
3010.58
1059.76
1013.37
968.497
925.05
)


20
(
6713.29
6696.38
6645.59
6560.78
6441.72
6288.1
6099.5
5875.44
5615.36
5318.65
4984.61
4612.51
4201.58
3751.01
3259.98
2727.64
966.923
925.054
884.553
845.339
)


20
(
5906.71
5891.87
5847.33
5772.95
5668.54
5533.82
5368.45
5172
4944
4683.91
4391.13
4065.04
3704.97
3310.22
2880.08
2413.83
871.807
835.138
799.669
765.325
)


20
(
5014.58
5002.06
4964.47
4901.71
4813.61
4699.96
4560.45
4394.75
4202.47
3983.16
3736.33
3461.47
3158.02
2825.42
2463.07
2070.38
771.809
740.932
711.064
682.144
)


20
(
4047.26
4037.25
4007.18
3956.99
3886.54
3795.66
3684.14
3551.71
3398.07
3222.88
3025.77
2806.34
2564.17
2298.82
2009.85
1696.79
661.716
637.107
613.302
590.253
)


20
(
3014.98
3007.6
2985.46
2948.51
2896.65
2829.77
2747.73
2650.36
2537.44
2408.75
2264.05
2103.06
1925.5
1731.09
1519.51
1290.46
533.445
515.447
498.038
481.182
)


20
(
1929.6
1924.94
1910.95
1887.6
1854.86
1812.67
1760.96
1699.64
1628.62
1547.79
1457.03
1356.21
1245.2
1123.84
992.01
849.546
379.151
367.963
357.141
346.663
)


20
(
808.97
807.053
801.306
791.73
778.33
761.112
740.084
715.257
686.641
654.249
618.096
578.196
534.566
487.224
436.188
381.476
201.605
197.315
193.164
189.144
)


20
(
1667.4
1667.48
1667.7
1668.04
1668.46
1668.88
1669.22
1669.38
1669.22
1668.62
1667.39
1665.36
1662.31
1658.02
1652.24
1644.69
1617.39
1616.92
1616.48
1616.08
)


20
(
2704.95
2702.13
2693.66
2679.48
2659.51
2633.62
2601.66
2563.44
2518.73
2467.29
2408.82
2343.01
2269.53
2188
2098.05
1999.24
1670.1
1662.45
1655.05
1647.92
)


20
(
3710.74
3705.07
3688.07
3659.64
3619.66
3567.96
3504.31
3428.43
3340.02
3238.71
3124.1
2995.77
2853.24
2696
2523.55
2335.33
1710.47
1695.77
1681.57
1667.83
)


20
(
4669.2
4660.8
4635.56
4593.38
4534.09
4457.48
4363.25
4251.05
4120.48
3971.08
3802.34
3613.71
3404.61
3174.41
2922.46
2648.08
1738.32
1716.84
1696.06
1675.96
)


20
(
5565.52
5554.52
5521.47
5466.26
5388.68
5288.47
5165.26
5018.65
4848.13
4653.17
4433.16
4187.44
3915.31
3616.03
3288.83
2932.93
1753.6
1725.69
1698.7
1672.58
)


20
(
6385.82
6372.4
6332.1
6264.78
6170.21
6048.07
5897.95
5719.37
5511.77
5274.51
5006.91
4708.19
4377.57
4014.2
3617.21
3185.69
1756.39
1722.52
1689.77
1658.07
)


20
(
7117.38
7101.77
7054.89
6976.58
6866.58
6724.54
6550
6342.42
6101.17
5825.55
5514.78
5168.02
4784.37
4362.92
3902.68
3402.67
1746.95
1707.68
1669.7
1632.94
)


20
(
7748.88
7731.33
7678.64
7590.63
7467.02
7307.42
7111.34
6878.18
6607.26
6297.81
5948.99
5559.88
5129.52
4656.9
4140.97
3580.66
1725.65
1681.63
1639.06
1597.85
)


20
(
8270.53
8251.33
8193.7
8097.44
7962.25
7787.71
7573.31
7318.4
7022.25
6684.05
6302.89
5877.81
5407.78
4891.72
4328.53
3717.07
1693.05
1645
1598.52
1553.53
)


20
(
8674.27
8653.74
8592.11
8489.17
8344.61
8158
7928.78
7656.28
7339.75
6978.33
6571.07
6116.96
5614.92
5063.85
4462.57
3809.92
1649.82
1598.52
1548.9
1500.87
)


20
(
8953.88
8932.35
8867.73
8759.79
8608.23
8412.59
8172.3
7886.67
7554.92
7176.17
6749.44
6273.7
5747.84
5170.71
4541.13
3857.89
1596.8
1543.09
1491.13
1440.83
)


20
(
9105.08
9082.92
9016.35
8905.19
8749.09
8547.61
8300.17
8006.06
7664.5
7274.59
6835.35
6345.72
5804.58
5210.78
4563.12
3860.37
1534.96
1479.7
1426.25
1374.51
)


20
(
9125.62
9103.17
9035.75
8923.17
8765.09
8561.06
8310.49
8012.7
7666.89
7272.17
6827.55
6331.99
5784.38
5183.55
4528.31
3817.46
1465.39
1409.49
1355.42
1303.07
)


20
(
9015.27
8992.9
8925.73
8813.56
8656.07
8452.81
8203.21
7906.59
7562.17
7169.06
6726.3
6232.87
5687.67
5089.56
4437.38
3729.94
1389.34
1333.7
1279.89
1227.78
)


20
(
8775.81
8753.89
8688.06
8578.15
8423.82
8224.65
7980.09
7689.47
7352.04
6966.95
6533.26
6049.99
5516.07
4930.4
4291.86
3599.3
1308.11
1253.64
1200.95
1149.94
)


20
(
8411
8389.88
8326.48
8220.61
8071.96
7880.14
7644.6
7364.73
7039.81
6669.01
6251.47
5786.22
5272.27
4708.58
4094.06
3427.63
1223.01
1170.6
1119.89
1070.8
)


20
(
7926.39
7906.42
7846.48
7746.39
7605.86
7424.52
7201.87
6937.32
6630.21
6279.77
5885.19
5445.56
4959.96
4427.42
3846.92
3217.46
1135.26
1085.75
1037.86
991.488
)


20
(
7329.16
7310.68
7255.18
7162.5
7032.4
6864.51
6658.39
6413.5
6129.23
5804.88
5439.7
5032.88
4583.56
4090.85
3553.84
2971.6
1045.72
999.92
955.621
912.729
)


20
(
6627.83
6611.13
6560.98
6477.24
6359.68
6208
6021.78
5800.56
5543.78
5250.82
4921.02
4553.65
4147.94
3703.12
3218.35
2692.81
954.62
913.286
873.303
834.589
)


20
(
5832.01
5817.36
5773.37
5699.93
5596.84
5463.82
5300.53
5106.56
4881.44
4624.64
4335.57
4013.62
3658.12
3268.39
2843.74
2383.44
861.13
824.93
789.914
756.009
)


20
(
4951.69
4939.33
4902.21
4840.23
4753.24
4641.01
4503.25
4339.64
4149.77
3933.22
3689.51
3418.12
3118.51
2790.12
2432.38
2044.69
762.668
732.184
702.696
674.144
)


20
(
3997.12
3987.23
3957.53
3907.96
3838.38
3748.64
3638.5
3507.71
3355.99
3182.98
2988.33
2771.65
2532.52
2270.51
1985.18
1676.08
654.11
629.812
606.308
583.551
)


20
(
2978.42
2971.13
2949.26
2912.75
2861.52
2795.46
2714.42
2618.23
2506.69
2379.57
2236.65
2077.64
1902.28
1710.27
1501.32
1275.13
527.566
509.792
492.6
475.954
)


20
(
1907.34
1902.74
1888.91
1865.83
1833.47
1791.77
1740.66
1680.06
1609.87
1529.99
1440.3
1340.68
1230.98
1111.08
980.836
840.094
375.402
364.349
353.658
343.307
)


20
(
801.502
799.604
793.91
784.424
771.151
754.097
733.271
708.683
680.345
648.271
612.476
572.977
529.789
482.933
432.428
378.292
200.331
196.086
191.979
188.001
)


20
(
1685.33
1685.42
1685.7
1686.13
1686.66
1687.23
1687.75
1688.12
1688.2
1687.85
1686.9
1685.15
1682.41
1678.43
1672.95
1665.71
1639.37
1638.93
1638.52
1638.14
)


20
(
2734.1
2731.27
2722.75
2708.51
2688.44
2662.42
2630.29
2591.87
2546.92
2495.19
2436.39
2370.2
2296.27
2214.23
2123.69
2024.22
1692.83
1685.12
1677.68
1670.5
)


20
(
3750.72
3745.02
3727.88
3699.23
3658.94
3606.84
3542.68
3466.21
3377.09
3274.96
3159.42
3030.04
2886.32
2727.77
2553.85
2364.01
1733.75
1718.92
1704.59
1690.74
)


20
(
4719.49
4711.01
4685.55
4643
4583.2
4505.92
4410.86
4297.68
4165.95
4015.22
3844.97
3654.64
3443.64
3211.34
2957.07
2680.16
1761.95
1740.26
1719.3
1699.01
)


20
(
5625.4
5614.3
5580.95
5525.23
5446.94
5345.8
5221.46
5073.48
4901.39
4704.61
4482.54
4234.5
3959.8
3657.68
3327.36
2968.04
1777.38
1749.2
1721.95
1695.58
)


20
(
6454.44
6440.9
6400.22
6332.26
6236.79
6113.49
5961.94
5781.66
5572.08
5332.55
5062.37
4760.78
4426.96
4060.06
3659.19
3223.45
1780.12
1745.92
1712.85
1680.84
)


20
(
7193.76
7178
7130.66
7051.6
6940.54
6797.12
6620.89
6411.3
6167.7
5889.4
5575.59
5225.42
4838.01
4412.39
3947.6
3442.63
1770.44
1730.78
1692.43
1655.3
)


20
(
7831.91
7814.19
7760.98
7672.11
7547.29
7386.13
7188.12
6952.67
6679.08
6366.58
6014.31
5621.34
5186.7
4709.37
4188.28
3622.35
1748.71
1704.25
1661.25
1619.63
)


20
(
8358.99
8339.61
8281.4
8184.19
8047.66
7871.4
7654.87
7397.43
7098.34
6756.77
6371.81
5942.48
5467.73
4946.49
4377.63
3759.99
1715.5
1666.96
1620.02
1574.57
)


20
(
8766.88
8746.14
8683.89
8579.93
8433.93
8245.46
8013.95
7738.73
7419.03
7053.98
6642.63
6183.95
5676.85
5120.2
4512.83
3853.56
1671.49
1619.67
1569.55
1521.02
)


20
(
9049.27
9027.53
8962.25
8853.24
8700.16
8502.55
8259.85
7971.35
7636.26
7253.68
6822.65
6342.09
5810.9
5227.91
4591.92
3901.71
1617.53
1563.26
1510.78
1459.97
)


20
(
9201.85
9179.46
9112.23
8999.94
8842.28
8638.76
8388.82
8091.75
7746.73
7352.87
6909.17
6414.56
5867.92
5268.06
4613.78
3903.84
1554.59
1498.77
1444.78
1392.5
)


20
(
9222.35
9199.67
9131.57
9017.85
8858.17
8652.07
8398.97
8098.16
7748.84
7350.1
6900.96
6400.34
5847.13
5240.15
4578.2
3860.05
1483.81
1427.33
1372.71
1319.82
)


20
(
9110.53
9087.93
9020.08
8906.78
8747.69
8542.37
8290.23
7990.59
7642.65
7245.53
6798.26
6299.78
5748.99
5144.75
4485.86
3771.14
1406.42
1350.21
1295.84
1243.2
)


20
(
8868.22
8846.08
8779.58
8668.55
8512.65
8311.45
8064.39
7770.81
7429.93
7040.9
6602.77
6114.54
5575.14
4983.45
4338.33
3638.62
1323.76
1268.73
1215.5
1163.97
)


20
(
8499.22
8477.89
8413.84
8306.89
8156.73
7962.94
7725
7442.27
7114.01
6739.42
6317.58
5847.56
5328.32
4758.81
4137.94
3464.62
1237.2
1184.24
1133.01
1083.41
)


20
(
8009.16
7988.99
7928.44
7827.32
7685.36
7502.16
7277.23
7009.97
6699.71
6345.67
5947.02
5502.87
5012.26
4474.22
3887.71
3251.73
1147.95
1097.93
1049.54
1002.69
)


20
(
7405.32
7386.65
7330.58
7236.95
7105.52
6935.91
6727.67
6480.27
6193.08
5865.39
5496.45
5085.44
4631.48
4133.67
3591.1
3002.82
1056.95
1010.68
965.919
922.582
)


20
(
6696.31
6679.44
6628.77
6544.18
6425.42
6272.18
6084.05
5860.56
5601.14
5305.17
4971.97
4600.81
4190.91
3741.48
3251.69
2720.71
964.46
922.697
882.299
843.184
)


20
(
5891.87
5877.07
5832.63
5758.44
5654.29
5519.91
5354.95
5159
4931.57
4672.13
4380.08
4054.81
3695.65
3301.9
2872.85
2407.78
869.668
833.092
797.712
763.456
)


20
(
5002.08
4989.59
4952.1
4889.49
4801.62
4688.24
4549.08
4383.8
4191.99
3973.23
3727.02
3452.84
3150.16
2818.39
2456.96
2065.27
769.976
739.176
709.383
680.537
)


20
(
4037.3
4027.31
3997.31
3947.24
3876.97
3786.31
3675.07
3542.96
3389.7
3214.95
3018.32
2799.44
2557.87
2293.19
2004.94
1692.66
660.188
635.64
611.895
588.904
)


20
(
3007.71
3000.35
2978.27
2941.4
2889.66
2822.95
2741.11
2643.97
2531.32
2402.95
2258.59
2098
1920.88
1726.94
1515.89
1287.4
532.261
514.308
496.941
480.127
)


20
(
1925.17
1920.52
1906.56
1883.27
1850.61
1808.51
1756.92
1695.75
1624.89
1544.25
1453.7
1353.12
1242.36
1121.3
989.781
847.659
378.394
367.233
356.437
345.984
)


20
(
807.485
805.573
799.836
790.278
776.903
759.718
738.73
713.95
685.389
653.061
616.978
577.158
533.616
486.37
435.439
380.841
201.35
197.069
192.926
188.914
)


20
(
1685.33
1685.42
1685.7
1686.13
1686.66
1687.23
1687.75
1688.12
1688.2
1687.85
1686.9
1685.15
1682.41
1678.43
1672.95
1665.71
1639.37
1638.93
1638.52
1638.14
)


20
(
2734.1
2731.27
2722.75
2708.51
2688.44
2662.42
2630.29
2591.87
2546.92
2495.19
2436.39
2370.2
2296.27
2214.23
2123.69
2024.22
1692.83
1685.12
1677.68
1670.5
)


20
(
3750.72
3745.02
3727.88
3699.23
3658.94
3606.84
3542.68
3466.21
3377.09
3274.96
3159.42
3030.04
2886.32
2727.77
2553.85
2364.01
1733.75
1718.92
1704.59
1690.74
)


20
(
4719.49
4711.01
4685.55
4643
4583.2
4505.92
4410.86
4297.68
4165.95
4015.22
3844.97
3654.64
3443.64
3211.34
2957.07
2680.16
1761.95
1740.26
1719.3
1699.01
)


20
(
5625.4
5614.3
5580.95
5525.23
5446.94
5345.8
5221.45
5073.48
4901.39
4704.61
4482.54
4234.5
3959.8
3657.68
3327.36
2968.04
1777.38
1749.2
1721.95
1695.58
)


20
(
6454.44
6440.9
6400.21
6332.26
6236.79
6113.49
5961.94
5781.66
5572.08
5332.55
5062.37
4760.78
4426.96
4060.06
3659.19
3223.45
1780.12
1745.92
1712.85
1680.84
)


20
(
7193.76
7178
7130.66
7051.6
6940.54
6797.12
6620.89
6411.3
6167.7
5889.4
5575.59
5225.42
4838.01
4412.39
3947.6
3442.63
1770.44
1730.78
1692.43
1655.3
)


20
(
7831.9
7814.19
7760.98
7672.11
7547.29
7386.13
7188.12
6952.67
6679.08
6366.58
6014.3
5621.34
5186.7
4709.37
4188.28
3622.35
1748.71
1704.25
1661.25
1619.63
)


20
(
8358.99
8339.61
8281.4
8184.19
8047.66
7871.4
7654.87
7397.43
7098.34
6756.77
6371.81
5942.48
5467.73
4946.49
4377.63
3759.99
1715.5
1666.96
1620.02
1574.57
)


20
(
8766.88
8746.14
8683.89
8579.93
8433.93
8245.46
8013.95
7738.73
7419.03
7053.98
6642.63
6183.95
5676.85
5120.2
4512.83
3853.56
1671.49
1619.67
1569.55
1521.02
)


20
(
9049.27
9027.53
8962.25
8853.24
8700.16
8502.55
8259.85
7971.35
7636.26
7253.68
6822.65
6342.09
5810.9
5227.91
4591.92
3901.71
1617.53
1563.26
1510.78
1459.97
)


20
(
9201.85
9179.46
9112.23
8999.94
8842.28
8638.76
8388.82
8091.75
7746.73
7352.87
6909.17
6414.56
5867.92
5268.06
4613.78
3903.84
1554.59
1498.77
1444.78
1392.5
)


20
(
9222.35
9199.67
9131.57
9017.85
8858.17
8652.07
8398.97
8098.16
7748.84
7350.1
6900.95
6400.34
5847.13
5240.15
4578.2
3860.05
1483.81
1427.33
1372.71
1319.82
)


20
(
9110.53
9087.93
9020.08
8906.78
8747.69
8542.37
8290.23
7990.59
7642.65
7245.53
6798.26
6299.78
5748.99
5144.75
4485.86
3771.14
1406.42
1350.21
1295.84
1243.2
)


20
(
8868.22
8846.08
8779.58
8668.55
8512.65
8311.45
8064.39
7770.81
7429.93
7040.9
6602.77
6114.54
5575.14
4983.45
4338.33
3638.62
1323.76
1268.73
1215.5
1163.97
)


20
(
8499.22
8477.89
8413.84
8306.89
8156.73
7962.94
7725
7442.27
7114.01
6739.42
6317.58
5847.56
5328.32
4758.81
4137.94
3464.62
1237.2
1184.24
1133.01
1083.41
)


20
(
8009.16
7988.99
7928.44
7827.32
7685.36
7502.16
7277.23
7009.97
6699.71
6345.67
5947.02
5502.87
5012.26
4474.22
3887.71
3251.73
1147.95
1097.93
1049.54
1002.69
)


20
(
7405.32
7386.65
7330.58
7236.95
7105.52
6935.91
6727.67
6480.27
6193.08
5865.39
5496.45
5085.44
4631.48
4133.67
3591.1
3002.82
1056.95
1010.68
965.919
922.582
)


20
(
6696.31
6679.44
6628.77
6544.18
6425.42
6272.18
6084.05
5860.56
5601.14
5305.17
4971.97
4600.81
4190.91
3741.48
3251.69
2720.71
964.46
922.697
882.299
843.184
)


20
(
5891.87
5877.07
5832.63
5758.44
5654.29
5519.91
5354.95
5159
4931.57
4672.13
4380.08
4054.81
3695.65
3301.9
2872.85
2407.78
869.668
833.092
797.712
763.456
)


20
(
5002.08
4989.59
4952.1
4889.49
4801.61
4688.24
4549.08
4383.8
4191.99
3973.23
3727.02
3452.84
3150.16
2818.39
2456.96
2065.27
769.976
739.176
709.383
680.537
)


20
(
4037.3
4027.31
3997.31
3947.24
3876.97
3786.32
3675.07
3542.97
3389.7
3214.95
3018.32
2799.44
2557.87
2293.19
2004.94
1692.66
660.188
635.64
611.895
588.904
)


20
(
3007.71
3000.35
2978.27
2941.4
2889.66
2822.95
2741.11
2643.97
2531.32
2402.95
2258.6
2098
1920.88
1726.94
1515.89
1287.4
532.261
514.308
496.941
480.127
)


20
(
1925.17
1920.52
1906.56
1883.27
1850.61
1808.51
1756.92
1695.75
1624.89
1544.25
1453.7
1353.12
1242.36
1121.3
989.781
847.659
378.394
367.233
356.437
345.984
)


20
(
807.485
805.573
799.836
790.278
776.903
759.718
738.73
713.95
685.389
653.061
616.978
577.158
533.616
486.37
435.439
380.841
201.35
197.069
192.926
188.914
)


20
(
1667.4
1667.48
1667.7
1668.04
1668.46
1668.88
1669.22
1669.38
1669.22
1668.62
1667.39
1665.36
1662.31
1658.02
1652.24
1644.7
1617.39
1616.92
1616.48
1616.08
)


20
(
2704.95
2702.13
2693.66
2679.48
2659.51
2633.62
2601.66
2563.44
2518.73
2467.29
2408.82
2343.01
2269.53
2188.01
2098.05
1999.24
1670.1
1662.45
1655.05
1647.92
)


20
(
3710.74
3705.08
3688.07
3659.64
3619.66
3567.96
3504.31
3428.43
3340.02
3238.71
3124.1
2995.77
2853.24
2696.01
2523.55
2335.33
1710.48
1695.78
1681.57
1667.83
)


20
(
4669.2
4660.8
4635.56
4593.38
4534.1
4457.48
4363.25
4251.06
4120.48
3971.08
3802.34
3613.72
3404.61
3174.41
2922.46
2648.08
1738.32
1716.84
1696.06
1675.96
)


20
(
5565.52
5554.52
5521.47
5466.26
5388.68
5288.47
5165.26
5018.65
4848.13
4653.17
4433.16
4187.44
3915.31
3616.03
3288.83
2932.93
1753.6
1725.69
1698.7
1672.58
)


20
(
6385.82
6372.4
6332.1
6264.78
6170.21
6048.07
5897.95
5719.37
5511.77
5274.51
5006.91
4708.19
4377.57
4014.2
3617.21
3185.69
1756.39
1722.52
1689.77
1658.07
)


20
(
7117.38
7101.77
7054.89
6976.58
6866.58
6724.54
6550
6342.42
6101.17
5825.55
5514.78
5168.02
4784.37
4362.92
3902.68
3402.67
1746.95
1707.68
1669.7
1632.94
)


20
(
7748.88
7731.33
7678.64
7590.63
7467.02
7307.42
7111.34
6878.18
6607.26
6297.81
5948.99
5559.88
5129.52
4656.9
4140.97
3580.66
1725.66
1681.63
1639.06
1597.85
)


20
(
8270.53
8251.33
8193.7
8097.44
7962.25
7787.71
7573.31
7318.4
7022.25
6684.05
6302.89
5877.81
5407.78
4891.72
4328.53
3717.07
1693.05
1645
1598.52
1553.53
)


20
(
8674.27
8653.74
8592.11
8489.17
8344.61
8158
7928.78
7656.29
7339.75
6978.33
6571.07
6116.96
5614.92
5063.85
4462.57
3809.92
1649.83
1598.52
1548.9
1500.87
)


20
(
8953.88
8932.35
8867.73
8759.79
8608.23
8412.59
8172.3
7886.67
7554.92
7176.17
6749.44
6273.7
5747.84
5170.71
4541.13
3857.89
1596.8
1543.09
1491.13
1440.83
)


20
(
9105.08
9082.92
9016.35
8905.19
8749.09
8547.61
8300.17
8006.06
7664.5
7274.59
6835.35
6345.72
5804.58
5210.78
4563.12
3860.38
1534.96
1479.7
1426.25
1374.51
)


20
(
9125.62
9103.17
9035.75
8923.17
8765.09
8561.06
8310.49
8012.7
7666.89
7272.17
6827.55
6331.99
5784.38
5183.55
4528.31
3817.46
1465.39
1409.49
1355.42
1303.07
)


20
(
9015.27
8992.9
8925.73
8813.56
8656.07
8452.81
8203.21
7906.59
7562.17
7169.06
6726.3
6232.87
5687.67
5089.56
4437.38
3729.94
1389.34
1333.7
1279.89
1227.78
)


20
(
8775.81
8753.89
8688.06
8578.15
8423.82
8224.65
7980.09
7689.47
7352.04
6966.95
6533.26
6049.99
5516.07
4930.4
4291.86
3599.3
1308.11
1253.64
1200.95
1149.94
)


20
(
8411
8389.88
8326.48
8220.61
8071.96
7880.14
7644.6
7364.74
7039.81
6669.01
6251.47
5786.22
5272.27
4708.58
4094.06
3427.63
1223.01
1170.6
1119.9
1070.8
)


20
(
7926.39
7906.42
7846.48
7746.39
7605.86
7424.52
7201.87
6937.32
6630.21
6279.77
5885.19
5445.56
4959.96
4427.42
3846.92
3217.46
1135.26
1085.75
1037.86
991.489
)


20
(
7329.16
7310.68
7255.18
7162.5
7032.4
6864.51
6658.39
6413.5
6129.23
5804.88
5439.7
5032.88
4583.56
4090.85
3553.84
2971.6
1045.72
999.921
955.622
912.73
)


20
(
6627.83
6611.13
6560.98
6477.24
6359.69
6208
6021.78
5800.56
5543.78
5250.82
4921.02
4553.65
4147.94
3703.12
3218.35
2692.82
954.62
913.286
873.303
834.59
)


20
(
5832.01
5817.36
5773.37
5699.93
5596.84
5463.82
5300.53
5106.56
4881.44
4624.64
4335.57
4013.62
3658.12
3268.39
2843.74
2383.44
861.131
824.931
789.914
756.009
)


20
(
4951.69
4939.33
4902.21
4840.23
4753.24
4641.01
4503.25
4339.64
4149.77
3933.22
3689.51
3418.12
3118.51
2790.12
2432.38
2044.69
762.669
732.184
702.696
674.145
)


20
(
3997.12
3987.23
3957.53
3907.96
3838.39
3748.64
3638.5
3507.72
3355.99
3182.98
2988.33
2771.65
2532.52
2270.51
1985.18
1676.08
654.111
629.813
606.309
583.551
)


20
(
2978.42
2971.13
2949.26
2912.75
2861.52
2795.46
2714.42
2618.23
2506.69
2379.58
2236.65
2077.64
1902.28
1710.27
1501.32
1275.13
527.566
509.793
492.601
475.955
)


20
(
1907.34
1902.74
1888.91
1865.83
1833.47
1791.77
1740.66
1680.06
1609.87
1529.99
1440.3
1340.68
1230.98
1111.08
980.836
840.094
375.402
364.35
353.659
343.307
)


20
(
801.502
799.604
793.91
784.424
771.151
754.097
733.271
708.683
680.345
648.272
612.477
572.977
529.79
482.933
432.428
378.292
200.331
196.086
191.979
188.001
)


20
(
1689.67
1689.76
1690.05
1690.5
1691.06
1691.67
1692.23
1692.64
1692.78
1692.48
1691.6
1689.92
1687.24
1683.33
1677.93
1670.76
1644.64
1644.2
1643.8
1643.43
)


20
(
2741.22
2738.39
2729.86
2715.6
2695.5
2669.45
2637.28
2598.81
2553.8
2501.99
2443.1
2376.81
2302.76
2220.59
2129.9
2030.26
1698.3
1690.58
1683.13
1675.93
)


20
(
3760.55
3754.83
3737.66
3708.95
3668.59
3616.38
3552.1
3475.47
3386.17
3283.84
3168.07
3038.42
2894.4
2735.52
2561.23
2370.99
1739.37
1724.52
1710.16
1696.27
)


20
(
4731.87
4723.38
4697.86
4655.22
4595.29
4517.84
4422.58
4309.14
4177.13
4026.06
3855.44
3664.69
3453.21
3220.39
2965.54
2687.99
1767.68
1745.94
1724.93
1704.6
)


20
(
5640.17
5629.04
5595.62
5539.77
5461.3
5359.93
5235.31
5087
4914.51
4717.28
4494.69
4246.08
3970.74
3667.91
3336.82
2976.65
1783.16
1754.92
1727.6
1701.17
)


20
(
6471.39
6457.81
6417.04
6348.92
6253.23
6129.64
5977.74
5797.04
5586.96
5346.87
5076.05
4773.74
4439.12
4071.35
3669.52
3232.73
1785.91
1751.63
1718.48
1686.39
)


20
(
7212.64
7196.84
7149.39
7070.14
6958.82
6815.06
6638.41
6428.32
6184.14
5905.16
5590.6
5239.59
4851.24
4424.6
3958.67
3452.46
1776.19
1736.43
1697.99
1660.77
)


20
(
7852.44
7834.68
7781.34
7692.26
7567.14
7405.59
7207.11
6971.09
6696.84
6383.58
6030.45
5636.52
5200.82
4722.32
4199.95
3632.63
1754.37
1709.8
1666.7
1624.97
)


20
(
8380.89
8361.46
8303.11
8205.66
8068.8
7892.11
7675.05
7416.98
7117.16
6774.76
6388.85
5958.47
5482.56
4960.03
4389.76
3770.59
1721.03
1672.37
1625.31
1579.75
)


20
(
8789.8
8769.02
8706.62
8602.4
8456.05
8267.11
8035.04
7759.14
7438.66
7072.71
6660.34
6200.52
5692.17
5134.14
4525.27
3864.34
1676.84
1624.89
1574.64
1525.99
)


20
(
9072.89
9051.1
8985.66
8876.38
8722.92
8524.83
8281.53
7992.32
7656.4
7272.88
6840.77
6359.03
5826.51
5242.07
4604.49
3912.56
1622.65
1568.25
1515.64
1464.7
)


20
(
9225.83
9203.38
9135.98
9023.42
8865.36
8661.35
8410.78
8112.97
7767.1
7372.26
6927.46
6431.61
5883.61
5282.25
4626.33
3914.61
1559.46
1503.5
1449.37
1396.96
)


20
(
9246.31
9223.58
9155.31
9041.31
8881.23
8674.62
8420.89
8119.33
7769.14
7369.41
6919.15
6417.28
5862.68
5254.18
4590.57
3870.61
1488.38
1431.76
1377
1323.98
)


20
(
9134.14
9111.49
9043.47
8929.88
8770.4
8564.56
8311.8
8011.41
7662.6
7264.49
6816.09
6316.36
5764.2
5158.43
4497.89
3781.36
1410.67
1354.32
1299.81
1247.04
)


20
(
8891.13
8868.93
8802.27
8690.95
8534.67
8332.97
8085.29
7790.97
7449.24
7059.23
6620.01
6130.55
5589.79
4996.61
4349.86
3648.39
1327.67
1272.5
1219.13
1167.46
)


20
(
8521.09
8499.71
8435.5
8328.28
8177.74
7983.47
7744.93
7461.49
7132.41
6756.87
6333.98
5862.77
5342.22
4771.27
4148.84
3473.81
1240.73
1187.64
1136.29
1086.56
)


20
(
8029.68
8009.47
7948.76
7847.39
7705.07
7521.41
7295.91
7027.99
6716.94
6362.01
5962.36
5517.09
5025.24
4485.83
3897.84
3260.25
1151.12
1100.97
1052.46
1005.49
)


20
(
7424.2
7405.48
7349.27
7255.41
7123.65
6953.61
6744.85
6496.83
6208.91
5880.4
5510.53
5098.48
4643.37
4144.3
3600.35
3010.58
1059.76
1013.37
968.497
925.05
)


20
(
6713.29
6696.38
6645.59
6560.78
6441.72
6288.1
6099.5
5875.44
5615.36
5318.65
4984.61
4612.51
4201.58
3751.01
3259.98
2727.64
966.923
925.054
884.553
845.339
)


20
(
5906.71
5891.87
5847.33
5772.95
5668.54
5533.82
5368.45
5172
4944
4683.91
4391.13
4065.04
3704.97
3310.22
2880.08
2413.83
871.807
835.138
799.669
765.325
)


20
(
5014.58
5002.06
4964.47
4901.71
4813.61
4699.96
4560.45
4394.75
4202.47
3983.16
3736.33
3461.47
3158.02
2825.42
2463.07
2070.38
771.809
740.932
711.063
682.144
)


20
(
4047.26
4037.25
4007.18
3956.99
3886.54
3795.67
3684.14
3551.71
3398.07
3222.88
3025.77
2806.34
2564.17
2298.82
2009.85
1696.79
661.716
637.107
613.302
590.253
)


20
(
3014.98
3007.61
2985.46
2948.51
2896.65
2829.77
2747.74
2650.36
2537.44
2408.75
2264.05
2103.06
1925.51
1731.09
1519.51
1290.46
533.445
515.447
498.038
481.182
)


20
(
1929.6
1924.94
1910.94
1887.6
1854.86
1812.67
1760.96
1699.64
1628.62
1547.79
1457.03
1356.21
1245.2
1123.84
992.01