/*--------------------------------*- C++ -*----------------------------------*\
|       ______          _   __           ______                               |
|      / ____/  ___    / | / /          / ____/  ____   ____ _   ____ ___     |
|     / / __   / _ \  /  |/ /  ______  / /_     / __ \ / __ `/  / __ `__ \    |
|    / /_/ /  /  __/ / /|  /  /_____/ / __/    / /_/ // /_/ /  / / / / / /    |
|    \____/   \___/ /_/ |_/          /_/       \____/ \__,_/  /_/ /_/ /_/     |
|    Copyright (C) 2015 - 2022 EPFL                                           |
\*---------------------------------------------------------------------------*/
FoamFile
{
    version     2.0;
    format      ascii;
    class       volScalarField;
    object      flux2;
}
// * * * * * * * * * * * * * * * * * * * * * * * * * * * * * * * * * * * * * //

dimensions      [0 -2 -1 0 0 0 0];

internalField   nonuniform List<scalar> 
640
(
5.22808e+17
5.61702e+17
6.03228e+17
6.47528e+17
6.9475e+17
7.45038e+17
7.98547e+17
8.55423e+17
9.15817e+17
9.79878e+17
1.04775e+18
1.11958e+18
1.19548e+18
1.27176e+18
1.34834e+18
1.42515e+18
1.50213e+18
1.57924e+18
1.65641e+18
1.73362e+18
1.81083e+18
1.888e+18
1.9651e+18
2.04212e+18
2.11902e+18
2.19578e+18
2.2724e+18
2.34883e+18
2.4251e+18
2.50117e+18
2.57702e+18
2.65265e+18
2.72803e+18
2.8032e+18
2.8781e+18
2.95273e+18
3.0271e+18
3.1012e+18
3.175e+18
3.24852e+18
3.32173e+18
3.39463e+18
3.46723e+18
3.53952e+18
3.61147e+18
3.68308e+18
3.75437e+18
3.8253e+18
3.89588e+18
3.96612e+18
4.03598e+18
4.1055e+18
4.17463e+18
4.24338e+18
4.31175e+18
4.37973e+18
4.44732e+18
4.5145e+18
4.58128e+18
4.64767e+18
4.71362e+18
4.77915e+18
4.84427e+18
4.90893e+18
4.97318e+18
5.03698e+18
5.10033e+18
5.16323e+18
5.22568e+18
5.28767e+18
5.34918e+18
5.41023e+18
5.4708e+18
5.5309e+18
5.5905e+18
5.64962e+18
5.70825e+18
5.76637e+18
5.82398e+18
5.8811e+18
5.9377e+18
5.99378e+18
6.04935e+18
6.10438e+18
6.15888e+18
6.21287e+18
6.2663e+18
6.31918e+18
6.37153e+18
6.42333e+18
6.47458e+18
6.52527e+18
6.5754e+18
6.62495e+18
6.67395e+18
6.72237e+18
6.77022e+18
6.81748e+18
6.86415e+18
6.91025e+18
6.95577e+18
7.00067e+18
7.04498e+18
7.0887e+18
7.13182e+18
7.17433e+18
7.21623e+18
7.25752e+18
7.2982e+18
7.33825e+18
7.37768e+18
7.4165e+18
7.45468e+18
7.49225e+18
7.52918e+18
7.56547e+18
7.60113e+18
7.63615e+18
7.67053e+18
7.70427e+18
7.73737e+18
7.76982e+18
7.80162e+18
7.83275e+18
7.86325e+18
7.89308e+18
7.92227e+18
7.95078e+18
7.97865e+18
8.00585e+18
8.03237e+18
8.05825e+18
8.08345e+18
8.10797e+18
8.13183e+18
8.15502e+18
8.17753e+18
8.19938e+18
8.22055e+18
8.24103e+18
8.26085e+18
8.27998e+18
8.29845e+18
8.31622e+18
8.33332e+18
8.34972e+18
8.36545e+18
8.3805e+18
8.39485e+18
8.40853e+18
8.42153e+18
8.43383e+18
8.44545e+18
8.45638e+18
8.46663e+18
8.47618e+18
8.48507e+18
8.49325e+18
8.50075e+18
8.50755e+18
8.51368e+18
8.51912e+18
8.52387e+18
8.52792e+18
8.5313e+18
8.53398e+18
8.53598e+18
8.5373e+18
8.53793e+18
8.53788e+18
8.53715e+18
8.53572e+18
8.53362e+18
8.53083e+18
8.52737e+18
8.52322e+18
8.5184e+18
8.51288e+18
8.5067e+18
8.49983e+18
8.4923e+18
8.4841e+18
8.47522e+18
8.46565e+18
8.45542e+18
8.44453e+18
8.43297e+18
8.42073e+18
8.40783e+18
8.39427e+18
8.38005e+18
8.36515e+18
8.34962e+18
8.33342e+18
8.31655e+18
8.29903e+18
8.28087e+18
8.26207e+18
8.2426e+18
8.22248e+18
8.20173e+18
8.18033e+18
8.1583e+18
8.13562e+18
8.11232e+18
8.08837e+18
8.06378e+18
8.03858e+18
8.01275e+18
7.98628e+18
7.9592e+18
7.9315e+18
7.90318e+18
7.87425e+18
7.8447e+18
7.81455e+18
7.78378e+18
7.75242e+18
7.72045e+18
7.68788e+18
7.65472e+18
7.62097e+18
7.58662e+18
7.55168e+18
7.51617e+18
7.48007e+18
7.44338e+18
7.40613e+18
7.3683e+18
7.3299e+18
7.29093e+18
7.25142e+18
7.21133e+18
7.17068e+18
7.12948e+18
7.08775e+18
7.04545e+18
7.00262e+18
6.95923e+18
6.91533e+18
6.87088e+18
6.82592e+18
6.78042e+18
6.73438e+18
6.68785e+18
6.64078e+18
6.59322e+18
6.54515e+18
6.49657e+18
6.44748e+18
6.39792e+18
6.34785e+18
6.29728e+18
6.24625e+18
6.19472e+18
6.14272e+18
6.09025e+18
6.0373e+18
5.98388e+18
5.93002e+18
5.87568e+18
5.8209e+18
5.76568e+18
5.71e+18
5.65388e+18
5.59733e+18
5.54033e+18
5.48292e+18
5.42508e+18
5.36682e+18
5.30815e+18
5.24905e+18
5.18955e+18
5.12965e+18
5.06937e+18
5.00867e+18
4.94758e+18
4.88612e+18
4.82427e+18
4.76203e+18
4.69943e+18
4.63647e+18
4.57313e+18
4.50945e+18
4.4454e+18
4.381e+18
4.31627e+18
4.25118e+18
4.18575e+18
4.12e+18
4.05392e+18
3.98752e+18
3.9208e+18
3.85377e+18
3.78642e+18
3.71877e+18
3.65083e+18
3.58258e+18
3.51405e+18
3.44523e+18
3.37613e+18
3.30677e+18
3.23713e+18
3.16722e+18
3.09705e+18
3.02663e+18
2.95597e+18
2.88507e+18
2.81392e+18
2.74255e+18
2.67097e+18
2.59915e+18
2.52715e+18
2.45493e+18
2.38253e+18
2.30997e+18
2.23722e+18
2.16433e+18
2.09128e+18
2.01813e+18
1.94485e+18
1.87148e+18
1.79805e+18
1.72458e+18
1.65108e+18
1.57759e+18
1.50414e+18
1.43077e+18
1.35753e+18
1.28446e+18
1.21163e+18
1.13908e+18
1.0669e+18
9.98602e+17
9.34062e+17
8.7315e+17
8.15725e+17
7.61648e+17
7.10775e+17
6.62963e+17
6.1807e+17
5.75955e+17
5.36478e+17
4.99505e+17
4.64902e+17
4.32542e+17
4.02298e+17
3.74055e+17
3.47693e+17
3.23107e+17
3.00187e+17
2.78833e+17
2.5895e+17
2.40447e+17
2.23235e+17
2.07232e+17
1.92363e+17
1.78552e+17
1.65729e+17
1.53829e+17
1.42791e+17
1.32556e+17
1.23069e+17
1.1428e+17
1.06139e+17
9.86018e+16
9.16263e+16
8.51723e+16
7.9203e+16
7.36838e+16
6.85823e+16
6.38682e+16
5.95135e+16
5.54918e+16
5.17788e+16
4.83517e+16
4.5189e+16
4.22713e+16
3.95803e+16
3.70988e+16
3.48112e+16
3.27025e+16
3.07593e+16
2.8969e+16
2.73197e+16
2.58007e+16
2.44018e+16
2.3114e+16
2.19283e+16
2.0837e+16
1.98325e+16
1.89082e+16
1.80575e+16
1.7275e+16
1.65549e+16
1.58925e+16
1.52832e+16
1.47226e+16
1.42068e+16
1.37324e+16
1.32959e+16
1.28943e+16
1.25248e+16
1.21847e+16
1.18717e+16
1.15836e+16
1.13183e+16
1.10739e+16
1.08487e+16
1.06412e+16
1.04498e+16
1.02733e+16
1.01103e+16
9.95983e+15
9.82072e+15
9.69203e+15
9.5729e+15
9.46248e+15
9.36002e+15
9.26483e+15
9.17628e+15
9.09377e+15
9.01675e+15
8.94473e+15
8.87722e+15
8.8138e+15
8.75408e+15
8.69768e+15
8.64425e+15
8.59348e+15
8.54507e+15
8.4987e+15
8.45415e+15
8.41115e+15
8.36945e+15
8.32885e+15
8.28912e+15
8.25003e+15
8.21142e+15
8.17307e+15
8.13478e+15
8.09638e+15
8.05767e+15
8.01847e+15
7.97858e+15
7.93783e+15
7.89603e+15
7.85298e+15
7.80847e+15
7.7623e+15
7.71428e+15
7.66417e+15
7.61175e+15
7.55678e+15
7.49903e+15
7.43823e+15
7.37412e+15
7.3064e+15
7.23482e+15
7.15903e+15
7.07873e+15
6.9936e+15
6.90325e+15
6.80733e+15
6.70545e+15
6.59723e+15
6.48223e+15
6.36003e+15
6.2302e+15
6.09228e+15
5.94597e+15
5.79123e+15
5.6293e+15
5.45643e+15
5.29318e+15
5.14023e+15
4.99702e+15
4.86305e+15
4.7378e+15
4.62078e+15
4.51155e+15
4.40963e+15
4.3146e+15
4.22603e+15
4.14357e+15
4.06682e+15
3.99543e+15
3.92908e+15
3.86745e+15
3.81023e+15
3.75715e+15
3.70795e+15
3.66238e+15
3.62022e+15
3.58123e+15
3.54523e+15
3.51203e+15
3.48145e+15
3.45333e+15
3.42753e+15
3.40392e+15
3.38233e+15
3.36268e+15
3.34488e+15
3.3288e+15
3.31438e+15
3.30153e+15
3.2902e+15
3.28032e+15
3.27183e+15
3.2647e+15
3.25892e+15
3.25442e+15
3.25122e+15
3.2493e+15
3.24865e+15
3.24928e+15
3.25122e+15
3.25448e+15
3.2591e+15
3.2651e+15
3.27255e+15
3.28148e+15
3.292e+15
3.30415e+15
3.31802e+15
3.33372e+15
3.35133e+15
3.371e+15
3.39283e+15
3.41698e+15
3.44358e+15
3.47283e+15
3.5049e+15
3.53998e+15
3.57828e+15
3.62003e+15
3.66548e+15
3.7149e+15
3.76857e+15
3.82678e+15
3.88988e+15
3.95822e+15
4.03215e+15
4.11207e+15
4.19842e+15
4.29162e+15
4.39217e+15
4.50058e+15
4.61737e+15
4.7431e+15
4.87838e+15
5.0238e+15
5.17998e+15
5.34738e+15
5.5261e+15
5.71817e+15
5.90568e+15
6.08728e+15
6.26385e+15
6.43627e+15
6.60543e+15
6.7723e+15
6.93782e+15
7.10297e+15
7.26875e+15
7.43625e+15
7.60653e+15
7.78075e+15
7.96008e+15
8.1458e+15
8.33918e+15
8.54165e+15
8.75465e+15
8.97973e+15
9.21857e+15
9.4729e+15
9.74463e+15
1.00358e+16
1.03484e+16
1.0685e+16
1.1048e+16
1.144e+16
1.1864e+16
1.2323e+16
1.28204e+16
1.33598e+16
1.39452e+16
1.45807e+16
1.5271e+16
1.60209e+16
1.68357e+16
1.77212e+16
1.86837e+16
1.97298e+16
2.08667e+16
2.21023e+16
2.34452e+16
2.49043e+16
2.64895e+16
2.82115e+16
3.00817e+16
3.21125e+16
3.43173e+16
3.67103e+16
3.93073e+16
4.21247e+16
4.51807e+16
4.84942e+16
5.20863e+16
5.59793e+16
6.01973e+16
6.47657e+16
6.97125e+16
7.50672e+16
8.08615e+16
8.71297e+16
9.39078e+16
1.01236e+17
1.09154e+17
1.17708e+17
1.26944e+17
1.36915e+17
1.47673e+17
1.59277e+17
1.71787e+17
1.85268e+17
1.9979e+17
2.15425e+17
2.32252e+17
2.50352e+17
2.69812e+17
2.90722e+17
3.13178e+17
3.37283e+17
3.63142e+17
3.90865e+17
4.2057e+17
4.52377e+17
4.8641e+17
)
;

boundaryField
{
    top
    {
        type            cyclic;
    }
    bottom
    {
        type            cyclic;
    }
    walls
    {
        type            calculated;
        value           nonuniform List<scalar> 
1280
(
5.22808e+17
5.61702e+17
6.03228e+17
6.47528e+17
6.9475e+17
7.45038e+17
7.98547e+17
8.55423e+17
9.15817e+17
9.79878e+17
1.04775e+18
1.11958e+18
1.19548e+18
1.27176e+18
1.34834e+18
1.42515e+18
1.50213e+18
1.57924e+18
1.65641e+18
1.73362e+18
1.81083e+18
1.888e+18
1.9651e+18
2.04212e+18
2.11902e+18
2.19578e+18
2.2724e+18
2.34883e+18
2.4251e+18
2.50117e+18
2.57702e+18
2.65265e+18
2.72803e+18
2.8032e+18
2.8781e+18
2.95273e+18
3.0271e+18
3.1012e+18
3.175e+18
3.24852e+18
3.32173e+18
3.39463e+18
3.46723e+18
3.53952e+18
3.61147e+18
3.68308e+18
3.75437e+18
3.8253e+18
3.89588e+18
3.96612e+18
4.03598e+18
4.1055e+18
4.17463e+18
4.24338e+18
4.31175e+18
4.37973e+18
4.44732e+18
4.5145e+18
4.58128e+18
4.64767e+18
4.71362e+18
4.77915e+18
4.84427e+18
4.90893e+18
4.97318e+18
5.03698e+18
5.10033e+18
5.16323e+18
5.22568e+18
5.28767e+18
5.34918e+18
5.41023e+18
5.4708e+18
5.5309e+18
5.5905e+18
5.64962e+18
5.70825e+18
5.76637e+18
5.82398e+18
5.8811e+18
5.9377e+18
5.99378e+18
6.04935e+18
6.10438e+18
6.15888e+18
6.21287e+18
6.2663e+18
6.31918e+18
6.37153e+18
6.42333e+18
6.47458e+18
6.52527e+18
6.5754e+18
6.62495e+18
6.67395e+18
6.72237e+18
6.77022e+18
6.81748e+18
6.86415e+18
6.91025e+18
6.95577e+18
7.00067e+18
7.04498e+18
7.0887e+18
7.13182e+18
7.17433e+18
7.21623e+18
7.25752e+18
7.2982e+18
7.33825e+18
7.37768e+18
7.4165e+18
7.45468e+18
7.49225e+18
7.52918e+18
7.56547e+18
7.60113e+18
7.63615e+18
7.67053e+18
7.70427e+18
7.73737e+18
7.76982e+18
7.80162e+18
7.83275e+18
7.86325e+18
7.89308e+18
7.92227e+18
7.95078e+18
7.97865e+18
8.00585e+18
8.03237e+18
8.05825e+18
8.08345e+18
8.10797e+18
8.13183e+18
8.15502e+18
8.17753e+18
8.19938e+18
8.22055e+18
8.24103e+18
8.26085e+18
8.27998e+18
8.29845e+18
8.31622e+18
8.33332e+18
8.34972e+18
8.36545e+18
8.3805e+18
8.39485e+18
8.40853e+18
8.42153e+18
8.43383e+18
8.44545e+18
8.45638e+18
8.46663e+18
8.47618e+18
8.48507e+18
8.49325e+18
8.50075e+18
8.50755e+18
8.51368e+18
8.51912e+18
8.52387e+18
8.52792e+18
8.5313e+18
8.53398e+18
8.53598e+18
8.5373e+18
8.53793e+18
8.53788e+18
8.53715e+18
8.53572e+18
8.53362e+18
8.53083e+18
8.52737e+18
8.52322e+18
8.5184e+18
8.51288e+18
8.5067e+18
8.49983e+18
8.4923e+18
8.4841e+18
8.47522e+18
8.46565e+18
8.45542e+18
8.44453e+18
8.43297e+18
8.42073e+18
8.40783e+18
8.39427e+18
8.38005e+18
8.36515e+18
8.34962e+18
8.33342e+18
8.31655e+18
8.29903e+18
8.28087e+18
8.26207e+18
8.2426e+18
8.22248e+18
8.20173e+18
8.18033e+18
8.1583e+18
8.13562e+18
8.11232e+18
8.08837e+18
8.06378e+18
8.03858e+18
8.01275e+18
7.98628e+18
7.9592e+18
7.9315e+18
7.90318e+18
7.87425e+18
7.8447e+18
7.81455e+18
7.78378e+18
7.75242e+18
7.72045e+18
7.68788e+18
7.65472e+18
7.62097e+18
7.58662e+18
7.55168e+18
7.51617e+18
7.48007e+18
7.44338e+18
7.40613e+18
7.3683e+18
7.3299e+18
7.29093e+18
7.25142e+18
7.21133e+18
7.17068e+18
7.12948e+18
7.08775e+18
7.04545e+18
7.00262e+18
6.95923e+18
6.91533e+18
6.87088e+18
6.82592e+18
6.78042e+18
6.73438e+18
6.68785e+18
6.64078e+18
6.59322e+18
6.54515e+18
6.49657e+18
6.44748e+18
6.39792e+18
6.34785e+18
6.29728e+18
6.24625e+18
6.19472e+18
6.14272e+18
6.09025e+18
6.0373e+18
5.98388e+18
5.93002e+18
5.87568e+18
5.8209e+18
5.76568e+18
5.71e+18
5.65388e+18
5.59733e+18
5.54033e+18
5.48292e+18
5.42508e+18
5.36682e+18
5.30815e+18
5.24905e+18
5.18955e+18
5.12965e+18
5.06937e+18
5.00867e+18
4.94758e+18
4.88612e+18
4.82427e+18
4.76203e+18
4.69943e+18
4.63647e+18
4.57313e+18
4.50945e+18
4.4454e+18
4.381e+18
4.31627e+18
4.25118e+18
4.18575e+18
4.12e+18
4.05392e+18
3.98752e+18
3.9208e+18
3.85377e+18
3.78642e+18
3.71877e+18
3.65083e+18
3.58258e+18
3.51405e+18
3.44523e+18
3.37613e+18
3.30677e+18
3.23713e+18
3.16722e+18
3.09705e+18
3.02663e+18
2.95597e+18
2.88507e+18
2.81392e+18
2.74255e+18
2.67097e+18
2.59915e+18
2.52715e+18
2.45493e+18
2.38253e+18
2.30997e+18
2.23722e+18
2.16433e+18
2.09128e+18
2.01813e+18
1.94485e+18
1.87148e+18
1.79805e+18
1.72458e+18
1.65108e+18
1.57759e+18
1.50414e+18
1.43077e+18
1.35753e+18
1.28446e+18
1.21163e+18
1.13908e+18
1.0669e+18
9.98602e+17
9.34062e+17
8.7315e+17
8.15725e+17
7.61648e+17
7.10775e+17
6.62963e+17
6.1807e+17
5.75955e+17
5.36478e+17
4.99505e+17
4.64902e+17
4.32542e+17
4.02298e+17
3.74055e+17
3.47693e+17
3.23107e+17
3.00187e+17
2.78833e+17
2.5895e+17
2.40447e+17
2.23235e+17
2.07232e+17
1.92363e+17
1.78552e+17
1.65729e+17
1.53829e+17
1.42791e+17
1.32556e+17
1.23069e+17
1.1428e+17
1.06139e+17
9.86018e+16
9.16263e+16
8.51723e+16
7.9203e+16
7.36838e+16
6.85823e+16
6.38682e+16
5.95135e+16
5.54918e+16
5.17788e+16
4.83517e+16
4.5189e+16
4.22713e+16
3.95803e+16
3.70988e+16
3.48112e+16
3.27025e+16
3.07593e+16
2.8969e+16
2.73197e+16
2.58007e+16
2.44018e+16
2.3114e+16
2.19283e+16
2.0837e+16
1.98325e+16
1.89082e+16
1.80575e+16
1.7275e+16
1.65549e+16
1.58925e+16
1.52832e+16
1.47226e+16
1.42068e+16
1.37324e+16
1.32959e+16
1.28943e+16
1.25248e+16
1.21847e+16
1.18717e+16
1.15836e+16
1.13183e+16
1.10739e+16
1.08487e+16
1.06412e+16
1.04498e+16
1.02733e+16
1.01103e+16
9.95983e+15
9.82072e+15
9.69203e+15
9.5729e+15
9.46248e+15
9.36002e+15
9.26483e+15
9.17628e+15
9.09377e+15
9.01675e+15
8.94473e+15
8.87722e+15
8.8138e+15
8.75408e+15
8.69768e+15
8.64425e+15
8.59348e+15
8.54507e+15
8.4987e+15
8.45415e+15
8.41115e+15
8.36945e+15
8.32885e+15
8.28912e+15
8.25003e+15
8.21142e+15
8.17307e+15
8.13478e+15
8.09638e+15
8.05767e+15
8.01847e+15
7.97858e+15
7.93783e+15
7.89603e+15
7.85298e+15
7.80847e+15
7.7623e+15
7.71428e+15
7.66417e+15
7.61175e+15
7.55678e+15
7.49903e+15
7.43823e+15
7.37412e+15
7.3064e+15
7.23482e+15
7.15903e+15
7.07873e+15
6.9936e+15
6.90325e+15
6.80733e+15
6.70545e+15
6.59723e+15
6.48223e+15
6.36003e+15
6.2302e+15
6.09228e+15
5.94597e+15
5.79123e+15
5.6293e+15
5.45643e+15
5.29318e+15
5.14023e+15
4.99702e+15
4.86305e+15
4.7378e+15
4.62078e+15
4.51155e+15
4.40963e+15
4.3146e+15
4.22603e+15
4.14357e+15
4.06682e+15
3.99543e+15
3.92908e+15
3.86745e+15
3.81023e+15
3.75715e+15
3.70795e+15
3.66238e+15
3.62022e+15
3.58123e+15
3.54523e+15
3.51203e+15
3.48145e+15
3.45333e+15
3.42753e+15
3.40392e+15
3.38233e+15
3.36268e+15
3.34488e+15
3.3288e+15
3.31438e+15
3.30153e+15
3.2902e+15
3.28032e+15
3.27183e+15
3.2647e+15
3.25892e+15
3.25442e+15
3.25122e+15
3.2493e+15
3.24865e+15
3.24928e+15
3.25122e+15
3.25448e+15
3.2591e+15
3.2651e+15
3.27255e+15
3.28148e+15
3.292e+15
3.30415e+15
3.31802e+15
3.33372e+15
3.35133e+15
3.371e+15
3.39283e+15
3.41698e+15
3.44358e+15
3.47283e+15
3.5049e+15
3.53998e+15
3.57828e+15
3.62003e+15
3.66548e+15
3.7149e+15
3.76857e+15
3.82678e+15
3.88988e+15
3.95822e+15
4.03215e+15
4.11207e+15
4.19842e+15
4.29162e+15
4.39217e+15
4.50058e+15
4.61737e+15
4.7431e+15
4.87838e+15
5.0238e+15
5.17998e+15
5.34738e+15
5.5261e+15
5.71817e+15
5.90568e+15
6.08728e+15
6.26385e+15
6.43627e+15
6.60543e+15
6.7723e+15
6.93782e+15
7.10297e+15
7.26875e+15
7.43625e+15
7.60653e+15
7.78075e+15
7.96008e+15
8.1458e+15
8.33918e+15
8.54165e+15
8.75465e+15
8.97973e+15
9.21857e+15
9.4729e+15
9.74463e+15
1.00358e+16
1.03484e+16
1.0685e+16
1.1048e+16
1.144e+16
1.1864e+16
1.2323e+16
1.28204e+16
1.33598e+16
1.39452e+16
1.45807e+16
1.5271e+16
1.60209e+16
1.68357e+16
1.77212e+16
1.86837e+16
1.97298e+16
2.08667e+16
2.21023e+16
2.34452e+16
2.49043e+16
2.64895e+16
2.82115e+16
3.00817e+16
3.21125e+16
3.43173e+16
3.67103e+16
3.93073e+16
4.21247e+16
4.51807e+16
4.84942e+16
5.20863e+16
5.59793e+16
6.01973e+16
6.47657e+16
6.97125e+16
7.50672e+16
8.08615e+16
8.71297e+16
9.39078e+16
1.01236e+17
1.09154e+17
1.17708e+17
1.26944e+17
1.36915e+17
1.47673e+17
1.59277e+17
1.71787e+17
1.85268e+17
1.9979e+17
2.15425e+17
2.32252e+17
2.50352e+17
2.69812e+17
2.90722e+17
3.13178e+17
3.37283e+17
3.63142e+17
3.90865e+17
4.2057e+17
4.52377e+17
4.8641e+17
5.22808e+17
5.61702e+17
6.03228e+17
6.47528e+17
6.9475e+17
7.45038e+17
7.98547e+17
8.55423e+17
9.15817e+17
9.79878e+17
1.04775e+18
1.11958e+18
1.19548e+18
1.27176e+18
1.34834e+18
1.42515e+18
1.50213e+18
1.57924e+18
1.65641e+18
1.73362e+18
1.81083e+18
1.888e+18
1.9651e+18
2.04212e+18
2.11902e+18
2.19578e+18
2.2724e+18
2.34883e+18
2.4251e+18
2.50117e+18
2.57702e+18
2.65265e+18
2.72803e+18
2.8032e+18
2.8781e+18
2.95273e+18
3.0271e+18
3.1012e+18
3.175e+18
3.24852e+18
3.32173e+18
3.39463e+18
3.46723e+18
3.53952e+18
3.61147e+18
3.68308e+18
3.75437e+18
3.8253e+18
3.89588e+18
3.96612e+18
4.03598e+18
4.1055e+18
4.17463e+18
4.24338e+18
4.31175e+18
4.37973e+18
4.44732e+18
4.5145e+18
4.58128e+18
4.64767e+18
4.71362e+18
4.77915e+18
4.84427e+18
4.90893e+18
4.97318e+18
5.03698e+18
5.10033e+18
5.16323e+18
5.22568e+18
5.28767e+18
5.34918e+18
5.41023e+18
5.4708e+18
5.5309e+18
5.5905e+18
5.64962e+18
5.70825e+18
5.76637e+18
5.82398e+18
5.8811e+18
5.9377e+18
5.99378e+18
6.04935e+18
6.10438e+18
6.15888e+18
6.21287e+18
6.2663e+18
6.31918e+18
6.37153e+18
6.42333e+18
6.47458e+18
6.52527e+18
6.5754e+18
6.62495e+18
6.67395e+18
6.72237e+18
6.77022e+18
6.81748e+18
6.86415e+18
6.91025e+18
6.95577e+18
7.00067e+18
7.04498e+18
7.0887e+18
7.13182e+18
7.17433e+18
7.21623e+18
7.25752e+18
7.2982e+18
7.33825e+18
7.37768e+18
7.4165e+18
7.45468e+18
7.49225e+18
7.52918e+18
7.56547e+18
7.60113e+18
7.63615e+18
7.67053e+18
7.70427e+18
7.73737e+18
7.76982e+18
7.80162e+18
7.83275e+18
7.86325e+18
7.89308e+18
7.92227e+18
7.95078e+18
7.97865e+18
8.00585e+18
8.03237e+18
8.05825e+18
8.08345e+18
8.10797e+18
8.13183e+18
8.15502e+18
8.17753e+18
8.19938e+18
8.22055e+18
8.24103e+18
8.26085e+18
8.27998e+18
8.29845e+18
8.31622e+18
8.33332e+18
8.34972e+18
8.36545e+18
8.3805e+18
8.39485e+18
8.40853e+18
8.42153e+18
8.43383e+18
8.44545e+18
8.45638e+18
8.46663e+18
8.47618e+18
8.48507e+18
8.49325e+18
8.50075e+18
8.50755e+18
8.51368e+18
8.51912e+18
8.52387e+18
8.52792e+18
8.5313e+18
8.53398e+18
8.53598e+18
8.5373e+18
8.53793e+18
8.53788e+18
8.53715e+18
8.53572e+18
8.53362e+18
8.53083e+18
8.52737e+18
8.52322e+18
8.5184e+18
8.51288e+18
8.5067e+18
8.49983e+18
8.4923e+18
8.4841e+18
8.47522e+18
8.46565e+18
8.45542e+18
8.44453e+18
8.43297e+18
8.42073e+18
8.40783e+18
8.39427e+18
8.38005e+18
8.36515e+18
8.34962e+18
8.33342e+18
8.31655e+18
8.29903e+18
8.28087e+18
8.26207e+18
8.2426e+18
8.22248e+18
8.20173e+18
8.18033e+18
8.1583e+18
8.13562e+18
8.11232e+18
8.08837e+18
8.06378e+18
8.03858e+18
8.01275e+18
7.98628e+18
7.9592e+18
7.9315e+18
7.90318e+18
7.87425e+18
7.8447e+18
7.81455e+18
7.78378e+18
7.75242e+18
7.72045e+18
7.68788e+18
7.65472e+18
7.62097e+18
7.58662e+18
7.55168e+18
7.51617e+18
7.48007e+18
7.44338e+18
7.40613e+18
7.3683e+18
7.3299e+18
7.29093e+18
7.25142e+18
7.21133e+18
7.17068e+18
7.12948e+18
7.08775e+18
7.04545e+18
7.00262e+18
6.95923e+18
6.91533e+18
6.87088e+18
6.82592e+18
6.78042e+18
6.73438e+18
6.68785e+18
6.64078e+18
6.59322e+18
6.54515e+18
6.49657e+18
6.44748e+18
6.39792e+18
6.34785e+18
6.29728e+18
6.24625e+18
6.19472e+18
6.14272e+18
6.09025e+18
6.0373e+18
5.98388e+18
5.93002e+18
5.87568e+18
5.8209e+18
5.76568e+18
5.71e+18
5.65388e+18
5.59733e+18
5.54033e+18
5.48292e+18
5.42508e+18
5.36682e+18
5.30815e+18
5.24905e+18
5.18955e+18
5.12965e+18
5.06937e+18
5.00867e+18
4.94758e+18
4.88612e+18
4.82427e+18
4.76203e+18
4.69943e+18
4.63647e+18
4.57313e+18
4.50945e+18
4.4454e+18
4.381e+18
4.31627e+18
4.25118e+18
4.18575e+18
4.12e+18
4.05392e+18
3.98752e+18
3.9208e+18
3.85377e+18
3.78642e+18
3.71877e+18
3.65083e+18
3.58258e+18
3.51405e+18
3.44523e+18
3.37613e+18
3.30677e+18
3.23713e+18
3.16722e+18
3.09705e+18
3.02663e+18
2.95597e+18
2.88507e+18
2.81392e+18
2.74255e+18
2.67097e+18
2.59915e+18
2.52715e+18
2.45493e+18
2.38253e+18
2.30997e+18
2.23722e+18
2.16433e+18
2.09128e+18
2.01813e+18
1.94485e+18
1.87148e+18
1.79805e+18
1.72458e+18
1.65108e+18
1.57759e+18
1.50414e+18
1.43077e+18
1.35753e+18
1.28446e+18
1.21163e+18
1.13908e+18
1.0669e+18
9.98602e+17
9.34062e+17
8.7315e+17
8.15725e+17
7.61648e+17
7.10775e+17
6.62963e+17
6.1807e+17
5.75955e+17
5.36478e+17
4.99505e+17
4.64902e+17
4.32542e+17
4.02298e+17
3.74055e+17
3.47693e+17
3.23107e+17
3.00187e+17
2.78833e+17
2.5895e+17
2.40447e+17
2.23235e+17
2.07232e+17
1.92363e+17
1.78552e+17
1.65729e+17
1.53829e+17
1.42791e+17
1.32556e+17
1.23069e+17
1.1428e+17
1.06139e+17
9.86018e+16
9.16263e+16
8.51723e+16
7.9203e+16
7.36838e+16
6.85823e+16
6.38682e+16
5.95135e+16
5.54918e+16
5.17788e+16
4.83517e+16
4.5189e+16
4.22713e+16
3.95803e+16
3.70988e+16
3.48112e+16
3.27025e+16
3.07593e+16
2.8969e+16
2.73197e+16
2.58007e+16
2.44018e+16
2.3114e+16
2.19283e+16
2.0837e+16
1.98325e+16
1.89082e+16
1.80575e+16
1.7275e+16
1.65549e+16
1.58925e+16
1.52832e+16
1.47226e+16
1.42068e+16
1.37324e+16
1.32959e+16
1.28943e+16
1.25248e+16
1.21847e+16
1.18717e+16
1.15836e+16
1.13183e+16
1.10739e+16
1.08487e+16
1.06412e+16
1.04498e+16
1.02733e+16
1.01103e+16
9.95983e+15
9.82072e+15
9.69203e+15
9.5729e+15
9.46248e+15
9.36002e+15
9.26483e+15
9.17628e+15
9.09377e+15
9.01675e+15
8.94473e+15
8.87722e+15
8.8138e+15
8.75408e+15
8.69768e+15
8.64425e+15
8.59348e+15
8.54507e+15
8.4987e+15
8.45415e+15
8.41115e+15
8.36945e+15
8.32885e+15
8.28912e+15
8.25003e+15
8.21142e+15
8.17307e+15
8.13478e+15
8.09638e+15
8.05767e+15
8.01847e+15
7.97858e+15
7.93783e+15
7.89603e+15
7.85298e+15
7.80847e+15
7.7623e+15
7.71428e+15
7.66417e+15
7.61175e+15
7.55678e+15
7.49903e+15
7.43823e+15
7.37412e+15
7.3064e+15
7.23482e+15
7.15903e+15
7.07873e+15
6.9936e+15
6.90325e+15
6.80733e+15
6.70545e+15
6.59723e+15
6.48223e+15
6.36003e+15
6.2302e+15
6.09228e+15
5.94597e+15
5.79123e+15
5.6293e+15
5.45643e+15
5.29318e+15
5.14023e+15
4.99702e+15
4.86305e+15
4.7378e+15
4.62078e+15
4.51155e+15
4.40963e+15
4.3146e+15
4.22603e+15
4.14357e+15
4.06682e+15
3.99543e+15
3.92908e+15
3.86745e+15
3.81023e+15
3.75715e+15
3.70795e+15
3.66238e+15
3.62022e+15
3.58123e+15
3.54523e+15
3.51203e+15
3.48145e+15
3.45333e+15
3.42753e+15
3.40392e+15
3.38233e+15
3.36268e+15
3.34488e+15
3.3288e+15
3.31438e+15
3.30153e+15
3.2902e+15
3.28032e+15
3.27183e+15
3.2647e+15
3.25892e+15
3.25442e+15
3.25122e+15
3.2493e+15
3.24865e+15
3.24928e+15
3.25122e+15
3.25448e+15
3.2591e+15
3.2651e+15
3.27255e+15
3.28148e+15
3.292e+15
3.30415e+15
3.31802e+15
3.33372e+15
3.35133e+15
3.371e+15
3.39283e+15
3.41698e+15
3.44358e+15
3.47283e+15
3.5049e+15
3.53998e+15
3.57828e+15
3.62003e+15
3.66548e+15
3.7149e+15
3.76857e+15
3.82678e+15
3.88988e+15
3.95822e+15
4.03215e+15
4.11207e+15
4.19842e+15
4.29162e+15
4.39217e+15
4.50058e+15
4.61737e+15
4.7431e+15
4.87838e+15
5.0238e+15
5.17998e+15
5.34738e+15
5.5261e+15
5.71817e+15
5.90568e+15
6.08728e+15
6.26385e+15
6.43627e+15
6.60543e+15
6.7723e+15
6.93782e+15
7.10297e+15
7.26875e+15
7.43625e+15
7.60653e+15
7.78075e+15
7.96008e+15
8.1458e+15
8.33918e+15
8.54165e+15
8.75465e+15
8.97973e+15
9.21857e+15
9.4729e+15
9.74463e+15
1.00358e+16
1.03484e+16
1.0685e+16
1.1048e+16
1.144e+16
1.1864e+16
1.2323e+16
1.28204e+16
1.33598e+16
1.39452e+16
1.45807e+16
1.5271e+16
1.60209e+16
1.68357e+16
1.77212e+16
1.86837e+16
1.97298e+16
2.08667e+16
2.21023e+16
2.34452e+16
2.49043e+16
2.64895e+16
2.82115e+16
3.00817e+16
3.21125e+16
3.43173e+16
3.67103e+16
3.93073e+16
4.21247e+16
4.51807e+16
4.84942e+16
5.20863e+16
5.59793e+16
6.01973e+16
6.47657e+16
6.97125e+16
7.50672e+16
8.08615e+16
8.71297e+16
9.39078e+16
1.01236e+17
1.09154e+17
1.17708e+17
1.26944e+17
1.36915e+17
1.47673e+17
1.59277e+17
1.71787e+17
1.85268e+17
1.9979e+17
2.15425e+17
2.32252e+17
2.50352e+17
2.69812e+17
2.90722e+17
3.13178e+17
3.37283e+17
3.63142e+17
3.90865e+17
4.2057e+17
4.52377e+17
4.8641e+17
)
;
    }
    defaultFaces
    {
        type            empty;
    }
}

// ************************************************************************* //
