/*--------------------------------*- C++ -*----------------------------------*\
|       ______          _   __           ______                               |
|      / ____/  ___    / | / /          / ____/  ____   ____ _   ____ ___     |
|     / / __   / _ \  /  |/ /  ______  / /_     / __ \ / __ `/  / __ `__ \    |
|    / /_/ /  /  __/ / /|  /  /_____/ / __/    / /_/ // /_/ /  / / / / / /    |
|    \____/   \___/ /_/ |_/          /_/       \____/ \__,_/  /_/ /_/ /_/     |
|    Copyright (C) 2015 - 2022 EPFL                                           |
\*---------------------------------------------------------------------------*/
FoamFile
{
    version     2.0;
    format      ascii;
    class       volScalarField;
    object      oneGroupFlux;
}
// * * * * * * * * * * * * * * * * * * * * * * * * * * * * * * * * * * * * * //

dimensions      [0 -2 -1 0 0 0 0];

internalField   nonuniform List<scalar> 
640
(
3.13685e+18
3.37021e+18
3.61937e+18
3.88517e+18
4.1685e+18
4.47023e+18
4.79128e+18
5.13254e+18
5.4949e+18
5.87927e+18
6.28651e+18
6.71745e+18
7.17287e+18
7.63055e+18
8.09002e+18
8.55089e+18
9.01279e+18
9.47541e+18
9.93847e+18
1.04017e+19
1.0865e+19
1.1328e+19
1.17906e+19
1.22527e+19
1.27141e+19
1.31747e+19
1.36344e+19
1.4093e+19
1.45506e+19
1.5007e+19
1.54621e+19
1.59159e+19
1.63682e+19
1.68192e+19
1.72686e+19
1.77164e+19
1.81626e+19
1.86072e+19
1.905e+19
1.94911e+19
1.99304e+19
2.03678e+19
2.08034e+19
2.12371e+19
2.16688e+19
2.20985e+19
2.25262e+19
2.29518e+19
2.33753e+19
2.37967e+19
2.42159e+19
2.4633e+19
2.50478e+19
2.54603e+19
2.58705e+19
2.62784e+19
2.66839e+19
2.7087e+19
2.74877e+19
2.7886e+19
2.82817e+19
2.86749e+19
2.90656e+19
2.94536e+19
2.98391e+19
3.02219e+19
3.0602e+19
3.09794e+19
3.13541e+19
3.1726e+19
3.20951e+19
3.24614e+19
3.28248e+19
3.31854e+19
3.3543e+19
3.38977e+19
3.42495e+19
3.45982e+19
3.49439e+19
3.52866e+19
3.56262e+19
3.59627e+19
3.62961e+19
3.66263e+19
3.69533e+19
3.72772e+19
3.75978e+19
3.79151e+19
3.82292e+19
3.854e+19
3.88475e+19
3.91516e+19
3.94524e+19
3.97497e+19
4.00437e+19
4.03342e+19
4.06213e+19
4.09049e+19
4.11849e+19
4.14615e+19
4.17346e+19
4.2004e+19
4.22699e+19
4.25322e+19
4.27909e+19
4.3046e+19
4.32974e+19
4.35451e+19
4.37892e+19
4.40295e+19
4.42661e+19
4.4499e+19
4.47281e+19
4.49535e+19
4.51751e+19
4.53928e+19
4.56068e+19
4.58169e+19
4.60232e+19
4.62256e+19
4.64242e+19
4.66189e+19
4.68097e+19
4.69965e+19
4.71795e+19
4.73585e+19
4.75336e+19
4.77047e+19
4.78719e+19
4.80351e+19
4.81942e+19
4.83495e+19
4.85007e+19
4.86478e+19
4.8791e+19
4.89301e+19
4.90652e+19
4.91963e+19
4.93233e+19
4.94462e+19
4.95651e+19
4.96799e+19
4.97907e+19
4.98973e+19
4.99999e+19
5.00983e+19
5.01927e+19
5.0283e+19
5.03691e+19
5.04512e+19
5.05292e+19
5.0603e+19
5.06727e+19
5.07383e+19
5.07998e+19
5.08571e+19
5.09104e+19
5.09595e+19
5.10045e+19
5.10453e+19
5.10821e+19
5.11147e+19
5.11432e+19
5.11675e+19
5.11878e+19
5.12039e+19
5.12159e+19
5.12238e+19
5.12276e+19
5.12273e+19
5.12229e+19
5.12143e+19
5.12017e+19
5.1185e+19
5.11642e+19
5.11393e+19
5.11104e+19
5.10773e+19
5.10402e+19
5.0999e+19
5.09538e+19
5.09046e+19
5.08513e+19
5.07939e+19
5.07325e+19
5.06672e+19
5.05978e+19
5.05244e+19
5.0447e+19
5.03656e+19
5.02803e+19
5.01909e+19
5.00977e+19
5.00005e+19
4.98993e+19
4.97942e+19
4.96852e+19
4.95724e+19
4.94556e+19
4.93349e+19
4.92104e+19
4.9082e+19
4.89498e+19
4.88137e+19
4.86739e+19
4.85302e+19
4.83827e+19
4.82315e+19
4.80765e+19
4.79177e+19
4.77552e+19
4.7589e+19
4.74191e+19
4.72455e+19
4.70682e+19
4.68873e+19
4.67027e+19
4.65145e+19
4.63227e+19
4.61273e+19
4.59283e+19
4.57258e+19
4.55197e+19
4.53101e+19
4.5097e+19
4.48804e+19
4.46603e+19
4.44368e+19
4.42098e+19
4.39794e+19
4.37456e+19
4.35085e+19
4.3268e+19
4.30241e+19
4.27769e+19
4.25265e+19
4.22727e+19
4.20157e+19
4.17554e+19
4.1492e+19
4.12253e+19
4.09555e+19
4.06825e+19
4.04063e+19
4.01271e+19
3.98447e+19
3.95593e+19
3.92709e+19
3.89794e+19
3.86849e+19
3.83875e+19
3.80871e+19
3.77837e+19
3.74775e+19
3.71683e+19
3.68563e+19
3.65415e+19
3.62238e+19
3.59033e+19
3.55801e+19
3.52541e+19
3.49254e+19
3.45941e+19
3.426e+19
3.39233e+19
3.3584e+19
3.3242e+19
3.28975e+19
3.25505e+19
3.22009e+19
3.18489e+19
3.14943e+19
3.11373e+19
3.07779e+19
3.04162e+19
3.0052e+19
2.96855e+19
2.93167e+19
2.89456e+19
2.85722e+19
2.81966e+19
2.78188e+19
2.74388e+19
2.70567e+19
2.66724e+19
2.6286e+19
2.58976e+19
2.55071e+19
2.51145e+19
2.472e+19
2.43235e+19
2.39251e+19
2.35248e+19
2.31226e+19
2.27185e+19
2.23126e+19
2.1905e+19
2.14955e+19
2.10843e+19
2.06714e+19
2.02568e+19
1.98406e+19
1.94228e+19
1.90033e+19
1.85823e+19
1.81598e+19
1.77358e+19
1.73104e+19
1.68835e+19
1.64553e+19
1.60258e+19
1.55949e+19
1.51629e+19
1.47296e+19
1.42952e+19
1.38598e+19
1.34233e+19
1.2986e+19
1.25477e+19
1.21088e+19
1.16691e+19
1.12289e+19
1.07883e+19
1.03475e+19
9.90647e+18
9.46552e+18
9.02484e+18
8.58464e+18
8.14519e+18
7.70679e+18
7.26976e+18
6.83448e+18
6.40139e+18
5.99161e+18
5.60437e+18
5.2389e+18
4.89435e+18
4.56989e+18
4.26465e+18
3.97778e+18
3.70842e+18
3.45573e+18
3.21887e+18
2.99703e+18
2.78941e+18
2.59525e+18
2.41379e+18
2.24433e+18
2.08616e+18
1.93864e+18
1.80112e+18
1.673e+18
1.5537e+18
1.44268e+18
1.33941e+18
1.24339e+18
1.15418e+18
1.07131e+18
9.94372e+17
9.22975e+17
8.56746e+17
7.95335e+17
7.38415e+17
6.85678e+17
6.36834e+17
5.91611e+17
5.49758e+17
5.11034e+17
4.75218e+17
4.42103e+17
4.11494e+17
3.83209e+17
3.57081e+17
3.32951e+17
3.10673e+17
2.9011e+17
2.71134e+17
2.53628e+17
2.37482e+17
2.22593e+17
2.08867e+17
1.96215e+17
1.84556e+17
1.73814e+17
1.63918e+17
1.54804e+17
1.46411e+17
1.38684e+17
1.3157e+17
1.25022e+17
1.18995e+17
1.13449e+17
1.08345e+17
1.0365e+17
9.93296e+16
9.53552e+16
9.16989e+16
8.83353e+16
8.5241e+16
8.23944e+16
7.97755e+16
7.7366e+16
7.51488e+16
7.31084e+16
7.12304e+16
6.95016e+16
6.79096e+16
6.64433e+16
6.50923e+16
6.38471e+16
6.2699e+16
6.16398e+16
6.0662e+16
5.9759e+16
5.89243e+16
5.81522e+16
5.74374e+16
5.67749e+16
5.61601e+16
5.5589e+16
5.50577e+16
5.45626e+16
5.41005e+16
5.36684e+16
5.32633e+16
5.28828e+16
5.25245e+16
5.21861e+16
5.18655e+16
5.15609e+16
5.12704e+16
5.09922e+16
5.07249e+16
5.04669e+16
5.02167e+16
4.99731e+16
4.97347e+16
4.95002e+16
4.92685e+16
4.90384e+16
4.88087e+16
4.85783e+16
4.8346e+16
4.81108e+16
4.78715e+16
4.7627e+16
4.73762e+16
4.71179e+16
4.68508e+16
4.65738e+16
4.62857e+16
4.5985e+16
4.56705e+16
4.53407e+16
4.49942e+16
4.46294e+16
4.42447e+16
4.38384e+16
4.34089e+16
4.29542e+16
4.24724e+16
4.19616e+16
4.14195e+16
4.0844e+16
4.02327e+16
3.95834e+16
3.88934e+16
3.81602e+16
3.73812e+16
3.65537e+16
3.56758e+16
3.47474e+16
3.37758e+16
3.27386e+16
3.17591e+16
3.08414e+16
2.99821e+16
2.91783e+16
2.84268e+16
2.77247e+16
2.70693e+16
2.64578e+16
2.58876e+16
2.53562e+16
2.48614e+16
2.44009e+16
2.39726e+16
2.35745e+16
2.32047e+16
2.28614e+16
2.25429e+16
2.22477e+16
2.19743e+16
2.17213e+16
2.14874e+16
2.12714e+16
2.10722e+16
2.08887e+16
2.072e+16
2.05652e+16
2.04235e+16
2.0294e+16
2.01761e+16
2.00693e+16
1.99728e+16
1.98863e+16
1.98092e+16
1.97412e+16
1.96819e+16
1.9631e+16
1.95882e+16
1.95535e+16
1.95265e+16
1.95073e+16
1.94958e+16
1.94919e+16
1.94957e+16
1.95073e+16
1.95269e+16
1.95546e+16
1.95906e+16
1.96353e+16
1.96889e+16
1.9752e+16
1.98249e+16
1.99081e+16
2.00023e+16
2.0108e+16
2.0226e+16
2.0357e+16
2.05019e+16
2.06615e+16
2.0837e+16
2.10294e+16
2.12399e+16
2.14697e+16
2.17202e+16
2.19929e+16
2.22894e+16
2.26114e+16
2.29607e+16
2.33393e+16
2.37493e+16
2.41929e+16
2.46724e+16
2.51905e+16
2.57497e+16
2.6353e+16
2.70035e+16
2.77042e+16
2.84586e+16
2.92703e+16
3.01428e+16
3.10799e+16
3.20843e+16
3.31566e+16
3.4309e+16
3.54341e+16
3.65237e+16
3.75831e+16
3.86176e+16
3.96326e+16
4.06338e+16
4.16269e+16
4.26178e+16
4.36125e+16
4.46175e+16
4.56392e+16
4.66845e+16
4.77605e+16
4.88748e+16
5.00351e+16
5.12499e+16
5.25279e+16
5.38784e+16
5.53114e+16
5.68374e+16
5.84678e+16
6.02146e+16
6.20907e+16
6.41102e+16
6.6288e+16
6.864e+16
7.11838e+16
7.39378e+16
7.69223e+16
8.0159e+16
8.36712e+16
8.74844e+16
9.16259e+16
9.61252e+16
1.01014e+17
1.06327e+17
1.12102e+17
1.18379e+17
1.252e+17
1.32614e+17
1.40671e+17
1.49426e+17
1.58937e+17
1.69269e+17
1.8049e+17
1.92675e+17
2.05904e+17
2.20262e+17
2.35844e+17
2.52748e+17
2.71084e+17
2.90965e+17
3.12518e+17
3.35876e+17
3.61184e+17
3.88594e+17
4.18275e+17
4.50403e+17
4.85169e+17
5.22778e+17
5.63447e+17
6.07413e+17
6.54923e+17
7.06246e+17
7.61667e+17
8.21491e+17
8.8604e+17
9.55661e+17
1.03072e+18
1.11161e+18
1.19874e+18
1.29255e+18
1.39351e+18
1.50211e+18
1.61887e+18
1.74433e+18
1.87907e+18
2.0237e+18
2.17885e+18
2.34519e+18
2.52342e+18
2.71426e+18
2.91846e+18
)
;

boundaryField
{
    top
    {
        type            cyclic;
    }
    bottom
    {
        type            cyclic;
    }
    walls
    {
        type            zeroGradient;
    }
    defaultFaces
    {
        type            empty;
    }
}

// ************************************************************************* //
