/*--------------------------------*- C++ -*----------------------------------*\
| =========                 |                                                 |
| \\      /  F ield         | OpenFOAM: The Open Source CFD Toolbox           |
|  \\    /   O peration     | Version:  2212                                  |
|   \\  /    A nd           | Website:  www.openfoam.com                      |
|    \\/     M anipulation  |                                                 |
\*---------------------------------------------------------------------------*/
FoamFile
{
    version     2.0;
    format      ascii;
    arch        "LSB;label=32;scalar=64";
    class       volScalarField;
    location    "39/neutroRegion";
    object      TClad;
}
// * * * * * * * * * * * * * * * * * * * * * * * * * * * * * * * * * * * * * //

dimensions      [0 0 0 1 0 0 0];

internalField   nonuniform List<scalar> 
350
(
0
0
0
0
0
0
0
0
0
0
0
0
0
0
0
0
0
0
0
0
0
0
0
0
0
0
0
0
0
0
0
0
0
0
0
0
0
0
0
0
0
0
0
0
0
0
0
0
0
0
1834.23
1872.86
1898.53
1911.26
1911.16
1898.52
1873.75
1837.42
1790.24
1733.06
1666.85
1592.71
1511.87
1425.65
1335.5
1242.87
1149.15
1055.38
961.956
868.044
770.714
663.717
536.453
377.091
187.348
1862.39
1901.64
1927.71
1940.61
1940.46
1927.54
1902.27
1865.24
1817.16
1758.9
1691.44
1615.91
1533.53
1445.67
1353.78
1259.36
1163.82
1068.29
973.203
877.771
779.059
670.735
541.984
380.682
188.562
1829.66
1868.2
1893.83
1906.55
1906.48
1893.9
1869.22
1833.02
1786
1729
1663
1589.1
1508.5
1422.56
1332.68
1240.34
1146.9
1053.41
960.241
866.568
769.456
662.67
535.639
376.567
187.163
1856.06
1895.15
1921.12
1933.96
1933.81
1920.94
1895.77
1858.89
1811
1752.98
1685.8
1610.58
1528.55
1441.06
1349.57
1255.55
1160.43
1065.31
970.603
875.522
777.128
669.11
540.702
379.849
188.281
1856.06
1895.15
1921.12
1933.96
1933.81
1920.94
1895.77
1858.89
1811
1752.98
1685.8
1610.58
1528.55
1441.06
1349.57
1255.55
1160.43
1065.31
970.603
875.522
777.128
669.11
540.702
379.849
188.281
1829.66
1868.2
1893.83
1906.55
1906.48
1893.9
1869.22
1833.02
1786
1729
1663
1589.1
1508.5
1422.56
1332.68
1240.34
1146.9
1053.41
960.242
866.568
769.456
662.671
535.639
376.568
187.163
1862.39
1901.64
1927.71
1940.61
1940.46
1927.54
1902.27
1865.24
1817.16
1758.9
1691.44
1615.91
1533.53
1445.67
1353.78
1259.36
1163.82
1068.29
973.203
877.771
779.059
670.735
541.984
380.682
188.562
1834.23
1872.86
1898.53
1911.26
1911.16
1898.52
1873.75
1837.42
1790.24
1733.06
1666.85
1592.71
1511.87
1425.66
1335.5
1242.87
1149.15
1055.38
961.956
868.045
770.714
663.718
536.453
377.091
187.348
1856.06
1895.15
1921.12
1933.96
1933.81
1920.94
1895.77
1858.89
1811
1752.98
1685.8
1610.58
1528.55
1441.06
1349.57
1255.55
1160.43
1065.31
970.603
875.522
777.128
669.11
540.702
379.849
188.281
1829.66
1868.2
1893.83
1906.55
1906.48
1893.9
1869.22
1833.02
1786
1729
1663
1589.1
1508.5
1422.56
1332.68
1240.34
1146.9
1053.41
960.241
866.568
769.456
662.67
535.639
376.567
187.163
1829.66
1868.2
1893.83
1906.55
1906.48
1893.9
1869.22
1833.02
1786
1729
1663
1589.1
1508.5
1422.56
1332.68
1240.34
1146.9
1053.41
960.242
866.569
769.456
662.671
535.639
376.568
187.163
1856.06
1895.15
1921.12
1933.96
1933.81
1920.94
1895.77
1858.89
1811
1752.98
1685.8
1610.58
1528.55
1441.06
1349.57
1255.55
1160.43
1065.31
970.603
875.522
777.128
669.11
540.702
379.849
188.281
)
;

boundaryField
{
    outletCentralUnloaded
    {
        type            zeroGradient;
    }
    inletCentralUnloaded
    {
        type            zeroGradient;
    }
    outletFuelElement
    {
        type            zeroGradient;
    }
    inletFuelElement
    {
        type            zeroGradient;
    }
    defaultFaces
    {
        type            zeroGradient;
    }
}


// ************************************************************************* //
