/*--------------------------------*- C++ -*----------------------------------*\
| =========                 |                                                 |
| \\      /  F ield         | OpenFOAM: The Open Source CFD Toolbox           |
|  \\    /   O peration     | Version:  2212                                  |
|   \\  /    A nd           | Website:  www.openfoam.com                      |
|    \\/     M anipulation  |                                                 |
\*---------------------------------------------------------------------------*/
FoamFile
{
    version     2.0;
    format      ascii;
    arch        "LSB;label=32;scalar=64";
    class       volScalarField;
    location    "51/fluidRegion";
    object      epsilon;
}
// * * * * * * * * * * * * * * * * * * * * * * * * * * * * * * * * * * * * * //

dimensions      [0 2 -3 0 0 0 0];

internalField   nonuniform List<scalar> 
350
(
66.9866
66.9693
66.9519
66.9347
66.9176
66.9007
66.8841
66.8677
66.8515
66.8355
66.8196
66.804
66.7891
66.7753
66.7632
66.7539
66.7484
66.7488
66.7579
66.7802
66.8224
66.8951
67.0147
67.206
67.507
66.9866
66.9693
66.9519
66.9347
66.9176
66.9007
66.8841
66.8677
66.8515
66.8355
66.8196
66.804
66.7891
66.7753
66.7632
66.7539
66.7484
66.7488
66.7579
66.7802
66.8224
66.8951
67.0147
67.206
67.507
7.63878e+06
7.03031e+06
6.35659e+06
5.63873e+06
4.90456e+06
4.17962e+06
3.48606e+06
2.84191e+06
2.26069e+06
1.75125e+06
1.31794e+06
960908
676632
458574
297999
184911
109050
60797.6
31856.2
15605.7
7147.11
3115.91
1385.43
735.649
547.162
7.80409e+06
7.18391e+06
6.49713e+06
5.76476e+06
5.01531e+06
4.27491e+06
3.56624e+06
2.90779e+06
2.31343e+06
1.7923e+06
1.34888e+06
983409
692348
469063
304648
188891
111282
61959.8
32410.8
15843.8
7236.62
3144.24
1392.61
737.092
547.585
7.61174e+06
7.00512e+06
6.33365e+06
5.61823e+06
4.88661e+06
4.16424e+06
3.47316e+06
2.83135e+06
2.25226e+06
1.74472e+06
1.31303e+06
957352
674155
456925
296955
184286
108699
60613.8
31767.6
15566.9
7131.9
3110.65
1383.8
735.159
546.986
7.76748e+06
7.14983e+06
6.46586e+06
5.73665e+06
4.99055e+06
4.25356e+06
3.54823e+06
2.89296e+06
2.30154e+06
1.78302e+06
1.34187e+06
978303
688774
466673
303131
187982
110772
61693.8
32283.9
15789.4
7216.21
3137.82
1391.01
736.793
547.506
7.76748e+06
7.14983e+06
6.46586e+06
5.73665e+06
4.99055e+06
4.25356e+06
3.54823e+06
2.89296e+06
2.30154e+06
1.78302e+06
1.34187e+06
978302
688774
466673
303131
187982
110772
61693.8
32283.9
15789.4
7216.21
3137.82
1391.01
736.793
547.506
7.61175e+06
7.00513e+06
6.33366e+06
5.61824e+06
4.88662e+06
4.16424e+06
3.47317e+06
2.83136e+06
2.25227e+06
1.74472e+06
1.31304e+06
957353
674156
456925
296955
184286
108699
60613.8
31767.5
15566.9
7131.89
3110.63
1383.79
735.156
546.985
7.8041e+06
7.18391e+06
6.49713e+06
5.76476e+06
5.01531e+06
4.27491e+06
3.56624e+06
2.90779e+06
2.31343e+06
1.7923e+06
1.34888e+06
983409
692348
469063
304648
188891
111282
61959.8
32410.8
15843.8
7236.62
3144.24
1392.61
737.092
547.585
7.63878e+06
7.03031e+06
6.35659e+06
5.63873e+06
4.90456e+06
4.17962e+06
3.48606e+06
2.84191e+06
2.26069e+06
1.75125e+06
1.31794e+06
960908
676632
458574
297999
184911
109050
60797.6
31856.1
15605.7
7147.1
3115.91
1385.43
735.648
547.162
7.76748e+06
7.14983e+06
6.46585e+06
5.73665e+06
4.99055e+06
4.25356e+06
3.54823e+06
2.89296e+06
2.30154e+06
1.78302e+06
1.34187e+06
978302
688774
466673
303131
187982
110772
61693.8
32283.9
15789.4
7216.21
3137.82
1391.01
736.792
547.505
7.61174e+06
7.00512e+06
6.33365e+06
5.61823e+06
4.88662e+06
4.16424e+06
3.47316e+06
2.83135e+06
2.25227e+06
1.74472e+06
1.31303e+06
957352
674155
456925
296955
184286
108699
60613.9
31767.6
15566.9
7131.92
3110.65
1383.81
735.162
546.988
7.61175e+06
7.00513e+06
6.33365e+06
5.61824e+06
4.88662e+06
4.16424e+06
3.47316e+06
2.83135e+06
2.25227e+06
1.74472e+06
1.31304e+06
957352
674155
456925
296955
184286
108699
60613.8
31767.5
15566.9
7131.88
3110.63
1383.79
735.156
546.985
7.76748e+06
7.14982e+06
6.46585e+06
5.73665e+06
4.99055e+06
4.25356e+06
3.54823e+06
2.89296e+06
2.30154e+06
1.78302e+06
1.34187e+06
978302
688774
466673
303131
187981
110772
61693.7
32283.8
15789.4
7216.19
3137.81
1391.01
736.792
547.506
)
;

boundaryField
{
    outletCentralUnloaded
    {
        type            zeroGradient;
    }
    inletCentralUnloaded
    {
        type            zeroGradient;
    }
    outletFuelElement
    {
        type            zeroGradient;
    }
    inletFuelElement
    {
        type            zeroGradient;
    }
    defaultFaces
    {
        type            zeroGradient;
    }
    baffle_master
    {
        type            zeroGradient;
    }
    baffle_slave
    {
        type            zeroGradient;
    }
}


// ************************************************************************* //
