/*--------------------------------*- C++ -*----------------------------------*\
| =========                 |                                                 |
| \\      /  F ield         | OpenFOAM: The Open Source CFD Toolbox           |
|  \\    /   O peration     | Version:  2212                                  |
|   \\  /    A nd           | Website:  www.openfoam.com                      |
|    \\/     M anipulation  |                                                 |
\*---------------------------------------------------------------------------*/
FoamFile
{
    version     2.0;
    format      ascii;
    arch        "LSB;label=32;scalar=64";
    class       volScalarField;
    location    "51/fluidRegion";
    object      k;
}
// * * * * * * * * * * * * * * * * * * * * * * * * * * * * * * * * * * * * * //

dimensions      [0 2 -2 0 0 0 0];

internalField   nonuniform List<scalar> 
350
(
0.421093
0.421023
0.420953
0.420884
0.420814
0.420745
0.420676
0.420608
0.42054
0.420473
0.420406
0.420342
0.420282
0.420227
0.420181
0.420149
0.420138
0.420158
0.420226
0.420364
0.420611
0.421022
0.421687
0.422737
0.42438
0.421093
0.421023
0.420953
0.420884
0.420814
0.420745
0.420676
0.420608
0.42054
0.420473
0.420406
0.420342
0.420282
0.420227
0.420181
0.420149
0.420138
0.420158
0.420226
0.420364
0.420611
0.421022
0.421687
0.422738
0.42438
406.307
383.766
358.124
329.886
299.839
268.758
237.391
206.44
176.543
148.261
122.072
98.3562
77.3878
59.3226
44.1926
31.9055
22.2564
14.9522
9.64408
5.9628
3.54856
2.07213
1.24997
0.853306
0.713312
412.019
389.214
363.269
334.678
304.239
272.74
240.94
209.55
179.218
150.517
123.931
99.8489
78.5511
60.1991
44.8282
32.3468
22.5481
15.1343
9.7502
6.01957
3.57573
2.08332
1.25374
0.854333
0.713699
405.361
382.862
357.274
329.098
299.117
268.107
236.814
205.937
176.11
147.898
121.774
98.1177
77.2023
59.1831
44.0916
31.8353
22.2099
14.923
9.62689
5.9534
3.54385
2.06999
1.24909
0.852965
0.713179
410.765
388.016
362.134
333.618
303.263
271.855
240.149
208.856
178.619
150.011
123.513
99.5125
78.2883
60.0006
44.684
32.2465
22.4818
15.0928
9.72601
6.00664
3.56955
2.08079
1.2529
0.85412
0.713623
410.765
388.016
362.134
333.618
303.263
271.855
240.149
208.856
178.619
150.011
123.513
99.5125
78.2883
60.0006
44.684
32.2465
22.4818
15.0928
9.72601
6.00664
3.56955
2.08079
1.2529
0.854119
0.713623
405.362
382.863
357.275
329.098
299.118
268.108
236.815
205.937
176.111
147.898
121.774
98.1178
77.2024
59.1832
44.0916
31.8353
22.21
14.923
9.62689
5.95339
3.54385
2.06999
1.24909
0.852963
0.713178
412.019
389.214
363.269
334.678
304.239
272.74
240.94
209.55
179.218
150.517
123.931
99.8489
78.5511
60.1991
44.8282
32.3468
22.5481
15.1343
9.7502
6.01957
3.57573
2.08332
1.25374
0.854333
0.713698
406.307
383.766
358.124
329.886
299.839
268.758
237.391
206.44
176.543
148.261
122.072
98.3562
77.3878
59.3226
44.1926
31.9055
22.2564
14.9522
9.64408
5.9628
3.54857
2.07213
1.24997
0.853309
0.713314
410.765
388.016
362.134
333.618
303.263
271.855
240.149
208.856
178.619
150.011
123.513
99.5125
78.2883
60.0006
44.684
32.2465
22.4818
15.0928
9.72601
6.00664
3.56956
2.08079
1.2529
0.85412
0.713624
405.361
382.862
357.274
329.098
299.117
268.107
236.814
205.937
176.111
147.898
121.774
98.1177
77.2024
59.1832
44.0916
31.8353
22.21
14.923
9.62689
5.95339
3.54385
2.06999
1.24909
0.852961
0.713175
405.362
382.863
357.275
329.098
299.118
268.108
236.814
205.937
176.111
147.898
121.774
98.1177
77.2024
59.1832
44.0916
31.8353
22.2099
14.923
9.62689
5.95339
3.54385
2.06999
1.24909
0.852962
0.713177
410.765
388.016
362.134
333.618
303.263
271.855
240.149
208.856
178.619
150.011
123.513
99.5124
78.2883
60.0006
44.684
32.2465
22.4817
15.0928
9.72601
6.00663
3.56955
2.08079
1.25291
0.854123
0.713627
)
;

boundaryField
{
    outletCentralUnloaded
    {
        type            zeroGradient;
    }
    inletCentralUnloaded
    {
        type            zeroGradient;
    }
    outletFuelElement
    {
        type            zeroGradient;
    }
    inletFuelElement
    {
        type            zeroGradient;
    }
    defaultFaces
    {
        type            zeroGradient;
    }
    baffle_master
    {
        type            zeroGradient;
    }
    baffle_slave
    {
        type            zeroGradient;
    }
}


// ************************************************************************* //
