/*--------------------------------*- C++ -*----------------------------------*\
| =========                 |                                                 |
| \\      /  F ield         | OpenFOAM: The Open Source CFD Toolbox           |
|  \\    /   O peration     | Version:  2212                                  |
|   \\  /    A nd           | Website:  www.openfoam.com                      |
|    \\/     M anipulation  |                                                 |
\*---------------------------------------------------------------------------*/
FoamFile
{
    version     2.0;
    format      ascii;
    arch        "LSB;label=32;scalar=64";
    class       volScalarField;
    location    "51/fluidRegion";
    object      Re;
}
// * * * * * * * * * * * * * * * * * * * * * * * * * * * * * * * * * * * * * //

dimensions      [0 0 0 0 0 0 0];

internalField   nonuniform List<scalar> 
350
(
174040
174039
174036
174033
174030
174028
174026
174025
174024
174025
174026
174027
174028
174030
174032
174034
174035
174037
174037
174037
174037
174037
174036
174034
174394
174040
174039
174036
174033
174030
174028
174026
174025
174024
174025
174026
174027
174028
174030
174032
174034
174035
174037
174037
174037
174037
174037
174036
174034
174394
55424.4
55374.8
55376
55376.3
55375.2
55372.9
55369
55363.4
55355.9
55346.2
55334.3
55320.1
55303.7
55285
55263.7
55238.9
55208.7
55171.1
55125.5
55077.7
55047.1
55093.4
55360.5
56106
56595.1
54933.7
54876.4
54873.5
54869.6
54864.7
54858.7
54851.5
54842.8
54832.4
54820.2
54806.2
54790.7
54774.6
54758.7
54744
54730.3
54716.4
54700.6
54682.1
54667.2
54676.9
54774
55108.6
55944.4
56542.4
55506.5
55456.4
55458.1
55458.6
55457.9
55455.7
55452
55446.5
55439
55429.3
55417.3
55402.7
55385.6
55365.7
55342.7
55315.3
55281.6
55239.7
55188.7
55134.5
55096.1
55132.5
55387.3
56118.1
56597
55043.4
54988.3
54986.5
54983.8
54980
54975.1
54968.8
54961
54951.5
54940
54926.6
54911.6
54895.6
54879.3
54863.3
54847.2
54829.8
54809.2
54784.7
54762.4
54763.1
54848.7
55168.1
55983.3
56555.5
55043.4
54988.3
54986.5
54983.8
54980
54975.1
54968.8
54961
54951.5
54940
54926.6
54911.6
54895.6
54879.3
54863.3
54847.2
54829.8
54809.2
54784.7
54762.4
54763.1
54848.7
55168.1
55983.3
56555.5
55506.5
55456.4
55458.1
55458.6
55457.9
55455.7
55451.9
55446.4
55439
55429.3
55417.2
55402.7
55385.5
55365.7
55342.6
55315.2
55281.5
55239.6
55188.6
55134.4
55095.9
55132.4
55387.1
56118
56596.9
54933.7
54876.4
54873.5
54869.6
54864.7
54858.7
54851.5
54842.8
54832.4
54820.2
54806.2
54790.7
54774.6
54758.7
54744
54730.3
54716.4
54700.6
54682.1
54667.2
54676.9
54774
55108.6
55944.4
56542.4
55424.4
55374.8
55376
55376.3
55375.2
55372.9
55369
55363.4
55355.9
55346.3
55334.3
55320.1
55303.7
55285
55263.7
55238.9
55208.7
55171.1
55125.5
55077.7
55047.1
55093.4
55360.5
56106
56595.2
55043.4
54988.3
54986.5
54983.8
54980
54975.1
54968.8
54961
54951.5
54940
54926.6
54911.6
54895.6
54879.3
54863.3
54847.2
54829.8
54809.2
54784.7
54762.4
54763.1
54848.7
55168.1
55983.3
56555.5
55506.5
55456.4
55458.1
55458.6
55457.9
55455.7
55452
55446.5
55439
55429.3
55417.3
55402.7
55385.6
55365.7
55342.7
55315.3
55281.6
55239.7
55188.7
55134.5
55096
55132.5
55387.2
56118.1
56597
55506.5
55456.4
55458.1
55458.6
55457.9
55455.7
55451.9
55446.4
55439
55429.3
55417.2
55402.7
55385.5
55365.7
55342.6
55315.2
55281.5
55239.6
55188.6
55134.4
55096
55132.4
55387.1
56118
56596.9
55043.4
54988.3
54986.5
54983.8
54980
54975.1
54968.8
54961
54951.5
54940
54926.6
54911.6
54895.6
54879.3
54863.3
54847.2
54829.8
54809.2
54784.7
54762.4
54763.1
54848.7
55168.1
55983.3
56555.5
)
;

boundaryField
{
    outletCentralUnloaded
    {
        type            zeroGradient;
    }
    inletCentralUnloaded
    {
        type            zeroGradient;
    }
    outletFuelElement
    {
        type            zeroGradient;
    }
    inletFuelElement
    {
        type            zeroGradient;
    }
    defaultFaces
    {
        type            zeroGradient;
    }
    baffle_master
    {
        type            zeroGradient;
    }
    baffle_slave
    {
        type            zeroGradient;
    }
}


// ************************************************************************* //
