/*--------------------------------*- C++ -*----------------------------------*\
| =========                 |                                                 |
| \\      /  F ield         | OpenFOAM: The Open Source CFD Toolbox           |
|  \\    /   O peration     | Version:  2212                                  |
|   \\  /    A nd           | Website:  www.openfoam.com                      |
|    \\/     M anipulation  |                                                 |
\*---------------------------------------------------------------------------*/
FoamFile
{
    version     2.0;
    format      ascii;
    arch        "LSB;label=32;scalar=64";
    class       volScalarField;
    location    "51/fluidRegion";
    object      T;
}
// * * * * * * * * * * * * * * * * * * * * * * * * * * * * * * * * * * * * * //

dimensions      [0 0 0 1 0 0 0];

internalField   nonuniform List<scalar> 
350
(
83.2888
83.2893
83.2898
83.2903
83.2908
83.2913
83.2918
83.2922
83.2927
83.2932
83.2937
83.2941
83.2946
83.2951
83.2955
83.2959
83.2963
83.2968
83.2973
83.2978
83.2983
83.2988
83.2993
83.2998
83.3001
83.2888
83.2893
83.2898
83.2903
83.2908
83.2913
83.2918
83.2922
83.2927
83.2932
83.2937
83.2941
83.2946
83.2951
83.2955
83.2959
83.2963
83.2968
83.2973
83.2978
83.2983
83.2988
83.2993
83.2998
83.3001
1822.38
1816.28
1797.76
1767.06
1724.52
1670.62
1606
1531.39
1447.68
1355.88
1257.13
1152.77
1044.31
933.502
822.306
712.818
607.144
507.248
414.84
331.357
258.057
196.125
146.785
111.206
90.0889
1850.6
1844.71
1826.2
1795.28
1752.3
1697.76
1632.29
1556.64
1471.71
1378.52
1278.21
1172.13
1061.82
949.038
835.783
724.207
616.486
514.654
420.481
335.446
260.831
197.834
147.688
111.57
90.1663
1817.79
1811.68
1793.18
1762.53
1720.08
1666.3
1601.83
1527.41
1443.91
1352.34
1253.85
1149.77
1041.61
931.119
820.25
711.091
605.737
506.141
414.002
330.755
257.652
195.878
146.655
111.153
90.0766
1844.25
1838.31
1819.78
1788.89
1746
1691.59
1626.3
1550.89
1466.23
1373.34
1273.38
1167.69
1057.8
945.462
832.676
721.578
614.327
512.941
419.175
334.498
260.188
197.437
147.479
111.485
90.1485
1844.25
1838.31
1819.78
1788.89
1746
1691.59
1626.3
1550.89
1466.23
1373.34
1273.38
1167.69
1057.8
945.462
832.676
721.578
614.327
512.941
419.175
334.498
260.188
197.437
147.479
111.485
90.1485
1817.8
1811.68
1793.19
1762.54
1720.08
1666.3
1601.83
1527.41
1443.91
1352.34
1253.85
1149.77
1041.61
931.121
820.252
711.092
605.738
506.141
414.003
330.755
257.653
195.878
146.656
111.153
90.0766
1850.6
1844.71
1826.2
1795.28
1752.3
1697.76
1632.29
1556.64
1471.71
1378.52
1278.21
1172.13
1061.82
949.038
835.783
724.207
616.486
514.654
420.481
335.446
260.831
197.834
147.688
111.57
90.1663
1822.38
1816.28
1797.76
1767.06
1724.52
1670.62
1606
1531.39
1447.68
1355.88
1257.13
1152.77
1044.31
933.502
822.306
712.817
607.144
507.248
414.84
331.357
258.057
196.125
146.785
111.206
90.0889
1844.25
1838.31
1819.78
1788.89
1746
1691.59
1626.3
1550.89
1466.23
1373.34
1273.38
1167.69
1057.8
945.462
832.676
721.578
614.327
512.941
419.175
334.498
260.188
197.437
147.479
111.485
90.1485
1817.8
1811.68
1793.18
1762.53
1720.08
1666.3
1601.83
1527.41
1443.91
1352.34
1253.85
1149.77
1041.61
931.12
820.251
711.091
605.737
506.141
414.003
330.755
257.652
195.878
146.655
111.153
90.0766
1817.8
1811.68
1793.19
1762.54
1720.08
1666.3
1601.83
1527.41
1443.91
1352.34
1253.85
1149.77
1041.61
931.121
820.251
711.092
605.738
506.141
414.003
330.755
257.653
195.878
146.656
111.153
90.0766
1844.25
1838.31
1819.78
1788.89
1746
1691.59
1626.3
1550.89
1466.23
1373.34
1273.38
1167.69
1057.8
945.461
832.676
721.578
614.327
512.941
419.175
334.498
260.188
197.437
147.478
111.485
90.1485
)
;

boundaryField
{
    outletCentralUnloaded
    {
        type            zeroGradient;
    }
    inletCentralUnloaded
    {
        type            fixedValue;
        value           uniform 83.3;
    }
    outletFuelElement
    {
        type            zeroGradient;
    }
    inletFuelElement
    {
        type            fixedValue;
        value           uniform 83.3;
    }
    defaultFaces
    {
        type            zeroGradient;
    }
    baffle_master
    {
        type            zeroGradient;
    }
    baffle_slave
    {
        type            zeroGradient;
    }
}


// ************************************************************************* //
