/*--------------------------------*- C++ -*----------------------------------*\
| =========                 |                                                 |
| \\      /  F ield         | OpenFOAM: The Open Source CFD Toolbox           |
|  \\    /   O peration     | Version:  2212                                  |
|   \\  /    A nd           | Website:  www.openfoam.com                      |
|    \\/     M anipulation  |                                                 |
\*---------------------------------------------------------------------------*/
FoamFile
{
    version     2.0;
    format      ascii;
    arch        "LSB;label=32;scalar=64";
    class       volScalarField;
    location    "51/fluidRegion";
    object      T.fuelAvForNeutronics;
}
// * * * * * * * * * * * * * * * * * * * * * * * * * * * * * * * * * * * * * //

dimensions      [0 0 0 1 0 0 0];

internalField   nonuniform List<scalar> 
350
(
0
0
0
0
0
0
0
0
0
0
0
0
0
0
0
0
0
0
0
0
0
0
0
0
0
0
0
0
0
0
0
0
0
0
0
0
0
0
0
0
0
0
0
0
0
0
0
0
0
0
2216.35
3003.39
3759.74
4473.87
5134.84
5732.48
6257.59
6702.07
7059.03
7322.96
7489.75
7556.82
7523.17
7389.39
7157.65
6831.66
6416.46
5918.18
5343.58
4699.47
3991.55
3223.23
2394.17
1503.56
564.626
2248.95
3045.2
3810.31
4532.65
5201.12
5805.47
6336.38
6785.66
7146.36
7412.87
7581.08
7648.37
7613.73
7477.75
7242.65
6912.18
6491.49
5986.81
5405.03
4753.1
4036.8
3259.57
2420.99
1520.06
570.166
2211.06
2996.66
3751.64
4464.48
5124.27
5720.86
6245.06
6688.79
7045.18
7308.7
7475.27
7542.32
7508.84
7375.41
7144.21
6818.93
6404.6
5907.34
5333.88
4691.01
3984.42
3217.51
2389.97
1500.98
563.752
2241.6
3035.71
3798.79
4519.22
5185.95
5788.75
6318.31
6766.47
7126.29
7392.2
7560.07
7627.31
7592.89
7457.41
7223.08
6893.64
6474.2
5971
5390.88
4740.74
4026.37
3251.19
2414.81
1516.25
568.889
2241.6
3035.71
3798.79
4519.22
5185.95
5788.75
6318.31
6766.47
7126.29
7392.2
7560.07
7627.31
7592.88
7457.41
7223.08
6893.63
6474.2
5971
5390.88
4740.74
4026.37
3251.19
2414.81
1516.25
568.889
2211.06
2996.67
3751.64
4464.48
5124.27
5720.86
6245.06
6688.79
7045.18
7308.7
7475.27
7542.32
7508.84
7375.41
7144.21
6818.93
6404.6
5907.34
5333.88
4691.01
3984.42
3217.51
2389.97
1500.98
563.752
2248.95
3045.2
3810.32
4532.65
5201.12
5805.47
6336.38
6785.66
7146.36
7412.87
7581.08
7648.37
7613.73
7477.75
7242.65
6912.18
6491.49
5986.81
5405.03
4753.1
4036.8
3259.57
2420.99
1520.06
570.166
2216.35
3003.39
3759.75
4473.87
5134.84
5732.48
6257.59
6702.07
7059.03
7322.96
7489.74
7556.82
7523.17
7389.39
7157.65
6831.66
6416.46
5918.18
5343.58
4699.47
3991.55
3223.23
2394.18
1503.56
564.626
2241.6
3035.71
3798.79
4519.22
5185.95
5788.75
6318.31
6766.47
7126.29
7392.2
7560.07
7627.31
7592.88
7457.41
7223.08
6893.64
6474.2
5971
5390.88
4740.74
4026.37
3251.19
2414.81
1516.25
568.889
2211.06
2996.66
3751.64
4464.48
5124.26
5720.86
6245.06
6688.79
7045.18
7308.7
7475.27
7542.32
7508.84
7375.41
7144.21
6818.93
6404.6
5907.34
5333.88
4691.01
3984.42
3217.51
2389.97
1500.98
563.752
2211.06
2996.67
3751.64
4464.48
5124.27
5720.86
6245.06
6688.79
7045.18
7308.7
7475.27
7542.32
7508.84
7375.41
7144.21
6818.93
6404.6
5907.34
5333.88
4691.01
3984.42
3217.51
2389.97
1500.98
563.752
2241.6
3035.71
3798.79
4519.22
5185.95
5788.75
6318.31
6766.47
7126.29
7392.2
7560.07
7627.31
7592.88
7457.41
7223.08
6893.63
6474.2
5971
5390.88
4740.74
4026.37
3251.19
2414.81
1516.25
568.889
)
;

boundaryField
{
    outletCentralUnloaded
    {
        type            zeroGradient;
    }
    inletCentralUnloaded
    {
        type            zeroGradient;
    }
    outletFuelElement
    {
        type            zeroGradient;
    }
    inletFuelElement
    {
        type            zeroGradient;
    }
    defaultFaces
    {
        type            zeroGradient;
    }
    baffle_master
    {
        type            zeroGradient;
    }
    baffle_slave
    {
        type            zeroGradient;
    }
}


// ************************************************************************* //
