/*--------------------------------*- C++ -*----------------------------------*\
| =========                 |                                                 |
| \\      /  F ield         | OpenFOAM: The Open Source CFD Toolbox           |
|  \\    /   O peration     | Version:  2212                                  |
|   \\  /    A nd           | Website:  www.openfoam.com                      |
|    \\/     M anipulation  |                                                 |
\*---------------------------------------------------------------------------*/
FoamFile
{
    version     2.0;
    format      ascii;
    arch        "LSB;label=32;scalar=64";
    class       volScalarField;
    location    "51/fluidRegion";
    object      Tci.nuclearFuelPin;
}
// * * * * * * * * * * * * * * * * * * * * * * * * * * * * * * * * * * * * * //

dimensions      [0 0 0 1 0 0 0];

internalField   nonuniform List<scalar> 
350
(
0
0
0
0
0
0
0
0
0
0
0
0
0
0
0
0
0
0
0
0
0
0
0
0
0
0
0
0
0
0
0
0
0
0
0
0
0
0
0
0
0
0
0
0
0
0
0
0
0
0
1850.34
1900.64
1937.71
1961.36
1971.53
1968.32
1952.02
1923.03
1881.96
1829.54
1766.66
1694.38
1613.87
1526.46
1433.6
1336.79
1237.47
1136.8
1035.27
932.177
824.75
706.851
567.914
396.052
193.082
1878.82
1929.88
1967.47
1991.41
2001.64
1998.26
1981.54
1951.93
1910.02
1856.57
1792.48
1718.81
1636.76
1547.69
1453.05
1354.39
1253.2
1150.67
1047.38
942.659
833.729
714.377
573.821
399.875
194.373
1845.71
1895.91
1932.92
1956.54
1966.72
1963.56
1947.33
1918.46
1877.54
1825.29
1762.62
1690.56
1610.31
1523.17
1430.59
1334.07
1235.06
1134.67
1033.42
930.581
823.391
705.723
567.041
395.492
192.884
1872.41
1923.28
1960.74
1984.6
1994.8
1991.44
1974.81
1945.33
1903.6
1850.37
1786.55
1713.19
1631.5
1542.8
1448.57
1350.33
1249.56
1147.47
1044.58
940.235
831.653
712.635
572.453
398.988
194.075
1872.41
1923.28
1960.74
1984.6
1994.8
1991.44
1974.81
1945.33
1903.6
1850.37
1786.55
1713.19
1631.5
1542.8
1448.57
1350.33
1249.56
1147.47
1044.58
940.235
831.652
712.635
572.453
398.988
194.075
1845.71
1895.92
1932.92
1956.54
1966.72
1963.56
1947.34
1918.47
1877.54
1825.29
1762.62
1690.57
1610.31
1523.17
1430.59
1334.08
1235.06
1134.67
1033.42
930.582
823.392
705.724
567.041
395.492
192.885
1878.82
1929.88
1967.47
1991.41
2001.64
1998.26
1981.54
1951.93
1910.02
1856.57
1792.48
1718.81
1636.76
1547.69
1453.05
1354.39
1253.2
1150.67
1047.38
942.659
833.729
714.377
573.822
399.875
194.373
1850.34
1900.64
1937.71
1961.36
1971.53
1968.32
1952.02
1923.03
1881.96
1829.54
1766.66
1694.38
1613.87
1526.46
1433.6
1336.79
1237.47
1136.8
1035.27
932.177
824.75
706.851
567.914
396.052
193.082
1872.41
1923.28
1960.74
1984.6
1994.8
1991.44
1974.81
1945.33
1903.6
1850.37
1786.55
1713.19
1631.5
1542.8
1448.57
1350.33
1249.56
1147.47
1044.58
940.235
831.652
712.635
572.453
398.988
194.075
1845.71
1895.91
1932.92
1956.54
1966.72
1963.56
1947.33
1918.46
1877.54
1825.29
1762.62
1690.56
1610.31
1523.17
1430.59
1334.07
1235.06
1134.67
1033.42
930.581
823.391
705.723
567.041
395.492
192.884
1845.71
1895.92
1932.92
1956.54
1966.72
1963.56
1947.34
1918.47
1877.54
1825.29
1762.62
1690.57
1610.31
1523.17
1430.59
1334.08
1235.06
1134.67
1033.42
930.582
823.391
705.724
567.041
395.492
192.885
1872.41
1923.28
1960.74
1984.6
1994.8
1991.44
1974.81
1945.33
1903.6
1850.37
1786.55
1713.19
1631.5
1542.8
1448.57
1350.33
1249.56
1147.47
1044.58
940.235
831.652
712.635
572.453
398.988
194.075
)
;

boundaryField
{
    outletCentralUnloaded
    {
        type            zeroGradient;
    }
    inletCentralUnloaded
    {
        type            zeroGradient;
    }
    outletFuelElement
    {
        type            zeroGradient;
    }
    inletFuelElement
    {
        type            zeroGradient;
    }
    defaultFaces
    {
        type            zeroGradient;
    }
    baffle_master
    {
        type            zeroGradient;
    }
    baffle_slave
    {
        type            zeroGradient;
    }
}


// ************************************************************************* //
