/*--------------------------------*- C++ -*----------------------------------*\
| =========                 |                                                 |
| \\      /  F ield         | OpenFOAM: The Open Source CFD Toolbox           |
|  \\    /   O peration     | Version:  2212                                  |
|   \\  /    A nd           | Website:  www.openfoam.com                      |
|    \\/     M anipulation  |                                                 |
\*---------------------------------------------------------------------------*/
FoamFile
{
    version     2.0;
    format      ascii;
    arch        "LSB;label=32;scalar=64";
    class       volScalarField;
    location    "51/fluidRegion";
    object      Tco.nuclearFuelPin;
}
// * * * * * * * * * * * * * * * * * * * * * * * * * * * * * * * * * * * * * //

dimensions      [0 0 0 1 0 0 0];

internalField   nonuniform List<scalar> 
350
(
0
0
0
0
0
0
0
0
0
0
0
0
0
0
0
0
0
0
0
0
0
0
0
0
0
0
0
0
0
0
0
0
0
0
0
0
0
0
0
0
0
0
0
0
0
0
0
0
0
0
1838.68
1865.53
1879.71
1881.37
1870.83
1848.5
1814.96
1770.9
1717.16
1654.67
1584.48
1507.76
1425.76
1339.83
1251.39
1161.87
1072.61
984.598
898.126
812.257
723.944
626.749
509.78
360.798
181.256
1867.03
1894.37
1908.8
1910.51
1899.78
1877.06
1842.91
1798.06
1743.33
1679.69
1608.21
1530.06
1446.5
1358.92
1268.76
1177.47
1086.45
996.729
908.668
821.364
731.769
633.358
515.022
364.218
182.412
1834.07
1860.87
1875.02
1876.7
1866.2
1843.95
1810.52
1766.61
1713.04
1650.74
1580.77
1504.29
1422.54
1336.88
1248.71
1159.48
1070.5
982.749
896.524
810.879
722.769
625.767
509.013
360.302
181.08
1860.65
1887.86
1902.23
1903.91
1893.21
1870.56
1836.54
1791.86
1737.35
1673.96
1602.77
1524.93
1441.73
1354.52
1264.75
1173.87
1083.25
993.924
906.229
819.257
729.958
631.827
513.807
363.424
182.145
1860.65
1887.86
1902.23
1903.91
1893.21
1870.56
1836.54
1791.86
1737.35
1673.96
1602.77
1524.93
1441.73
1354.52
1264.75
1173.87
1083.25
993.924
906.229
819.257
729.958
631.827
513.807
363.424
182.145
1834.07
1860.87
1875.02
1876.7
1866.2
1843.96
1810.53
1766.61
1713.04
1650.74
1580.77
1504.29
1422.54
1336.88
1248.71
1159.48
1070.5
982.749
896.525
810.88
722.769
625.768
509.014
360.303
181.08
1867.03
1894.37
1908.8
1910.51
1899.78
1877.06
1842.91
1798.06
1743.33
1679.69
1608.21
1530.06
1446.5
1358.92
1268.76
1177.47
1086.45
996.729
908.668
821.364
731.769
633.358
515.022
364.218
182.412
1838.68
1865.53
1879.71
1881.37
1870.83
1848.5
1814.96
1770.9
1717.16
1654.67
1584.48
1507.76
1425.76
1339.83
1251.39
1161.87
1072.61
984.597
898.126
812.257
723.944
626.749
509.78
360.798
181.256
1860.65
1887.86
1902.23
1903.91
1893.21
1870.56
1836.54
1791.86
1737.35
1673.96
1602.77
1524.93
1441.73
1354.52
1264.75
1173.87
1083.25
993.924
906.229
819.257
729.958
631.827
513.807
363.424
182.145
1834.07
1860.87
1875.02
1876.7
1866.2
1843.95
1810.52
1766.61
1713.04
1650.74
1580.77
1504.29
1422.54
1336.88
1248.71
1159.48
1070.5
982.749
896.524
810.879
722.769
625.767
509.013
360.302
181.08
1834.07
1860.87
1875.02
1876.7
1866.2
1843.96
1810.53
1766.61
1713.04
1650.74
1580.77
1504.29
1422.54
1336.88
1248.71
1159.48
1070.5
982.749
896.525
810.88
722.769
625.768
509.014
360.303
181.08
1860.65
1887.86
1902.23
1903.91
1893.21
1870.56
1836.54
1791.86
1737.35
1673.96
1602.77
1524.93
1441.73
1354.52
1264.75
1173.87
1083.25
993.924
906.229
819.257
729.958
631.827
513.807
363.424
182.145
)
;

boundaryField
{
    outletCentralUnloaded
    {
        type            zeroGradient;
    }
    inletCentralUnloaded
    {
        type            zeroGradient;
    }
    outletFuelElement
    {
        type            zeroGradient;
    }
    inletFuelElement
    {
        type            zeroGradient;
    }
    defaultFaces
    {
        type            zeroGradient;
    }
    baffle_master
    {
        type            zeroGradient;
    }
    baffle_slave
    {
        type            zeroGradient;
    }
}


// ************************************************************************* //
