/*--------------------------------*- C++ -*----------------------------------*\
| =========                 |                                                 |
| \\      /  F ield         | OpenFOAM: The Open Source CFD Toolbox           |
|  \\    /   O peration     | Version:  2212                                  |
|   \\  /    A nd           | Website:  www.openfoam.com                      |
|    \\/     M anipulation  |                                                 |
\*---------------------------------------------------------------------------*/
FoamFile
{
    version     2.0;
    format      ascii;
    arch        "LSB;label=32;scalar=64";
    class       volScalarField;
    location    "51/fluidRegion";
    object      Tfi.nuclearFuelPin;
}
// * * * * * * * * * * * * * * * * * * * * * * * * * * * * * * * * * * * * * //

dimensions      [0 0 0 1 0 0 0];

internalField   nonuniform List<scalar> 
350
(
0
0
0
0
0
0
0
0
0
0
0
0
0
0
0
0
0
0
0
0
0
0
0
0
0
0
0
0
0
0
0
0
0
0
0
0
0
0
0
0
0
0
0
0
0
0
0
0
0
0
2415.1
3603.45
4751.6
5841.84
6857.3
7782.23
8602.27
9304.66
9878.46
10314.7
10606.6
10749.6
10741.5
10582.5
10275.2
9824.38
9237.16
8522.34
7690.09
6751.32
5716.34
4593.76
3388.84
2106.77
767.043
2449.94
3652.09
4813.49
5916.24
6943.28
7878.67
8707.89
9418.04
9998.05
10438.9
10733.6
10877.7
10868.9
10707.5
10395.9
9939.17
9344.48
8620.79
7778.41
6828.44
5781.34
4645.79
3427.04
2130.18
774.896
2409.46
3595.63
4741.69
5829.96
6843.59
7766.88
8585.47
9286.64
9859.47
10295
10586.5
10729.3
10721.3
10562.7
10256.1
9806.2
9220.15
8506.75
7676.1
6739.11
5706.06
4585.54
3382.82
2103.09
765.801
2442.07
3641.03
4799.36
5899.22
6923.58
7856.55
8683.64
9391.99
9970.56
10410.3
10704.4
10848.3
10839.6
10678.7
10368.1
9912.74
9319.76
8598.11
7758.07
6810.67
5766.36
4633.8
3418.24
2124.78
773.087
2442.07
3641.03
4799.37
5899.22
6923.58
7856.55
8683.64
9391.99
9970.56
10410.3
10704.4
10848.3
10839.6
10678.7
10368.1
9912.74
9319.76
8598.11
7758.07
6810.67
5766.36
4633.8
3418.24
2124.78
773.087
2409.46
3595.64
4741.7
5829.96
6843.59
7766.88
8585.47
9286.64
9859.47
10295
10586.5
10729.3
10721.3
10562.7
10256.1
9806.2
9220.15
8506.75
7676.1
6739.11
5706.06
4585.54
3382.82
2103.09
765.801
2449.94
3652.09
4813.49
5916.24
6943.28
7878.67
8707.89
9418.04
9998.05
10438.9
10733.6
10877.7
10868.9
10707.5
10395.9
9939.17
9344.48
8620.79
7778.41
6828.44
5781.33
4645.79
3427.04
2130.18
774.896
2415.1
3603.45
4751.6
5841.84
6857.3
7782.23
8602.27
9304.66
9878.46
10314.7
10606.6
10749.6
10741.5
10582.5
10275.2
9824.38
9237.16
8522.34
7690.09
6751.32
5716.34
4593.76
3388.84
2106.77
767.043
2442.07
3641.03
4799.37
5899.22
6923.58
7856.55
8683.64
9391.99
9970.56
10410.3
10704.4
10848.3
10839.6
10678.7
10368.1
9912.74
9319.76
8598.11
7758.07
6810.67
5766.36
4633.8
3418.24
2124.78
773.087
2409.46
3595.63
4741.69
5829.96
6843.59
7766.88
8585.47
9286.64
9859.47
10295
10586.5
10729.3
10721.3
10562.7
10256.1
9806.2
9220.15
8506.75
7676.1
6739.11
5706.06
4585.54
3382.82
2103.09
765.801
2409.46
3595.64
4741.69
5829.96
6843.59
7766.88
8585.47
9286.64
9859.47
10295
10586.5
10729.3
10721.3
10562.7
10256.1
9806.2
9220.15
8506.75
7676.1
6739.11
5706.06
4585.54
3382.82
2103.09
765.801
2442.07
3641.03
4799.37
5899.22
6923.58
7856.55
8683.64
9391.99
9970.56
10410.3
10704.4
10848.3
10839.6
10678.7
10368.1
9912.74
9319.76
8598.11
7758.07
6810.67
5766.36
4633.8
3418.24
2124.78
773.087
)
;

boundaryField
{
    outletCentralUnloaded
    {
        type            zeroGradient;
    }
    inletCentralUnloaded
    {
        type            zeroGradient;
    }
    outletFuelElement
    {
        type            zeroGradient;
    }
    inletFuelElement
    {
        type            zeroGradient;
    }
    defaultFaces
    {
        type            zeroGradient;
    }
    baffle_master
    {
        type            zeroGradient;
    }
    baffle_slave
    {
        type            zeroGradient;
    }
}


// ************************************************************************* //
