/*--------------------------------*- C++ -*----------------------------------*\
| =========                 |                                                 |
| \\      /  F ield         | OpenFOAM: The Open Source CFD Toolbox           |
|  \\    /   O peration     | Version:  2212                                  |
|   \\  /    A nd           | Website:  www.openfoam.com                      |
|    \\/     M anipulation  |                                                 |
\*---------------------------------------------------------------------------*/
FoamFile
{
    version     2.0;
    format      ascii;
    arch        "LSB;label=32;scalar=64";
    class       volScalarField;
    location    "52/neutroRegion";
    object      TFuel;
}
// * * * * * * * * * * * * * * * * * * * * * * * * * * * * * * * * * * * * * //

dimensions      [0 0 0 1 0 0 0];

internalField   nonuniform List<scalar> 
350
(
0
0
0
0
0
0
0
0
0
0
0
0
0
0
0
0
0
0
0
0
0
0
0
0
0
0
0
0
0
0
0
0
0
0
0
0
0
0
0
0
0
0
0
0
0
0
0
0
0
0
2217.36
3004.42
3760.78
4474.91
5135.88
5733.52
6258.62
6703.08
7060.03
7323.93
7490.68
7557.72
7524.03
7390.2
7158.4
6832.35
6417.09
5918.75
5344.09
4699.94
3991.9
3223.48
2394.41
1503.74
564.622
2249.99
3046.25
3811.37
4533.71
5202.19
5806.53
6337.44
6786.7
7147.37
7413.86
7582.03
7649.28
7614.6
7478.57
7243.41
6912.89
6492.13
5987.39
5405.55
4753.57
4037.15
3259.82
2421.23
1520.25
570.163
2212.07
2997.69
3752.67
4465.52
5125.3
5721.89
6246.09
6689.8
7046.17
7309.67
7476.2
7543.22
7509.69
7376.21
7144.96
6819.62
6405.23
5907.91
5334.38
4691.47
3984.77
3217.76
2390.2
1501.16
563.748
2242.63
3036.75
3799.85
4520.28
5187.01
5789.8
6319.36
6767.5
7127.3
7393.19
7561.02
7628.22
7593.75
7458.22
7223.84
6894.34
6474.84
5971.58
5391.39
4741.21
4026.73
3251.45
2415.04
1516.44
568.886
2242.63
3036.75
3799.85
4520.28
5187.01
5789.8
6319.36
6767.5
7127.3
7393.19
7561.02
7628.22
7593.75
7458.22
7223.84
6894.34
6474.84
5971.58
5391.39
4741.21
4026.73
3251.45
2415.05
1516.44
568.886
2212.08
2997.69
3752.67
4465.52
5125.3
5721.89
6246.09
6689.8
7046.17
7309.67
7476.21
7543.22
7509.69
7376.21
7144.96
6819.62
6405.23
5907.91
5334.38
4691.47
3984.77
3217.76
2390.2
1501.16
563.748
2249.99
3046.25
3811.38
4533.71
5202.19
5806.53
6337.44
6786.7
7147.37
7413.86
7582.03
7649.28
7614.6
7478.57
7243.41
6912.89
6492.13
5987.39
5405.55
4753.57
4037.15
3259.82
2421.23
1520.25
570.163
2217.36
3004.42
3760.78
4474.91
5135.88
5733.52
6258.62
6703.08
7060.03
7323.93
7490.68
7557.72
7524.02
7390.19
7158.4
6832.35
6417.09
5918.75
5344.09
4699.94
3991.9
3223.48
2394.41
1503.74
564.622
2242.63
3036.75
3799.85
4520.28
5187.01
5789.8
6319.36
6767.5
7127.3
7393.19
7561.02
7628.22
7593.75
7458.22
7223.84
6894.34
6474.84
5971.58
5391.39
4741.21
4026.73
3251.45
2415.05
1516.44
568.886
2212.07
2997.69
3752.67
4465.52
5125.3
5721.89
6246.09
6689.8
7046.17
7309.67
7476.2
7543.22
7509.69
7376.21
7144.96
6819.62
6405.23
5907.9
5334.38
4691.47
3984.77
3217.76
2390.2
1501.16
563.748
2212.08
2997.69
3752.67
4465.52
5125.3
5721.89
6246.09
6689.8
7046.17
7309.67
7476.21
7543.22
7509.69
7376.21
7144.96
6819.62
6405.23
5907.91
5334.38
4691.47
3984.77
3217.76
2390.2
1501.16
563.748
2242.63
3036.75
3799.85
4520.28
5187.01
5789.8
6319.36
6767.5
7127.3
7393.19
7561.02
7628.22
7593.75
7458.22
7223.84
6894.34
6474.84
5971.58
5391.39
4741.21
4026.73
3251.45
2415.05
1516.44
568.886
)
;

boundaryField
{
    outletCentralUnloaded
    {
        type            zeroGradient;
    }
    inletCentralUnloaded
    {
        type            zeroGradient;
    }
    outletFuelElement
    {
        type            zeroGradient;
    }
    inletFuelElement
    {
        type            zeroGradient;
    }
    defaultFaces
    {
        type            zeroGradient;
    }
}


// ************************************************************************* //
