/*--------------------------------*- C++ -*----------------------------------*\
| =========                 |                                                 |
| \\      /  F ield         | OpenFOAM: The Open Source CFD Toolbox           |
|  \\    /   O peration     | Version:  2212                                  |
|   \\  /    A nd           | Website:  www.openfoam.com                      |
|    \\/     M anipulation  |                                                 |
\*---------------------------------------------------------------------------*/
FoamFile
{
    version     2.0;
    format      ascii;
    arch        "LSB;label=32;scalar=64";
    class       surfaceScalarField;
    location    "18/fluidRegion";
    object      alphaRhoPhi;
}
// * * * * * * * * * * * * * * * * * * * * * * * * * * * * * * * * * * * * * //

dimensions      [1 0 -1 0 0 0 0];

oriented        oriented;

internalField   nonuniform List<scalar> 
661
(
-0.00584307
-1.15743e-14
-0.00584307
-9.4191e-15
-0.00584307
-1.16093e-14
-0.00584307
-1.08082e-14
-0.00584307
-1.1409e-14
-0.00584307
-9.40612e-15
-0.00584307
-6.90483e-15
-0.00584307
-1.16895e-14
-0.00584307
-1.20515e-14
-0.00584307
-8.24599e-15
-0.00584307
-1.12059e-14
-0.00584307
-8.62254e-15
-0.00584307
-7.57011e-15
-0.00584307
-1.06504e-14
-0.00584307
-7.80161e-15
-0.00584307
-5.95767e-15
-0.00584307
-6.34395e-15
-0.00584307
-3.23503e-15
-0.00584307
-5.85581e-15
-0.00584307
-6.14058e-15
-0.00584307
-5.67194e-15
-0.00584307
-7.27118e-15
-0.00584307
-7.75581e-15
-0.00584307
1.18133e-14
1.05195e-13
-0.00584307
-0.00584307
-0.00584307
-0.00584307
-0.00584307
-0.00584307
-0.00584307
-0.00584307
-0.00584307
-0.00584307
-0.00584307
-0.00584307
-0.00584307
-0.00584307
-0.00584307
-0.00584307
-0.00584307
-0.00584307
-0.00584307
-0.00584307
-0.00584307
-0.00584307
-0.00584307
-0.00584307
-0.00898544
5.15817e-07
-0.00898572
3.70787e-07
-0.00898606
4.2446e-07
-0.00898636
3.8661e-07
-0.00898665
3.54977e-07
-0.0089869
3.23263e-07
-0.00898713
2.89511e-07
-0.00898733
2.49602e-07
-0.0089875
1.9809e-07
-0.00898761
1.27295e-07
-0.00898764
2.77501e-08
-0.00898756
-1.07245e-07
-0.00898734
-2.82014e-07
-0.00898693
-4.96542e-07
-0.0089863
-7.42398e-07
-0.00898543
-1.0083e-06
-0.00898431
-1.2858e-06
-0.0089829
-1.5784e-06
-0.00898118
-1.90651e-06
-0.00897907
-2.30837e-06
-0.00897645
-2.83237e-06
-0.00897317
-3.5017e-06
-0.00896914
-4.25322e-06
-0.00896465
-4.71601e-06
-5.08136e-06
-0.00891215
-4.16886e-08
-4.16047e-08
-0.00891159
-1.13812e-07
-1.15677e-07
-0.00891099
-1.04423e-07
-1.04795e-07
-0.00891046
-9.25061e-08
-9.18977e-08
-0.00890997
-8.2205e-08
-8.05477e-08
-0.00890954
-7.19072e-08
-6.9926e-08
-0.00890916
-6.08654e-08
-5.86227e-08
-0.00890884
-4.81139e-08
-4.59061e-08
-0.00890861
-3.18143e-08
-2.95398e-08
-0.00890848
-9.63661e-09
-7.48919e-09
-0.00890851
2.05319e-08
2.26725e-08
-0.00890875
6.23558e-08
6.43104e-08
-0.00890927
1.18129e-07
1.20015e-07
-0.00891013
1.87422e-07
1.89002e-07
-0.00891139
2.68807e-07
2.7007e-07
-0.0089131
3.58859e-07
3.5956e-07
-0.00891527
4.55489e-07
4.55531e-07
-0.00891795
5.59935e-07
5.59014e-07
-0.0089212
6.79636e-07
6.77459e-07
-0.00892514
8.27378e-07
8.23489e-07
-0.00893
1.0188e-06
1.01301e-06
-0.00893601
1.25504e-06
1.24654e-06
-0.00894326
1.49023e-06
1.47786e-06
-0.008951
1.50407e-06
1.48641e-06
1.42106e-06
1.40021e-06
-0.00899754
3.26856e-07
-0.00899798
4.02569e-07
-0.00899841
3.92962e-07
-0.00899879
3.54149e-07
-0.00899914
3.18628e-07
-0.00899945
2.833e-07
-0.00899972
2.45062e-07
-0.00899994
1.99786e-07
-0.00900009
1.40868e-07
-0.00900017
6.03422e-08
-0.00900012
-5.12446e-08
-0.00899991
-2.01481e-07
-0.00899947
-3.95542e-07
-0.00899876
-6.31749e-07
-0.00899772
-9.01411e-07
-0.00899633
-1.19223e-06
-0.00899455
-1.49659e-06
-0.00899235
-1.81924e-06
-0.00898969
-2.18413e-06
-0.00898643
-2.63211e-06
-0.00898242
-3.21131e-06
-0.00897745
-3.93387e-06
-0.0089715
-4.66933e-06
-0.00896528
-4.91655e-06
-4.77073e-06
-0.00892859
8.63694e-10
-0.00892823
-2.21181e-10
-0.00892788
6.47874e-11
-0.00892757
2.34965e-11
-0.00892729
5.53203e-11
-0.00892705
6.69355e-11
-0.00892683
5.12863e-11
-0.00892666
7.76138e-11
-0.00892655
9.11748e-11
-0.0089265
8.20801e-11
-0.00892656
1.22028e-10
-0.00892675
1.67531e-10
-0.00892713
2.41595e-10
-0.00892773
3.03062e-10
-0.00892859
3.16718e-10
-0.00892973
3.00259e-10
-0.00893118
3.0365e-10
-0.00893294
4.46786e-10
-0.00893507
5.26616e-10
-0.00893765
6.56482e-10
-0.00894082
8.736e-10
-0.00894473
6.27447e-10
-0.0089494
-7.95346e-11
-0.00895435
-1.14712e-09
-3.42868e-09
-0.0089286
-3.25073e-07
-0.00892824
-4.03044e-07
-0.0089279
-3.92749e-07
-0.00892758
-3.54031e-07
-0.0089273
-3.18469e-07
-0.00892706
-2.83152e-07
-0.00892684
-2.4493e-07
-0.00892667
-1.99611e-07
-0.00892656
-1.40666e-07
-0.00892651
-6.01367e-08
-0.00892657
5.15434e-08
-0.00892677
2.01863e-07
-0.00892714
3.96065e-07
-0.00892774
6.32382e-07
-0.0089286
9.02065e-07
-0.00892974
1.19288e-06
-0.00893119
1.49728e-06
-0.00893295
1.82017e-06
-0.00893508
2.18521e-06
-0.00893766
2.63343e-06
-0.00894083
3.21295e-06
-0.00894474
3.93518e-06
-0.00894941
4.6693e-06
-0.00895436
4.9143e-06
4.76409e-06
-0.00899754
4.00199e-08
-0.00899798
1.13317e-07
-0.00899841
1.04122e-07
-0.0089988
9.25906e-08
-0.00899914
8.28421e-08
-0.00899945
7.25093e-08
-0.00899972
6.17009e-08
-0.00899994
4.87532e-08
-0.0090001
3.26013e-08
-0.00900017
1.01495e-08
-0.00900012
-1.99024e-08
-0.00899991
-6.20061e-08
-0.00899947
-1.17678e-07
-0.00899876
-1.87274e-07
-0.00899772
-2.6873e-07
-0.00899632
-3.5925e-07
-0.00899454
-4.56107e-07
-0.00899235
-5.61106e-07
-0.00898968
-6.81298e-07
-0.00898642
-8.30034e-07
-0.00898241
-1.02229e-06
-0.00897744
-1.25992e-06
-0.00897149
-1.49627e-06
-0.00896527
-1.51031e-06
-1.42541e-06
-0.00891215
-5.1684e-07
-4.25374e-08
-0.00891159
-3.71991e-07
-1.1505e-07
-0.00891099
-4.24414e-07
-1.04941e-07
-0.00891046
-3.8593e-07
-9.21334e-08
-0.00890997
-3.53447e-07
-8.10219e-08
-0.00890954
-3.21814e-07
-7.03867e-08
-0.00890916
-2.87732e-07
-5.91526e-08
-0.00890884
-2.48117e-07
-4.64056e-08
-0.00890861
-1.96396e-07
-3.0098e-08
-0.00890848
-1.25969e-07
-7.97393e-09
-0.00890851
-2.62314e-08
2.20702e-08
-0.00890875
1.0836e-07
6.37755e-08
-0.00890927
2.83263e-07
1.19367e-07
-0.00891013
4.97331e-07
1.88389e-07
-0.00891139
7.43062e-07
2.69475e-07
-0.0089131
1.00826e-06
3.59114e-07
-0.00891527
1.28542e-06
4.55167e-07
-0.00891795
1.57717e-06
5.58712e-07
-0.0089212
1.90459e-06
6.77264e-07
-0.00892514
2.3051e-06
8.23496e-07
-0.00893
2.82799e-06
1.01312e-06
-0.00893601
3.49533e-06
1.24729e-06
-0.00894326
4.24472e-06
1.47988e-06
-0.008951
4.70542e-06
1.49013e-06
5.07e-06
1.40694e-06
-0.00898544
-0.00898572
-0.00898606
-0.00898636
-0.00898665
-0.0089869
-0.00898713
-0.00898733
-0.0089875
-0.00898761
-0.00898764
-0.00898756
-0.00898734
-0.00898693
-0.0089863
-0.00898543
-0.00898431
-0.0089829
-0.00898118
-0.00897907
-0.00897645
-0.00897317
-0.00896914
-0.00896465
-0.00892859
-3.2702e-07
9.15486e-10
-0.00892823
-4.02577e-07
-3.54974e-10
-0.00892788
-3.92788e-07
1.04274e-10
-0.00892757
-3.53943e-07
3.08828e-11
-0.00892729
-3.18292e-07
5.56876e-11
-0.00892705
-2.83071e-07
-3.33138e-12
-0.00892683
-2.44772e-07
4.91987e-11
-0.00892666
-1.99614e-07
2.48309e-11
-0.00892655
-1.40625e-07
7.53036e-11
-0.0089265
-6.02603e-08
9.54595e-11
-0.00892656
5.13776e-08
2.00302e-10
-0.00892675
2.01519e-07
1.70046e-10
-0.00892713
3.95676e-07
2.30112e-10
-0.00892773
6.31751e-07
2.2798e-10
-0.00892859
9.01371e-07
3.53637e-10
-0.00892973
1.19191e-06
4.35793e-10
-0.00893118
1.49619e-06
5.90812e-10
-0.00893294
1.81869e-06
5.84764e-10
-0.00893507
2.18351e-06
7.62629e-10
-0.00893765
2.63128e-06
9.04166e-10
-0.00894082
3.21041e-06
1.07366e-09
-0.00894473
3.93236e-06
1.36538e-09
-0.0089494
4.6673e-06
1.47368e-09
-0.00895435
4.9147e-06
4.05778e-10
4.76936e-06
-1.94845e-09
-0.00899754
-0.00899798
-0.00899841
-0.00899879
-0.00899914
-0.00899945
-0.00899972
-0.00899994
-0.00900009
-0.00900017
-0.00900012
-0.00899991
-0.00899947
-0.00899876
-0.00899772
-0.00899633
-0.00899455
-0.00899235
-0.00898969
-0.00898643
-0.00898242
-0.00897745
-0.0089715
-0.00896528
-0.00899754
3.23824e-07
-0.00899798
4.01437e-07
-0.00899841
3.92514e-07
-0.0089988
3.54605e-07
-0.00899914
3.20237e-07
-0.00899945
2.84864e-07
-0.00899972
2.47111e-07
-0.00899994
2.0142e-07
-0.0090001
1.42792e-07
-0.00900017
6.174e-08
-0.00900012
-4.96328e-08
-0.00899991
-2.0047e-07
-0.00899947
-3.9444e-07
-0.00899876
-6.31367e-07
-0.00899772
-9.01164e-07
-0.00899632
-1.19296e-06
-0.00899454
-1.4978e-06
-0.00899235
-1.82186e-06
-0.00898968
-2.18787e-06
-0.00898643
-2.63807e-06
-0.00898241
-3.2192e-06
-0.00897744
-3.94461e-06
-0.00897149
-4.68221e-06
-0.00896527
-4.93095e-06
-4.78112e-06
-0.0089286
-0.00892824
-0.0089279
-0.00892758
-0.0089273
-0.00892706
-0.00892685
-0.00892667
-0.00892656
-0.00892651
-0.00892657
-0.00892677
-0.00892714
-0.00892774
-0.0089286
-0.00892974
-0.00893119
-0.00893295
-0.00893508
-0.00893766
-0.00894083
-0.00894474
-0.00894941
-0.00895436
)
;

boundaryField
{
    outletCentralUnloaded
    {
        type            calculated;
        value           nonuniform List<scalar> 2(0.00584307 0.00584307);
    }
    inletCentralUnloaded
    {
        type            calculated;
        value           nonuniform List<scalar> 2(-0.00587366 -0.00587366);
    }
    outletFuelElement
    {
        type            calculated;
        value           nonuniform List<scalar> 
12
(
0.00898501
0.00891272
0.00899724
0.00892887
0.00892888
0.00899725
0.00891272
0.00898501
0.00892887
0.00899724
0.00899725
0.00892888
)
;
    }
    inletFuelElement
    {
        type            calculated;
        value           nonuniform List<scalar> 
12
(
-0.00916765
-0.00916766
-0.00916765
-0.00916765
-0.00916766
-0.00916765
-0.00916766
-0.00916765
-0.00916765
-0.00916765
-0.00916765
-0.00916766
)
;
    }
    defaultFaces
    {
        type            calculated;
        value           nonuniform List<scalar> 
450
(
1.48793e-23
-3.58668e-24
0
1.23902e-23
-1.06799e-24
0
2.29893e-23
-8.94637e-26
0
-3.09493e-23
-7.75464e-24
0
-9.66979e-24
-1.8609e-23
0
-2.44513e-23
-6.08694e-24
0
-2.19321e-23
-9.5334e-24
0
-1.55294e-23
-3.94646e-24
0
-8.75999e-24
-1.97287e-24
0
-8.93701e-24
-2.73403e-24
0
-2.03634e-24
-1.02933e-24
0
8.10442e-24
4.00667e-24
0
1.69841e-23
1.05095e-23
0
3.12147e-23
1.67699e-23
0
5.24118e-23
7.93069e-25
0
6.36436e-23
2.27133e-23
0
6.23078e-23
-4.87419e-23
0
8.06171e-23
4.4808e-23
0
7.03115e-23
-9.36106e-23
0
-4.27934e-23
-1.06769e-22
0
-7.09357e-23
-3.70103e-23
0
1.68806e-22
-7.08607e-23
0
-9.56501e-23
1.15779e-22
0
-1.95063e-22
-1.452e-22
0
-2.13725e-22
-1.04877e-22
0
1.13709e-23
0
1.37821e-23
0
4.67354e-24
0
1.43654e-23
0
-4.94156e-24
0
7.70542e-24
0
5.38043e-24
0
5.67987e-24
0
-1.51145e-24
0
2.02884e-24
0
-8.79748e-25
0
-5.7809e-24
0
-1.70708e-23
0
-2.86976e-23
0
-4.34452e-23
0
-1.25082e-23
0
5.85179e-23
0
-3.48087e-23
0
2.10989e-23
0
-7.83386e-23
0
-1.98243e-22
0
1.70852e-22
0
1.12118e-22
0
-2.198e-22
0
-1.82795e-22
0
-4.48915e-24
-9.06676e-24
9.22215e-24
-4.72375e-24
4.87409e-24
0
-5.30572e-24
-5.60048e-24
2.98045e-24
-1.60021e-24
8.67359e-25
3.79988e-24
0
1.88701e-23
1.07163e-23
0
-2.88988e-23
0
-8.34931e-23
0
0
-2.54571e-22
-1.67382e-22
0
0
0
0
0
0
0
0
0
0
0
0
0
0
0
0
0
0
0
0
0
0
0
0
0
0
0
-1.13709e-23
9.09672e-24
9.18803e-24
1.3782e-23
1.86941e-23
2.80412e-23
-9.57693e-24
-9.57693e-24
1.23539e-23
-9.88311e-24
-7.70542e-24
-5.13695e-24
-5.38043e-24
-8.07064e-24
-7.09983e-24
-5.67986e-24
9.0687e-24
-4.53435e-24
-1.62307e-24
-8.11535e-25
2.63924e-24
1.31962e-24
5.78089e-24
1.92696e-24
1.28031e-23
1.28031e-23
9.56585e-24
1.91317e-23
3.25838e-23
3.25838e-23
2.50163e-23
3.75244e-23
-4.38884e-23
8.77768e-23
5.2213e-23
5.2213e-23
-1.26593e-22
1.26593e-22
-7.83385e-23
-7.83385e-23
0
-9.91213e-23
-1.28139e-22
1.70852e-22
0
-8.40881e-23
-7.32665e-23
-1.83166e-22
-1.37096e-22
-9.13976e-23
7.27876e-24
0
9.07585e-24
4.99879e-24
0
4.58336e-24
1.89195e-23
0
-2.79755e-23
-3.89738e-23
0
1.43315e-23
1.34578e-23
0
0
-3.42848e-23
0
5.12465e-24
-3.07105e-23
0
0
-2.14143e-23
0
1.13323e-23
-7.61657e-24
0
-9.04676e-24
-1.19074e-23
0
1.61914e-24
-2.50932e-24
0
8.77626e-25
7.94658e-24
-0
0
2.78678e-23
-0
-4.25761e-24
3.85883e-23
-0
-9.5437e-24
6.3941e-23
-0
-2.16737e-23
7.12371e-23
-0
-1.24811e-23
6.21902e-23
-0
-2.91988e-23
1.58186e-22
-0
0
7.98404e-23
-0
-4.21232e-23
-1.0613e-22
-0
5.21434e-23
-2.78878e-23
-0
6.59917e-23
1.83558e-22
-0
8.5334e-23
-1.26582e-22
-0
5.6016e-23
-7.2046e-23
-0
1.46471e-22
-2.02697e-22
-0
9.13859e-23
-4.48915e-24
-9.06676e-24
0
-4.72375e-24
4.87409e-24
-5.06618e-24
0
-2.80024e-24
-2.98045e-24
-8.00105e-25
0
3.79988e-24
8.41678e-24
1.88701e-23
2.14327e-23
2.46938e-23
-5.77976e-23
-3.44056e-23
0
0
-6.55336e-23
-2.54571e-22
-1.11588e-22
0
9.13301e-23
1.59193e-23
0
1.83761e-23
0
0
0
4.78847e-24
0
-7.41234e-24
0
5.13695e-24
0
5.38043e-24
0
4.2599e-24
0
1.51145e-24
0
2.43461e-24
0
-8.79748e-25
-0
-3.85393e-24
-0
-1.70708e-23
-0
-1.91317e-23
-0
-3.25839e-23
-0
-5.00326e-23
-0
7.31474e-23
-0
-3.48087e-23
-0
1.47692e-22
-0
-1.04451e-22
-0
-9.91214e-23
-0
2.13565e-22
-0
5.60588e-23
-0
-2.198e-22
-0
-1.82795e-22
-0
-9.09672e-24
4.54836e-24
-1.3782e-23
1.83761e-23
-9.34707e-24
9.34707e-24
-4.78846e-24
-2.39423e-23
0
1.23539e-23
-7.70542e-24
-2.05478e-23
-5.38043e-24
-2.15217e-23
-5.67986e-24
-1.70396e-23
0
-6.0458e-24
-2.02884e-24
-3.24614e-24
0
5.71836e-24
1.92696e-24
1.92696e-23
4.26769e-24
3.41415e-23
1.91317e-23
5.26122e-23
2.17226e-23
8.14596e-23
2.50163e-23
1.00065e-22
0
5.85178e-23
3.48087e-23
1.39235e-22
-2.10988e-23
8.43953e-23
-2.61128e-23
-7.83385e-23
0
-9.91213e-23
8.54261e-23
2.13565e-22
1.12118e-22
-1.96206e-22
0
-7.32665e-23
0
-1.37096e-22
-0
-0
-0
-0
-0
-0
-0
-0
-0
-0
0
0
0
0
0
0
0
0
0
0
0
0
0
0
0
)
;
    }
    baffle_master
    {
        type            calculated;
        value           nonuniform List<scalar> 
150
(
6.92023e-33
0
0
9.16649e-32
0
-1.2133e-31
-1.4538e-31
0
2.4268e-31
1.7589e-31
0
0
-7.36299e-31
0
-4.8544e-31
5.07297e-32
0
1.2137e-31
7.31514e-32
0
1.2138e-31
2.15887e-31
0
2.4278e-31
1.50701e-31
0
0
6.65196e-32
0
1.2141e-31
5.92314e-33
0
2.42839e-31
5.38249e-32
0
0
1.52601e-32
0
-1.2144e-31
7.09598e-32
0
0
4.65805e-32
0
0
3.07772e-32
0
0
6.21392e-31
0
3.64438e-31
3.64597e-32
0
-6.07447e-32
3.55595e-31
0
1.21499e-31
3.65672e-32
0
-1.21509e-31
5.25931e-33
0
0
-3.52406e-31
0
-2.43059e-31
1.00128e-31
0
-1.21539e-31
1.70947e-31
0
-4.86197e-31
-6.00954e-31
0
-1.94494e-30
2.4264e-31
-4.29092e-31
0
0
-3.31443e-31
0
2.4268e-31
-4.26349e-31
0
0
-2.99597e-31
0
0
2.5986e-31
0
1.2137e-31
-3.02595e-31
0
0
-2.60481e-31
0
2.4278e-31
-3.17522e-31
0
0
-4.44061e-31
0
1.2141e-31
-2.67214e-31
0
0
-4.34403e-31
0
1.2143e-31
-3.00172e-31
0
1.2144e-31
-2.97929e-31
0
2.42899e-31
-2.25657e-31
0
1.2146e-31
-2.58272e-31
0
1.21469e-31
-2.03178e-31
0
-1.21479e-31
-2.85207e-31
0
1.21489e-31
-1.90977e-31
0
-1.21499e-31
-1.98593e-32
0
1.21509e-31
1.12461e-31
0
-1.21519e-31
2.1811e-31
0
-3.64588e-31
4.27518e-31
0
-3.64618e-31
-1.83273e-31
0
0
-1.40563e-31
-0
-1.94494e-30
-3.68081e-30
-0
)
;
    }
    baffle_slave
    {
        type            calculated;
        value           nonuniform List<scalar> 
150
(
-5.69891e-24
-0
0
1.34159e-24
-0
0
-4.66809e-25
-0
0
-3.78876e-24
-0
4.72375e-24
-2.14056e-23
-0
-4.87409e-24
1.73568e-24
-0
5.06618e-24
-2.47866e-25
-0
0
-1.39535e-24
-0
2.80024e-24
-3.71276e-25
-0
-2.98045e-24
-2.99003e-25
-0
0
-4.32178e-25
0
8.67359e-25
-3.55007e-25
0
0
-8.51894e-25
0
8.41679e-24
1.61615e-24
0
9.43504e-24
-2.62848e-24
0
0
-1.03362e-24
0
-2.46938e-23
-7.59991e-23
0
-8.66964e-23
-8.37547e-24
0
-3.44056e-23
-5.76543e-23
0
-8.34931e-23
6.85301e-24
0
-1.03448e-22
-3.06548e-24
0
-1.31067e-22
1.13835e-22
0
1.69714e-22
-4.78906e-24
0
1.11588e-22
1.25517e-23
0
-7.30759e-23
-2.71087e-23
0
-9.13301e-23
-3.07915e-24
1.52437e-23
0
-1.10369e-23
9.6736e-24
0
-1.08779e-23
9.03095e-24
0
-4.89852e-24
9.04887e-24
0
-5.00583e-24
-1.39668e-23
0
-9.34673e-26
6.86383e-24
0
-1.00382e-23
5.78353e-24
0
-4.31395e-24
9.15698e-24
0
5.98339e-24
4.82659e-24
0
-1.01921e-24
4.38538e-24
0
-4.19962e-25
1.40458e-24
0
-3.40892e-25
-1.6567e-24
0
-1.44687e-24
-5.8322e-24
0
4.90851e-24
-7.19923e-24
0
-7.22148e-25
-2.76825e-23
0
-1.3582e-24
-1.99392e-23
0
-8.3191e-23
-2.58277e-23
0
3.67443e-23
-3.68521e-23
0
-1.31897e-22
-1.2035e-23
0
-1.83301e-23
4.29321e-23
0
9.61224e-24
4.54713e-23
0
-1.86048e-22
1.25086e-22
0
-1.62539e-22
-1.02747e-22
0
-2.41683e-23
9.07145e-23
0
8.63324e-23
1.05581e-22
0
)
;
    }
}


// ************************************************************************* //
