/*--------------------------------*- C++ -*----------------------------------*\
| =========                 |                                                 |
| \\      /  F ield         | OpenFOAM: The Open Source CFD Toolbox           |
|  \\    /   O peration     | Version:  2212                                  |
|   \\  /    A nd           | Website:  www.openfoam.com                      |
|    \\/     M anipulation  |                                                 |
\*---------------------------------------------------------------------------*/
FoamFile
{
    version     2.0;
    format      ascii;
    arch        "LSB;label=32;scalar=64";
    class       volScalarField;
    location    "18/fluidRegion";
    object      epsilon;
}
// * * * * * * * * * * * * * * * * * * * * * * * * * * * * * * * * * * * * * //

dimensions      [0 2 -3 0 0 0 0];

internalField   nonuniform List<scalar> 
350
(
66.7859
66.7695
66.7531
66.7367
66.7203
66.704
66.6878
66.6717
66.6557
66.64
66.6247
66.6099
66.596
66.5834
66.5728
66.5652
66.5623
66.5665
66.5816
66.6133
66.6704
66.7664
66.9216
67.1676
67.5519
66.7859
66.7695
66.7531
66.7367
66.7203
66.704
66.6878
66.6717
66.6557
66.64
66.6247
66.6099
66.596
66.5834
66.5728
66.5652
66.5623
66.5665
66.5816
66.6133
66.6704
66.7664
66.9216
67.1676
67.5519
3.79006e+06
3.556e+06
3.27663e+06
2.95768e+06
2.61418e+06
2.26093e+06
1.91165e+06
1.5783e+06
1.27059e+06
995664
757953
559259
398958
274394
181391
114856
69393
39835.4
21640.2
11100.4
5400.99
2550.69
1249.39
722.608
557.722
3.86482e+06
3.6271e+06
3.3431e+06
3.01846e+06
2.66853e+06
2.30842e+06
1.95215e+06
1.61197e+06
1.29781e+06
1.01701e+06
774156
571113
407289
279993
184973
117025
70627.1
40489.6
21959.1
11241
5455.62
2568.78
1254.27
723.696
558.095
3.77771e+06
3.54426e+06
3.26571e+06
2.94773e+06
2.60532e+06
2.25321e+06
1.90509e+06
1.57286e+06
1.26621e+06
992239
755362
557367
397631
273503
180821
114511
69195.7
39730.2
21588.2
11077
5391.41
2547.19
1248.23
722.251
557.607
3.84829e+06
3.61134e+06
3.32833e+06
3.00492e+06
2.65639e+06
2.29779e+06
1.94306e+06
1.6044e+06
1.29168e+06
1.01219e+06
770488
568425
405396
278719
184157
116530
70345.3
40340.2
21886.3
11208.9
5443.19
2564.7
1253.19
723.469
558.02
3.84829e+06
3.61134e+06
3.32833e+06
3.00492e+06
2.65639e+06
2.29779e+06
1.94306e+06
1.6044e+06
1.29168e+06
1.01219e+06
770488
568425
405396
278719
184157
116530
70345.3
40340.2
21886.3
11208.9
5443.19
2564.7
1253.19
723.469
558.02
3.77772e+06
3.54427e+06
3.26572e+06
2.94774e+06
2.60532e+06
2.25321e+06
1.90509e+06
1.57287e+06
1.26622e+06
992240
755363
557368
397632
273504
180822
114511
69195.8
39730.2
21588.2
11077
5391.41
2547.19
1248.23
722.25
557.608
3.86482e+06
3.6271e+06
3.3431e+06
3.01846e+06
2.66853e+06
2.30842e+06
1.95215e+06
1.61197e+06
1.29781e+06
1.01701e+06
774155
571113
407289
279993
184973
117025
70627.1
40489.6
21959.1
11241
5455.62
2568.78
1254.27
723.696
558.095
3.79006e+06
3.556e+06
3.27663e+06
2.95768e+06
2.61418e+06
2.26093e+06
1.91165e+06
1.5783e+06
1.27059e+06
995664
757954
559259
398958
274394
181391
114856
69393
39835.4
21640.2
11100.4
5400.99
2550.69
1249.38
722.607
557.72
3.84829e+06
3.61134e+06
3.32833e+06
3.00492e+06
2.65639e+06
2.29779e+06
1.94306e+06
1.6044e+06
1.29168e+06
1.01219e+06
770488
568425
405396
278719
184157
116530
70345.3
40340.2
21886.3
11208.9
5443.19
2564.7
1253.19
723.469
558.02
3.77771e+06
3.54426e+06
3.26571e+06
2.94773e+06
2.60532e+06
2.25321e+06
1.90509e+06
1.57287e+06
1.26621e+06
992239
755362
557367
397631
273503
180821
114511
69195.7
39730.2
21588.2
11077
5391.41
2547.19
1248.23
722.249
557.605
3.77771e+06
3.54427e+06
3.26572e+06
2.94774e+06
2.60532e+06
2.25321e+06
1.90509e+06
1.57287e+06
1.26622e+06
992240
755363
557368
397632
273504
180822
114511
69195.8
39730.2
21588.2
11077
5391.41
2547.19
1248.23
722.249
557.606
3.84829e+06
3.61134e+06
3.32833e+06
3.00492e+06
2.65639e+06
2.29779e+06
1.94306e+06
1.6044e+06
1.29168e+06
1.01219e+06
770488
568425
405396
278719
184157
116530
70345.3
40340.2
21886.3
11208.9
5443.19
2564.69
1253.19
723.467
558.018
)
;

boundaryField
{
    outletCentralUnloaded
    {
        type            zeroGradient;
    }
    inletCentralUnloaded
    {
        type            zeroGradient;
    }
    outletFuelElement
    {
        type            zeroGradient;
    }
    inletFuelElement
    {
        type            zeroGradient;
    }
    defaultFaces
    {
        type            zeroGradient;
    }
    baffle_master
    {
        type            zeroGradient;
    }
    baffle_slave
    {
        type            zeroGradient;
    }
}


// ************************************************************************* //
