/*--------------------------------*- C++ -*----------------------------------*\
| =========                 |                                                 |
| \\      /  F ield         | OpenFOAM: The Open Source CFD Toolbox           |
|  \\    /   O peration     | Version:  2212                                  |
|   \\  /    A nd           | Website:  www.openfoam.com                      |
|    \\/     M anipulation  |                                                 |
\*---------------------------------------------------------------------------*/
FoamFile
{
    version     2.0;
    format      ascii;
    arch        "LSB;label=32;scalar=64";
    class       volScalarField;
    location    "18/fluidRegion";
    object      heatFlux.structure;
}
// * * * * * * * * * * * * * * * * * * * * * * * * * * * * * * * * * * * * * //

dimensions      [1 0 -3 0 0 0 0];

internalField   nonuniform List<scalar> 
350
(
-258075
-258078
-258081
-258084
-258087
-258090
-258093
-258096
-258099
-258102
-258105
-258108
-258111
-258114
-258117
-258120
-258123
-258126
-258128
-258131
-258134
-258137
-258140
-258143
-258690
-258075
-258078
-258081
-258084
-258087
-258090
-258093
-258096
-258099
-258102
-258105
-258108
-258111
-258114
-258117
-258120
-258123
-258126
-258128
-258131
-258134
-258137
-258140
-258143
-258690
-107486
610957
1.31671e+06
1.99847e+06
2.64535e+06
3.24705e+06
3.794e+06
4.27751e+06
4.68994e+06
5.02474e+06
5.27662e+06
5.44159e+06
5.51701e+06
5.50165e+06
5.39567e+06
5.20066e+06
4.91965e+06
4.55716e+06
4.11925e+06
3.61374e+06
3.05031e+06
2.44107e+06
1.8005e+06
1.14389e+06
481835
-113835
612784
1.3266e+06
2.01617e+06
2.67049e+06
3.27914e+06
3.83245e+06
4.32162e+06
4.73891e+06
5.07771e+06
5.33266e+06
5.49974e+06
5.57627e+06
5.56101e+06
5.45411e+06
5.25717e+06
4.97325e+06
4.6069e+06
4.16421e+06
3.6531e+06
3.08332e+06
2.46715e+06
1.81925e+06
1.15517e+06
485612
-106439
610695
1.31516e+06
1.99566e+06
2.64135e+06
3.24194e+06
3.78787e+06
4.27048e+06
4.68212e+06
5.01628e+06
5.26766e+06
5.43229e+06
5.50754e+06
5.49217e+06
5.38633e+06
5.19163e+06
4.91109e+06
4.54921e+06
4.11206e+06
3.60745e+06
3.04503e+06
2.43689e+06
1.79748e+06
1.14207e+06
481230
-112431
612312
1.32428e+06
2.01205e+06
2.66467e+06
3.27173e+06
3.82357e+06
4.31145e+06
4.72762e+06
5.0655e+06
5.31975e+06
5.48635e+06
5.56263e+06
5.54734e+06
5.44066e+06
5.24417e+06
4.96092e+06
4.59546e+06
4.15387e+06
3.64404e+06
3.07573e+06
2.46115e+06
1.81494e+06
1.15258e+06
484743
-112431
612312
1.32428e+06
2.01205e+06
2.66467e+06
3.27173e+06
3.82357e+06
4.31145e+06
4.72762e+06
5.0655e+06
5.31975e+06
5.48635e+06
5.56263e+06
5.54734e+06
5.44066e+06
5.24417e+06
4.96092e+06
4.59545e+06
4.15387e+06
3.64404e+06
3.07573e+06
2.46115e+06
1.81494e+06
1.15258e+06
484743
-106440
610694
1.31516e+06
1.99566e+06
2.64135e+06
3.24194e+06
3.78787e+06
4.27048e+06
4.68212e+06
5.01628e+06
5.26766e+06
5.43229e+06
5.50754e+06
5.49216e+06
5.38633e+06
5.19163e+06
4.91109e+06
4.54921e+06
4.11206e+06
3.60744e+06
3.04502e+06
2.43689e+06
1.79748e+06
1.14207e+06
481230
-113835
612784
1.3266e+06
2.01617e+06
2.67049e+06
3.27914e+06
3.83245e+06
4.32162e+06
4.73891e+06
5.07771e+06
5.33266e+06
5.49974e+06
5.57627e+06
5.56101e+06
5.45411e+06
5.25717e+06
4.97325e+06
4.6069e+06
4.16421e+06
3.6531e+06
3.08332e+06
2.46715e+06
1.81925e+06
1.15517e+06
485612
-107486
610957
1.31671e+06
1.99847e+06
2.64535e+06
3.24705e+06
3.794e+06
4.27751e+06
4.68994e+06
5.02474e+06
5.27662e+06
5.44158e+06
5.51701e+06
5.50165e+06
5.39567e+06
5.20066e+06
4.91965e+06
4.55716e+06
4.11925e+06
3.61374e+06
3.05031e+06
2.44107e+06
1.8005e+06
1.14389e+06
481835
-112431
612312
1.32428e+06
2.01205e+06
2.66467e+06
3.27173e+06
3.82357e+06
4.31145e+06
4.72762e+06
5.0655e+06
5.31975e+06
5.48635e+06
5.56263e+06
5.54734e+06
5.44066e+06
5.24417e+06
4.96092e+06
4.59545e+06
4.15387e+06
3.64404e+06
3.07573e+06
2.46115e+06
1.81494e+06
1.15258e+06
484743
-106439
610695
1.31516e+06
1.99566e+06
2.64135e+06
3.24194e+06
3.78787e+06
4.27048e+06
4.68212e+06
5.01628e+06
5.26766e+06
5.43229e+06
5.50754e+06
5.49217e+06
5.38633e+06
5.19163e+06
4.91109e+06
4.54921e+06
4.11206e+06
3.60745e+06
3.04502e+06
2.43689e+06
1.79748e+06
1.14207e+06
481230
-106440
610694
1.31516e+06
1.99566e+06
2.64135e+06
3.24194e+06
3.78787e+06
4.27048e+06
4.68212e+06
5.01628e+06
5.26766e+06
5.43229e+06
5.50754e+06
5.49216e+06
5.38633e+06
5.19163e+06
4.91109e+06
4.54921e+06
4.11206e+06
3.60744e+06
3.04502e+06
2.43689e+06
1.79748e+06
1.14207e+06
481230
-112431
612312
1.32428e+06
2.01205e+06
2.66467e+06
3.27173e+06
3.82357e+06
4.31145e+06
4.72762e+06
5.0655e+06
5.31975e+06
5.48635e+06
5.56263e+06
5.54734e+06
5.44066e+06
5.24417e+06
4.96092e+06
4.59545e+06
4.15387e+06
3.64404e+06
3.07573e+06
2.46115e+06
1.81494e+06
1.15258e+06
484743
)
;

boundaryField
{
    outletCentralUnloaded
    {
        type            zeroGradient;
    }
    inletCentralUnloaded
    {
        type            zeroGradient;
    }
    outletFuelElement
    {
        type            zeroGradient;
    }
    inletFuelElement
    {
        type            zeroGradient;
    }
    defaultFaces
    {
        type            zeroGradient;
    }
    baffle_master
    {
        type            zeroGradient;
    }
    baffle_slave
    {
        type            zeroGradient;
    }
}


// ************************************************************************* //
