/*--------------------------------*- C++ -*----------------------------------*\
| =========                 |                                                 |
| \\      /  F ield         | OpenFOAM: The Open Source CFD Toolbox           |
|  \\    /   O peration     | Version:  2212                                  |
|   \\  /    A nd           | Website:  www.openfoam.com                      |
|    \\/     M anipulation  |                                                 |
\*---------------------------------------------------------------------------*/
FoamFile
{
    version     2.0;
    format      ascii;
    arch        "LSB;label=32;scalar=64";
    class       volTensorField;
    location    "18/fluidRegion";
    object      Kd;
}
// * * * * * * * * * * * * * * * * * * * * * * * * * * * * * * * * * * * * * //

dimensions      [1 -3 -1 0 0 0 0];

internalField   nonuniform List<tensor> 
350
(
(84.6706 0 0 0 84.6706 0 0 0 84.6706)
(84.6705 0 0 0 84.6705 0 0 0 84.6705)
(84.6705 0 0 0 84.6705 0 0 0 84.6705)
(84.6705 0 0 0 84.6705 0 0 0 84.6705)
(84.6705 0 0 0 84.6705 0 0 0 84.6705)
(84.6705 0 0 0 84.6705 0 0 0 84.6705)
(84.6705 0 0 0 84.6705 0 0 0 84.6705)
(84.6705 0 0 0 84.6705 0 0 0 84.6705)
(84.6705 0 0 0 84.6705 0 0 0 84.6705)
(84.6705 0 0 0 84.6705 0 0 0 84.6705)
(84.6705 0 0 0 84.6705 0 0 0 84.6705)
(84.6705 0 0 0 84.6705 0 0 0 84.6705)
(84.6705 0 0 0 84.6705 0 0 0 84.6705)
(84.6705 0 0 0 84.6705 0 0 0 84.6705)
(84.6705 0 0 0 84.6705 0 0 0 84.6705)
(84.6705 0 0 0 84.6705 0 0 0 84.6705)
(84.6705 0 0 0 84.6705 0 0 0 84.6705)
(84.6705 0 0 0 84.6705 0 0 0 84.6705)
(84.6705 0 0 0 84.6705 0 0 0 84.6705)
(84.6705 0 0 0 84.6705 0 0 0 84.6705)
(84.6705 0 0 0 84.6705 0 0 0 84.6705)
(84.6705 0 0 0 84.6705 0 0 0 84.6705)
(84.6706 0 0 0 84.6706 0 0 0 84.6706)
(84.6706 0 0 0 84.6706 0 0 0 84.6706)
(84.838 0 0 0 84.838 0 0 0 84.838)
(84.6706 0 0 0 84.6706 0 0 0 84.6706)
(84.6705 0 0 0 84.6705 0 0 0 84.6705)
(84.6705 0 0 0 84.6705 0 0 0 84.6705)
(84.6705 0 0 0 84.6705 0 0 0 84.6705)
(84.6705 0 0 0 84.6705 0 0 0 84.6705)
(84.6705 0 0 0 84.6705 0 0 0 84.6705)
(84.6705 0 0 0 84.6705 0 0 0 84.6705)
(84.6705 0 0 0 84.6705 0 0 0 84.6705)
(84.6705 0 0 0 84.6705 0 0 0 84.6705)
(84.6705 0 0 0 84.6705 0 0 0 84.6705)
(84.6705 0 0 0 84.6705 0 0 0 84.6705)
(84.6705 0 0 0 84.6705 0 0 0 84.6705)
(84.6705 0 0 0 84.6705 0 0 0 84.6705)
(84.6705 0 0 0 84.6705 0 0 0 84.6705)
(84.6705 0 0 0 84.6705 0 0 0 84.6705)
(84.6705 0 0 0 84.6705 0 0 0 84.6705)
(84.6705 0 0 0 84.6705 0 0 0 84.6705)
(84.6705 0 0 0 84.6705 0 0 0 84.6705)
(84.6705 0 0 0 84.6705 0 0 0 84.6705)
(84.6705 0 0 0 84.6705 0 0 0 84.6705)
(84.6705 0 0 0 84.6705 0 0 0 84.6705)
(84.6705 0 0 0 84.6705 0 0 0 84.6705)
(84.6706 0 0 0 84.6706 0 0 0 84.6706)
(84.6706 0 0 0 84.6706 0 0 0 84.6706)
(84.838 0 0 0 84.838 0 0 0 84.838)
(660.627 0 0 0 660.627 0 0 0 660.627)
(659.584 0 0 0 659.584 0 0 0 659.584)
(659.606 0 0 0 659.606 0 0 0 659.606)
(659.618 0 0 0 659.618 0 0 0 659.618)
(659.619 0 0 0 659.619 0 0 0 659.619)
(659.606 0 0 0 659.606 0 0 0 659.606)
(659.58 0 0 0 659.58 0 0 0 659.58)
(659.539 0 0 0 659.539 0 0 0 659.539)
(659.483 0 0 0 659.483 0 0 0 659.483)
(659.41 0 0 0 659.41 0 0 0 659.41)
(659.321 0 0 0 659.321 0 0 0 659.321)
(659.215 0 0 0 659.215 0 0 0 659.215)
(659.092 0 0 0 659.092 0 0 0 659.092)
(658.949 0 0 0 658.949 0 0 0 658.949)
(658.781 0 0 0 658.781 0 0 0 658.781)
(658.58 0 0 0 658.58 0 0 0 658.58)
(658.339 0 0 0 658.339 0 0 0 658.339)
(658.053 0 0 0 658.053 0 0 0 658.053)
(657.739 0 0 0 657.739 0 0 0 657.739)
(657.47 0 0 0 657.47 0 0 0 657.47)
(657.427 0 0 0 657.427 0 0 0 657.427)
(658.049 0 0 0 658.049 0 0 0 658.049)
(660.2 0 0 0 660.2 0 0 0 660.2)
(665.126 0 0 0 665.126 0 0 0 665.126)
(666.165 0 0 0 666.165 0 0 0 666.165)
(656.635 0 0 0 656.635 0 0 0 656.635)
(655.52 0 0 0 655.52 0 0 0 655.52)
(655.493 0 0 0 655.493 0 0 0 655.493)
(655.457 0 0 0 655.457 0 0 0 655.457)
(655.412 0 0 0 655.412 0 0 0 655.412)
(655.36 0 0 0 655.36 0 0 0 655.36)
(655.298 0 0 0 655.298 0 0 0 655.298)
(655.226 0 0 0 655.226 0 0 0 655.226)
(655.144 0 0 0 655.144 0 0 0 655.144)
(655.053 0 0 0 655.053 0 0 0 655.053)
(654.956 0 0 0 654.956 0 0 0 654.956)
(654.856 0 0 0 654.856 0 0 0 654.856)
(654.759 0 0 0 654.759 0 0 0 654.759)
(654.669 0 0 0 654.669 0 0 0 654.669)
(654.586 0 0 0 654.586 0 0 0 654.586)
(654.506 0 0 0 654.506 0 0 0 654.506)
(654.423 0 0 0 654.423 0 0 0 654.423)
(654.337 0 0 0 654.337 0 0 0 654.337)
(654.265 0 0 0 654.265 0 0 0 654.265)
(654.289 0 0 0 654.289 0 0 0 654.289)
(654.603 0 0 0 654.603 0 0 0 654.603)
(655.672 0 0 0 655.672 0 0 0 655.672)
(658.391 0 0 0 658.391 0 0 0 658.391)
(664.018 0 0 0 664.018 0 0 0 664.018)
(665.818 0 0 0 665.818 0 0 0 665.818)
(661.295 0 0 0 661.295 0 0 0 661.295)
(660.255 0 0 0 660.255 0 0 0 660.255)
(660.284 0 0 0 660.284 0 0 0 660.284)
(660.301 0 0 0 660.301 0 0 0 660.301)
(660.305 0 0 0 660.305 0 0 0 660.305)
(660.295 0 0 0 660.295 0 0 0 660.295)
(660.272 0 0 0 660.272 0 0 0 660.272)
(660.233 0 0 0 660.233 0 0 0 660.233)
(660.177 0 0 0 660.177 0 0 0 660.177)
(660.104 0 0 0 660.104 0 0 0 660.104)
(660.012 0 0 0 660.012 0 0 0 660.012)
(659.9 0 0 0 659.9 0 0 0 659.9)
(659.768 0 0 0 659.768 0 0 0 659.768)
(659.611 0 0 0 659.611 0 0 0 659.611)
(659.423 0 0 0 659.423 0 0 0 659.423)
(659.198 0 0 0 659.198 0 0 0 659.198)
(658.924 0 0 0 658.924 0 0 0 658.924)
(658.599 0 0 0 658.599 0 0 0 658.599)
(658.239 0 0 0 658.239 0 0 0 658.239)
(657.914 0 0 0 657.914 0 0 0 657.914)
(657.803 0 0 0 657.803 0 0 0 657.803)
(658.342 0 0 0 658.342 0 0 0 658.342)
(660.393 0 0 0 660.393 0 0 0 660.393)
(665.21 0 0 0 665.21 0 0 0 665.21)
(666.178 0 0 0 666.178 0 0 0 666.178)
(657.529 0 0 0 657.529 0 0 0 657.529)
(656.433 0 0 0 656.433 0 0 0 656.433)
(656.419 0 0 0 656.419 0 0 0 656.419)
(656.395 0 0 0 656.395 0 0 0 656.395)
(656.363 0 0 0 656.363 0 0 0 656.363)
(656.321 0 0 0 656.321 0 0 0 656.321)
(656.269 0 0 0 656.269 0 0 0 656.269)
(656.205 0 0 0 656.205 0 0 0 656.205)
(656.131 0 0 0 656.131 0 0 0 656.131)
(656.046 0 0 0 656.046 0 0 0 656.046)
(655.952 0 0 0 655.952 0 0 0 655.952)
(655.853 0 0 0 655.853 0 0 0 655.853)
(655.751 0 0 0 655.751 0 0 0 655.751)
(655.65 0 0 0 655.65 0 0 0 655.65)
(655.549 0 0 0 655.549 0 0 0 655.549)
(655.443 0 0 0 655.443 0 0 0 655.443)
(655.326 0 0 0 655.326 0 0 0 655.326)
(655.195 0 0 0 655.195 0 0 0 655.195)
(655.069 0 0 0 655.069 0 0 0 655.069)
(655.027 0 0 0 655.027 0 0 0 655.027)
(655.26 0 0 0 655.26 0 0 0 655.26)
(656.228 0 0 0 656.228 0 0 0 656.228)
(658.818 0 0 0 658.818 0 0 0 658.818)
(664.285 0 0 0 664.285 0 0 0 664.285)
(665.904 0 0 0 665.904 0 0 0 665.904)
(657.529 0 0 0 657.529 0 0 0 657.529)
(656.433 0 0 0 656.433 0 0 0 656.433)
(656.419 0 0 0 656.419 0 0 0 656.419)
(656.395 0 0 0 656.395 0 0 0 656.395)
(656.363 0 0 0 656.363 0 0 0 656.363)
(656.321 0 0 0 656.321 0 0 0 656.321)
(656.269 0 0 0 656.269 0 0 0 656.269)
(656.205 0 0 0 656.205 0 0 0 656.205)
(656.131 0 0 0 656.131 0 0 0 656.131)
(656.046 0 0 0 656.046 0 0 0 656.046)
(655.952 0 0 0 655.952 0 0 0 655.952)
(655.853 0 0 0 655.853 0 0 0 655.853)
(655.751 0 0 0 655.751 0 0 0 655.751)
(655.65 0 0 0 655.65 0 0 0 655.65)
(655.549 0 0 0 655.549 0 0 0 655.549)
(655.443 0 0 0 655.443 0 0 0 655.443)
(655.326 0 0 0 655.326 0 0 0 655.326)
(655.195 0 0 0 655.195 0 0 0 655.195)
(655.069 0 0 0 655.069 0 0 0 655.069)
(655.027 0 0 0 655.027 0 0 0 655.027)
(655.26 0 0 0 655.26 0 0 0 655.26)
(656.228 0 0 0 656.228 0 0 0 656.228)
(658.818 0 0 0 658.818 0 0 0 658.818)
(664.285 0 0 0 664.285 0 0 0 664.285)
(665.904 0 0 0 665.904 0 0 0 665.904)
(661.295 0 0 0 661.295 0 0 0 661.295)
(660.255 0 0 0 660.255 0 0 0 660.255)
(660.284 0 0 0 660.284 0 0 0 660.284)
(660.301 0 0 0 660.301 0 0 0 660.301)
(660.305 0 0 0 660.305 0 0 0 660.305)
(660.295 0 0 0 660.295 0 0 0 660.295)
(660.272 0 0 0 660.272 0 0 0 660.272)
(660.233 0 0 0 660.233 0 0 0 660.233)
(660.177 0 0 0 660.177 0 0 0 660.177)
(660.104 0 0 0 660.104 0 0 0 660.104)
(660.012 0 0 0 660.012 0 0 0 660.012)
(659.9 0 0 0 659.9 0 0 0 659.9)
(659.767 0 0 0 659.767 0 0 0 659.767)
(659.61 0 0 0 659.61 0 0 0 659.61)
(659.423 0 0 0 659.423 0 0 0 659.423)
(659.197 0 0 0 659.197 0 0 0 659.197)
(658.923 0 0 0 658.923 0 0 0 658.923)
(658.599 0 0 0 658.599 0 0 0 658.599)
(658.238 0 0 0 658.238 0 0 0 658.238)
(657.914 0 0 0 657.914 0 0 0 657.914)
(657.802 0 0 0 657.802 0 0 0 657.802)
(658.341 0 0 0 658.341 0 0 0 658.341)
(660.392 0 0 0 660.392 0 0 0 660.392)
(665.209 0 0 0 665.209 0 0 0 665.209)
(666.177 0 0 0 666.177 0 0 0 666.177)
(656.635 0 0 0 656.635 0 0 0 656.635)
(655.52 0 0 0 655.52 0 0 0 655.52)
(655.493 0 0 0 655.493 0 0 0 655.493)
(655.457 0 0 0 655.457 0 0 0 655.457)
(655.412 0 0 0 655.412 0 0 0 655.412)
(655.36 0 0 0 655.36 0 0 0 655.36)
(655.298 0 0 0 655.298 0 0 0 655.298)
(655.226 0 0 0 655.226 0 0 0 655.226)
(655.144 0 0 0 655.144 0 0 0 655.144)
(655.053 0 0 0 655.053 0 0 0 655.053)
(654.956 0 0 0 654.956 0 0 0 654.956)
(654.856 0 0 0 654.856 0 0 0 654.856)
(654.759 0 0 0 654.759 0 0 0 654.759)
(654.669 0 0 0 654.669 0 0 0 654.669)
(654.586 0 0 0 654.586 0 0 0 654.586)
(654.506 0 0 0 654.506 0 0 0 654.506)
(654.423 0 0 0 654.423 0 0 0 654.423)
(654.337 0 0 0 654.337 0 0 0 654.337)
(654.265 0 0 0 654.265 0 0 0 654.265)
(654.289 0 0 0 654.289 0 0 0 654.289)
(654.603 0 0 0 654.603 0 0 0 654.603)
(655.672 0 0 0 655.672 0 0 0 655.672)
(658.391 0 0 0 658.391 0 0 0 658.391)
(664.018 0 0 0 664.018 0 0 0 664.018)
(665.818 0 0 0 665.818 0 0 0 665.818)
(660.627 0 0 0 660.627 0 0 0 660.627)
(659.584 0 0 0 659.584 0 0 0 659.584)
(659.606 0 0 0 659.606 0 0 0 659.606)
(659.618 0 0 0 659.618 0 0 0 659.618)
(659.619 0 0 0 659.619 0 0 0 659.619)
(659.606 0 0 0 659.606 0 0 0 659.606)
(659.58 0 0 0 659.58 0 0 0 659.58)
(659.539 0 0 0 659.539 0 0 0 659.539)
(659.483 0 0 0 659.483 0 0 0 659.483)
(659.41 0 0 0 659.41 0 0 0 659.41)
(659.321 0 0 0 659.321 0 0 0 659.321)
(659.215 0 0 0 659.215 0 0 0 659.215)
(659.092 0 0 0 659.092 0 0 0 659.092)
(658.949 0 0 0 658.949 0 0 0 658.949)
(658.781 0 0 0 658.781 0 0 0 658.781)
(658.58 0 0 0 658.58 0 0 0 658.58)
(658.339 0 0 0 658.339 0 0 0 658.339)
(658.053 0 0 0 658.053 0 0 0 658.053)
(657.739 0 0 0 657.739 0 0 0 657.739)
(657.47 0 0 0 657.47 0 0 0 657.47)
(657.427 0 0 0 657.427 0 0 0 657.427)
(658.049 0 0 0 658.049 0 0 0 658.049)
(660.2 0 0 0 660.2 0 0 0 660.2)
(665.126 0 0 0 665.126 0 0 0 665.126)
(666.165 0 0 0 666.165 0 0 0 666.165)
(657.529 0 0 0 657.529 0 0 0 657.529)
(656.433 0 0 0 656.433 0 0 0 656.433)
(656.419 0 0 0 656.419 0 0 0 656.419)
(656.395 0 0 0 656.395 0 0 0 656.395)
(656.363 0 0 0 656.363 0 0 0 656.363)
(656.321 0 0 0 656.321 0 0 0 656.321)
(656.269 0 0 0 656.269 0 0 0 656.269)
(656.205 0 0 0 656.205 0 0 0 656.205)
(656.131 0 0 0 656.131 0 0 0 656.131)
(656.046 0 0 0 656.046 0 0 0 656.046)
(655.952 0 0 0 655.952 0 0 0 655.952)
(655.853 0 0 0 655.853 0 0 0 655.853)
(655.751 0 0 0 655.751 0 0 0 655.751)
(655.65 0 0 0 655.65 0 0 0 655.65)
(655.549 0 0 0 655.549 0 0 0 655.549)
(655.443 0 0 0 655.443 0 0 0 655.443)
(655.326 0 0 0 655.326 0 0 0 655.326)
(655.195 0 0 0 655.195 0 0 0 655.195)
(655.069 0 0 0 655.069 0 0 0 655.069)
(655.027 0 0 0 655.027 0 0 0 655.027)
(655.26 0 0 0 655.26 0 0 0 655.26)
(656.228 0 0 0 656.228 0 0 0 656.228)
(658.818 0 0 0 658.818 0 0 0 658.818)
(664.285 0 0 0 664.285 0 0 0 664.285)
(665.904 0 0 0 665.904 0 0 0 665.904)
(661.295 0 0 0 661.295 0 0 0 661.295)
(660.255 0 0 0 660.255 0 0 0 660.255)
(660.284 0 0 0 660.284 0 0 0 660.284)
(660.301 0 0 0 660.301 0 0 0 660.301)
(660.305 0 0 0 660.305 0 0 0 660.305)
(660.295 0 0 0 660.295 0 0 0 660.295)
(660.272 0 0 0 660.272 0 0 0 660.272)
(660.233 0 0 0 660.233 0 0 0 660.233)
(660.177 0 0 0 660.177 0 0 0 660.177)
(660.104 0 0 0 660.104 0 0 0 660.104)
(660.012 0 0 0 660.012 0 0 0 660.012)
(659.9 0 0 0 659.9 0 0 0 659.9)
(659.768 0 0 0 659.768 0 0 0 659.768)
(659.611 0 0 0 659.611 0 0 0 659.611)
(659.423 0 0 0 659.423 0 0 0 659.423)
(659.198 0 0 0 659.198 0 0 0 659.198)
(658.924 0 0 0 658.924 0 0 0 658.924)
(658.599 0 0 0 658.599 0 0 0 658.599)
(658.239 0 0 0 658.239 0 0 0 658.239)
(657.914 0 0 0 657.914 0 0 0 657.914)
(657.803 0 0 0 657.803 0 0 0 657.803)
(658.342 0 0 0 658.342 0 0 0 658.342)
(660.393 0 0 0 660.393 0 0 0 660.393)
(665.21 0 0 0 665.21 0 0 0 665.21)
(666.178 0 0 0 666.178 0 0 0 666.178)
(661.295 0 0 0 661.295 0 0 0 661.295)
(660.255 0 0 0 660.255 0 0 0 660.255)
(660.284 0 0 0 660.284 0 0 0 660.284)
(660.301 0 0 0 660.301 0 0 0 660.301)
(660.305 0 0 0 660.305 0 0 0 660.305)
(660.295 0 0 0 660.295 0 0 0 660.295)
(660.272 0 0 0 660.272 0 0 0 660.272)
(660.233 0 0 0 660.233 0 0 0 660.233)
(660.177 0 0 0 660.177 0 0 0 660.177)
(660.104 0 0 0 660.104 0 0 0 660.104)
(660.012 0 0 0 660.012 0 0 0 660.012)
(659.9 0 0 0 659.9 0 0 0 659.9)
(659.767 0 0 0 659.767 0 0 0 659.767)
(659.61 0 0 0 659.61 0 0 0 659.61)
(659.423 0 0 0 659.423 0 0 0 659.423)
(659.197 0 0 0 659.197 0 0 0 659.197)
(658.923 0 0 0 658.923 0 0 0 658.923)
(658.599 0 0 0 658.599 0 0 0 658.599)
(658.238 0 0 0 658.238 0 0 0 658.238)
(657.914 0 0 0 657.914 0 0 0 657.914)
(657.802 0 0 0 657.802 0 0 0 657.802)
(658.341 0 0 0 658.341 0 0 0 658.341)
(660.392 0 0 0 660.392 0 0 0 660.392)
(665.209 0 0 0 665.209 0 0 0 665.209)
(666.177 0 0 0 666.177 0 0 0 666.177)
(657.529 0 0 0 657.529 0 0 0 657.529)
(656.433 0 0 0 656.433 0 0 0 656.433)
(656.419 0 0 0 656.419 0 0 0 656.419)
(656.395 0 0 0 656.395 0 0 0 656.395)
(656.363 0 0 0 656.363 0 0 0 656.363)
(656.321 0 0 0 656.321 0 0 0 656.321)
(656.269 0 0 0 656.269 0 0 0 656.269)
(656.205 0 0 0 656.205 0 0 0 656.205)
(656.131 0 0 0 656.131 0 0 0 656.131)
(656.046 0 0 0 656.046 0 0 0 656.046)
(655.952 0 0 0 655.952 0 0 0 655.952)
(655.853 0 0 0 655.853 0 0 0 655.853)
(655.751 0 0 0 655.751 0 0 0 655.751)
(655.65 0 0 0 655.65 0 0 0 655.65)
(655.549 0 0 0 655.549 0 0 0 655.549)
(655.443 0 0 0 655.443 0 0 0 655.443)
(655.326 0 0 0 655.326 0 0 0 655.326)
(655.195 0 0 0 655.195 0 0 0 655.195)
(655.069 0 0 0 655.069 0 0 0 655.069)
(655.027 0 0 0 655.027 0 0 0 655.027)
(655.26 0 0 0 655.26 0 0 0 655.26)
(656.228 0 0 0 656.228 0 0 0 656.228)
(658.818 0 0 0 658.818 0 0 0 658.818)
(664.285 0 0 0 664.285 0 0 0 664.285)
(665.904 0 0 0 665.904 0 0 0 665.904)
)
;

boundaryField
{
    outletCentralUnloaded
    {
        type            zeroGradient;
    }
    inletCentralUnloaded
    {
        type            zeroGradient;
    }
    outletFuelElement
    {
        type            zeroGradient;
    }
    inletFuelElement
    {
        type            zeroGradient;
    }
    defaultFaces
    {
        type            zeroGradient;
    }
    baffle_master
    {
        type            zeroGradient;
    }
    baffle_slave
    {
        type            zeroGradient;
    }
}


// ************************************************************************* //
