/*--------------------------------*- C++ -*----------------------------------*\
| =========                 |                                                 |
| \\      /  F ield         | OpenFOAM: The Open Source CFD Toolbox           |
|  \\    /   O peration     | Version:  2212                                  |
|   \\  /    A nd           | Website:  www.openfoam.com                      |
|    \\/     M anipulation  |                                                 |
\*---------------------------------------------------------------------------*/
FoamFile
{
    version     2.0;
    format      ascii;
    arch        "LSB;label=32;scalar=64";
    class       volScalarField;
    location    "18/fluidRegion";
    object      nut;
}
// * * * * * * * * * * * * * * * * * * * * * * * * * * * * * * * * * * * * * //

dimensions      [0 2 -1 0 0 0 0];

internalField   nonuniform List<scalar> 
350
(
0.000537034
0.00053699
0.000536946
0.000536902
0.000536858
0.000536814
0.000536771
0.000536727
0.000536685
0.000536642
0.000536601
0.000536561
0.000536523
0.000536489
0.00053646
0.000536438
0.000536429
0.000536437
0.000536474
0.000536552
0.000536696
0.000536939
0.000537333
0.000537959
0.000539726
0.000537034
0.00053699
0.000536946
0.000536902
0.000536858
0.000536814
0.000536771
0.000536727
0.000536685
0.000536642
0.000536601
0.000536561
0.000536523
0.000536489
0.00053646
0.000536438
0.000536429
0.000536437
0.000536474
0.000536552
0.000536696
0.000536939
0.000537333
0.000537959
0.000539726
0.00814626
0.00802963
0.0078728
0.00766389
0.0074067
0.00710541
0.00676453
0.00638882
0.0059834
0.00555369
0.00510549
0.00464502
0.00417892
0.00371414
0.00325781
0.0028169
0.00239798
0.00200696
0.00164901
0.00132872
0.00105033
0.000817828
0.000634569
0.000502176
0.000416284
0.0081941
0.00807726
0.00792026
0.00771071
0.0074525
0.00714983
0.00680721
0.00642944
0.00602164
0.00558927
0.00513814
0.00467453
0.00420513
0.00373695
0.00327721
0.00283299
0.00241091
0.00201698
0.00165644
0.0013339
0.00105366
0.000819709
0.000635445
0.000502465
0.000416342
0.00813841
0.00802176
0.00786502
0.00765624
0.00739923
0.00709819
0.00675761
0.00638226
0.00597724
0.00554797
0.00510025
0.0046403
0.00417473
0.0037105
0.0032547
0.00281432
0.0023959
0.00200533
0.00164778
0.00132784
0.00104974
0.000817455
0.000634353
0.000502064
0.000416249
0.00818353
0.00806672
0.00790973
0.0077003
0.00744229
0.00713991
0.00679765
0.00642033
0.00601305
0.00558125
0.00513077
0.00466786
0.00419919
0.00373178
0.00327281
0.00282933
0.00240797
0.0020147
0.00165474
0.00133273
0.0010529
0.000819287
0.000635253
0.000502407
0.000416333
0.00818353
0.00806672
0.00790973
0.0077003
0.00744229
0.00713991
0.00679765
0.00642033
0.00601305
0.00558125
0.00513077
0.00466786
0.00419919
0.00373178
0.00327281
0.00282933
0.00240797
0.0020147
0.00165474
0.00133273
0.0010529
0.000819287
0.000635253
0.000502407
0.000416333
0.00813841
0.00802176
0.00786502
0.00765624
0.00739924
0.0070982
0.00675761
0.00638226
0.00597724
0.00554798
0.00510026
0.0046403
0.00417473
0.0037105
0.00325471
0.00281433
0.0023959
0.00200533
0.00164778
0.00132784
0.00104974
0.000817455
0.000634353
0.000502063
0.000416249
0.0081941
0.00807726
0.00792026
0.00771071
0.0074525
0.00714983
0.00680721
0.00642944
0.00602164
0.00558927
0.00513814
0.00467453
0.00420513
0.00373695
0.00327721
0.00283299
0.00241091
0.00201698
0.00165644
0.0013339
0.00105366
0.000819709
0.000635445
0.000502465
0.000416342
0.00814626
0.00802963
0.0078728
0.00766389
0.0074067
0.00710541
0.00676453
0.00638882
0.0059834
0.00555369
0.00510549
0.00464502
0.00417892
0.00371414
0.00325781
0.0028169
0.00239798
0.00200696
0.00164901
0.00132872
0.00105033
0.000817828
0.000634569
0.000502176
0.000416283
0.00818353
0.00806672
0.00790973
0.0077003
0.00744229
0.00713991
0.00679765
0.00642033
0.00601305
0.00558125
0.00513077
0.00466786
0.00419919
0.00373178
0.00327281
0.00282933
0.00240797
0.0020147
0.00165474
0.00133273
0.0010529
0.000819287
0.000635253
0.000502407
0.000416333
0.00813841
0.00802176
0.00786502
0.00765624
0.00739923
0.0070982
0.00675761
0.00638226
0.00597724
0.00554797
0.00510025
0.0046403
0.00417473
0.0037105
0.0032547
0.00281432
0.0023959
0.00200533
0.00164778
0.00132784
0.00104974
0.000817455
0.000634353
0.000502064
0.000416249
0.00813841
0.00802176
0.00786502
0.00765624
0.00739924
0.0070982
0.00675761
0.00638226
0.00597724
0.00554798
0.00510026
0.0046403
0.00417473
0.0037105
0.00325471
0.00281433
0.0023959
0.00200533
0.00164778
0.00132784
0.00104974
0.000817454
0.000634352
0.000502063
0.000416249
0.00818353
0.00806672
0.00790973
0.0077003
0.00744229
0.00713991
0.00679765
0.00642033
0.00601305
0.00558125
0.00513077
0.00466786
0.00419919
0.00373178
0.00327281
0.00282933
0.00240797
0.0020147
0.00165474
0.00133273
0.0010529
0.000819287
0.000635253
0.000502407
0.000416332
)
;

boundaryField
{
    outletCentralUnloaded
    {
        type            zeroGradient;
    }
    inletCentralUnloaded
    {
        type            zeroGradient;
    }
    outletFuelElement
    {
        type            zeroGradient;
    }
    inletFuelElement
    {
        type            zeroGradient;
    }
    defaultFaces
    {
        type            zeroGradient;
    }
    baffle_master
    {
        type            calculated;
        value           nonuniform List<scalar> 
150
(
0.000537034
0.000537034
0.000537034
0.00053699
0.00053699
0.00053699
0.000536946
0.000536946
0.000536946
0.000536902
0.000536902
0.000536902
0.000536858
0.000536858
0.000536858
0.000536814
0.000536814
0.000536814
0.000536771
0.000536771
0.000536771
0.000536727
0.000536727
0.000536727
0.000536685
0.000536685
0.000536685
0.000536642
0.000536642
0.000536642
0.000536601
0.000536601
0.000536601
0.000536561
0.000536561
0.000536561
0.000536523
0.000536523
0.000536523
0.000536489
0.000536489
0.000536489
0.00053646
0.00053646
0.00053646
0.000536438
0.000536438
0.000536438
0.000536429
0.000536429
0.000536429
0.000536437
0.000536437
0.000536437
0.000536474
0.000536474
0.000536474
0.000536552
0.000536552
0.000536552
0.000536696
0.000536696
0.000536696
0.000536939
0.000536939
0.000536939
0.000537333
0.000537333
0.000537333
0.000537959
0.000537959
0.000537959
0.000539726
0.000539726
0.000539726
0.000537034
0.000537034
0.000537034
0.00053699
0.00053699
0.00053699
0.000536946
0.000536946
0.000536946
0.000536902
0.000536902
0.000536902
0.000536858
0.000536858
0.000536858
0.000536814
0.000536814
0.000536814
0.000536771
0.000536771
0.000536771
0.000536727
0.000536727
0.000536727
0.000536685
0.000536685
0.000536685
0.000536642
0.000536642
0.000536642
0.000536601
0.000536601
0.000536601
0.000536561
0.000536561
0.000536561
0.000536523
0.000536523
0.000536523
0.000536489
0.000536489
0.000536489
0.00053646
0.00053646
0.00053646
0.000536438
0.000536438
0.000536438
0.000536429
0.000536429
0.000536429
0.000536437
0.000536437
0.000536437
0.000536474
0.000536474
0.000536474
0.000536552
0.000536552
0.000536552
0.000536696
0.000536696
0.000536696
0.000536939
0.000536939
0.000536939
0.000537333
0.000537333
0.000537333
0.000537959
0.000537959
0.000537959
0.000539726
0.000539726
0.000539726
)
;
    }
    baffle_slave
    {
        type            calculated;
        value           nonuniform List<scalar> 
150
(
0.0081941
0.00818353
0.00818353
0.00807726
0.00806672
0.00806672
0.00792026
0.00790973
0.00790973
0.00771071
0.0077003
0.0077003
0.0074525
0.00744229
0.00744229
0.00714983
0.00713991
0.00713991
0.00680721
0.00679765
0.00679765
0.00642944
0.00642033
0.00642033
0.00602164
0.00601305
0.00601305
0.00558927
0.00558125
0.00558125
0.00513814
0.00513077
0.00513077
0.00467453
0.00466786
0.00466786
0.00420513
0.00419919
0.00419919
0.00373695
0.00373178
0.00373178
0.00327721
0.00327281
0.00327281
0.00283299
0.00282933
0.00282933
0.00241091
0.00240797
0.00240797
0.00201698
0.0020147
0.0020147
0.00165644
0.00165474
0.00165474
0.0013339
0.00133273
0.00133273
0.00105366
0.0010529
0.0010529
0.000819709
0.000819287
0.000819287
0.000635445
0.000635253
0.000635253
0.000502465
0.000502407
0.000502407
0.000416342
0.000416333
0.000416332
0.00818353
0.0081941
0.00818353
0.00806672
0.00807726
0.00806672
0.00790973
0.00792026
0.00790973
0.0077003
0.00771071
0.0077003
0.00744229
0.0074525
0.00744229
0.00713991
0.00714983
0.00713991
0.00679765
0.00680721
0.00679765
0.00642033
0.00642944
0.00642033
0.00601305
0.00602164
0.00601305
0.00558125
0.00558927
0.00558125
0.00513077
0.00513814
0.00513077
0.00466786
0.00467453
0.00466786
0.00419919
0.00420513
0.00419919
0.00373178
0.00373695
0.00373178
0.00327281
0.00327721
0.00327281
0.00282933
0.00283299
0.00282933
0.00240797
0.00241091
0.00240797
0.0020147
0.00201698
0.0020147
0.00165474
0.00165644
0.00165474
0.00133273
0.0013339
0.00133273
0.0010529
0.00105366
0.0010529
0.000819287
0.000819709
0.000819287
0.000635253
0.000635445
0.000635253
0.000502407
0.000502465
0.000502407
0.000416333
0.000416342
0.000416333
)
;
    }
}


// ************************************************************************* //
