/*--------------------------------*- C++ -*----------------------------------*\
| =========                 |                                                 |
| \\      /  F ield         | OpenFOAM: The Open Source CFD Toolbox           |
|  \\    /   O peration     | Version:  2212                                  |
|   \\  /    A nd           | Website:  www.openfoam.com                      |
|    \\/     M anipulation  |                                                 |
\*---------------------------------------------------------------------------*/
FoamFile
{
    version     2.0;
    format      ascii;
    arch        "LSB;label=32;scalar=64";
    class       volScalarField;
    location    "18/fluidRegion";
    object      powerDensityNeutronics;
}
// * * * * * * * * * * * * * * * * * * * * * * * * * * * * * * * * * * * * * //

dimensions      [1 -1 -3 0 0 0 0];

internalField   nonuniform List<scalar> 
350
(
0
0
0
0
0
0
0
0
0
0
0
0
0
0
0
0
0
0
0
0
0
0
0
0
0
0
0
0
0
0
0
0
0
0
0
0
0
0
0
0
0
0
0
0
0
0
0
0
0
0
2.17409e+08
6.48798e+08
1.06995e+09
1.47424e+09
1.85527e+09
2.20704e+09
2.52401e+09
2.80117e+09
3.03416e+09
3.21929e+09
3.35365e+09
3.43513e+09
3.46243e+09
3.43513e+09
3.35365e+09
3.21929e+09
3.03416e+09
2.80117e+09
2.524e+09
2.20704e+09
1.85527e+09
1.47425e+09
1.06995e+09
6.48782e+08
2.17409e+08
2.19899e+08
6.5623e+08
1.08221e+09
1.49112e+09
1.87652e+09
2.23233e+09
2.55292e+09
2.83326e+09
3.06891e+09
3.25617e+09
3.39207e+09
3.47448e+09
3.5021e+09
3.47448e+09
3.39207e+09
3.25617e+09
3.06891e+09
2.83326e+09
2.55291e+09
2.23233e+09
1.87652e+09
1.49114e+09
1.08221e+09
6.56214e+08
2.19899e+08
2.17012e+08
6.47615e+08
1.068e+09
1.47155e+09
1.85189e+09
2.20302e+09
2.51941e+09
2.79606e+09
3.02862e+09
3.21342e+09
3.34754e+09
3.42886e+09
3.45612e+09
3.42886e+09
3.34754e+09
3.21342e+09
3.02862e+09
2.79606e+09
2.51939e+09
2.20302e+09
1.85189e+09
1.47156e+09
1.068e+09
6.47598e+08
2.17012e+08
2.19326e+08
6.54519e+08
1.07939e+09
1.48724e+09
1.87163e+09
2.22651e+09
2.54627e+09
2.82587e+09
3.06091e+09
3.24768e+09
3.38323e+09
3.46542e+09
3.49296e+09
3.46542e+09
3.38323e+09
3.24768e+09
3.06091e+09
2.82587e+09
2.54626e+09
2.22651e+09
1.87163e+09
1.48725e+09
1.07939e+09
6.54503e+08
2.19326e+08
2.19326e+08
6.54519e+08
1.07939e+09
1.48724e+09
1.87163e+09
2.22651e+09
2.54627e+09
2.82587e+09
3.06091e+09
3.24768e+09
3.38323e+09
3.46542e+09
3.49296e+09
3.46542e+09
3.38323e+09
3.24768e+09
3.06091e+09
2.82587e+09
2.54626e+09
2.22651e+09
1.87163e+09
1.48725e+09
1.07939e+09
6.54503e+08
2.19326e+08
2.17012e+08
6.47615e+08
1.068e+09
1.47155e+09
1.85189e+09
2.20302e+09
2.51941e+09
2.79606e+09
3.02862e+09
3.21342e+09
3.34754e+09
3.42886e+09
3.45612e+09
3.42886e+09
3.34754e+09
3.21342e+09
3.02862e+09
2.79606e+09
2.51939e+09
2.20302e+09
1.85189e+09
1.47156e+09
1.068e+09
6.47598e+08
2.17012e+08
2.19899e+08
6.5623e+08
1.08221e+09
1.49113e+09
1.87652e+09
2.23233e+09
2.55292e+09
2.83326e+09
3.06891e+09
3.25617e+09
3.39207e+09
3.47448e+09
3.50209e+09
3.47448e+09
3.39207e+09
3.25617e+09
3.06891e+09
2.83326e+09
2.55291e+09
2.23233e+09
1.87652e+09
1.49114e+09
1.08221e+09
6.56214e+08
2.19899e+08
2.17409e+08
6.48798e+08
1.06996e+09
1.47424e+09
1.85527e+09
2.20704e+09
2.52401e+09
2.80117e+09
3.03416e+09
3.21929e+09
3.35365e+09
3.43513e+09
3.46243e+09
3.43513e+09
3.35365e+09
3.21929e+09
3.03416e+09
2.80117e+09
2.524e+09
2.20704e+09
1.85527e+09
1.47425e+09
1.06995e+09
6.48782e+08
2.17409e+08
2.19326e+08
6.54519e+08
1.07939e+09
1.48724e+09
1.87163e+09
2.22651e+09
2.54627e+09
2.82587e+09
3.06091e+09
3.24768e+09
3.38323e+09
3.46542e+09
3.49296e+09
3.46542e+09
3.38323e+09
3.24768e+09
3.06091e+09
2.82587e+09
2.54626e+09
2.22651e+09
1.87163e+09
1.48725e+09
1.07939e+09
6.54503e+08
2.19326e+08
2.17012e+08
6.47615e+08
1.068e+09
1.47155e+09
1.85189e+09
2.20302e+09
2.51941e+09
2.79606e+09
3.02862e+09
3.21342e+09
3.34754e+09
3.42886e+09
3.45612e+09
3.42886e+09
3.34754e+09
3.21342e+09
3.02862e+09
2.79606e+09
2.51939e+09
2.20302e+09
1.85189e+09
1.47156e+09
1.068e+09
6.47599e+08
2.17012e+08
2.17012e+08
6.47615e+08
1.068e+09
1.47155e+09
1.85189e+09
2.20302e+09
2.51941e+09
2.79606e+09
3.02862e+09
3.21342e+09
3.34754e+09
3.42886e+09
3.45612e+09
3.42886e+09
3.34754e+09
3.21342e+09
3.02862e+09
2.79606e+09
2.51939e+09
2.20302e+09
1.85189e+09
1.47156e+09
1.068e+09
6.47598e+08
2.17012e+08
2.19326e+08
6.54519e+08
1.07939e+09
1.48724e+09
1.87163e+09
2.22651e+09
2.54627e+09
2.82587e+09
3.06091e+09
3.24768e+09
3.38323e+09
3.46542e+09
3.49296e+09
3.46542e+09
3.38323e+09
3.24768e+09
3.06091e+09
2.82587e+09
2.54626e+09
2.22651e+09
1.87163e+09
1.48725e+09
1.07939e+09
6.54503e+08
2.19326e+08
)
;

boundaryField
{
    outletCentralUnloaded
    {
        type            zeroGradient;
    }
    inletCentralUnloaded
    {
        type            zeroGradient;
    }
    outletFuelElement
    {
        type            zeroGradient;
    }
    inletFuelElement
    {
        type            zeroGradient;
    }
    defaultFaces
    {
        type            zeroGradient;
    }
    baffle_master
    {
        type            zeroGradient;
    }
    baffle_slave
    {
        type            zeroGradient;
    }
}


// ************************************************************************* //
