/*--------------------------------*- C++ -*----------------------------------*\
| =========                 |                                                 |
| \\      /  F ield         | OpenFOAM: The Open Source CFD Toolbox           |
|  \\    /   O peration     | Version:  2212                                  |
|   \\  /    A nd           | Website:  www.openfoam.com                      |
|    \\/     M anipulation  |                                                 |
\*---------------------------------------------------------------------------*/
FoamFile
{
    version     2.0;
    format      ascii;
    arch        "LSB;label=32;scalar=64";
    class       volScalarField;
    location    "18/fluidRegion";
    object      T;
}
// * * * * * * * * * * * * * * * * * * * * * * * * * * * * * * * * * * * * * //

dimensions      [0 0 0 1 0 0 0];

internalField   nonuniform List<scalar> 
350
(
83.2883
83.2888
83.2893
83.2897
83.2902
83.2907
83.2912
83.2918
83.2923
83.2928
83.2933
83.2938
83.2943
83.2948
83.2952
83.2957
83.2962
83.2967
83.2972
83.2977
83.2982
83.2987
83.2991
83.2996
83.3
83.2883
83.2888
83.2893
83.2897
83.2902
83.2907
83.2912
83.2918
83.2923
83.2928
83.2933
83.2938
83.2943
83.2948
83.2952
83.2957
83.2962
83.2967
83.2972
83.2977
83.2982
83.2987
83.2991
83.2996
83.3
1479.93
1481.56
1472.31
1452.35
1421.95
1381.5
1331.55
1272.72
1205.8
1131.7
1051.49
966.397
877.804
787.256
696.401
606.925
520.465
438.534
362.488
293.527
232.763
181.24
139.958
109.724
90.8836
1500.75
1502.72
1493.63
1473.65
1443.04
1402.22
1351.69
1292.13
1224.3
1149.14
1067.72
981.269
891.205
799.098
706.635
615.549
527.527
444.131
366.751
296.616
234.854
182.525
140.637
109.999
90.9429
1476.53
1478.11
1468.85
1448.9
1418.55
1378.18
1328.33
1269.63
1202.87
1128.95
1048.94
964.071
875.719
785.422
694.824
605.603
519.388
437.686
361.846
293.066
232.452
181.051
139.859
109.683
90.8741
1496.07
1497.95
1488.82
1468.83
1438.26
1397.51
1347.11
1287.71
1220.08
1145.16
1064
977.858
888.128
796.375
704.278
613.561
525.898
442.838
365.765
295.901
234.37
182.228
140.48
109.935
90.9293
1496.07
1497.95
1488.82
1468.83
1438.26
1397.51
1347.11
1287.71
1220.08
1145.16
1064
977.858
888.128
796.375
704.278
613.561
525.898
442.838
365.765
295.901
234.37
182.228
140.48
109.935
90.9293
1476.53
1478.11
1468.85
1448.9
1418.55
1378.18
1328.33
1269.63
1202.87
1128.95
1048.95
964.072
875.719
785.423
694.825
605.603
519.389
437.687
361.847
293.066
232.453
181.051
139.859
109.683
90.8741
1500.75
1502.72
1493.63
1473.65
1443.04
1402.22
1351.69
1292.13
1224.3
1149.14
1067.72
981.269
891.205
799.098
706.635
615.549
527.527
444.131
366.751
296.616
234.854
182.525
140.637
109.999
90.9429
1479.93
1481.56
1472.31
1452.35
1421.95
1381.5
1331.55
1272.72
1205.8
1131.7
1051.49
966.397
877.804
787.256
696.401
606.925
520.465
438.534
362.488
293.527
232.763
181.24
139.958
109.724
90.8836
1496.07
1497.95
1488.82
1468.83
1438.26
1397.51
1347.11
1287.71
1220.08
1145.16
1064
977.858
888.128
796.375
704.278
613.561
525.898
442.838
365.765
295.901
234.37
182.228
140.48
109.935
90.9293
1476.53
1478.11
1468.85
1448.9
1418.55
1378.18
1328.33
1269.63
1202.87
1128.95
1048.94
964.071
875.718
785.422
694.824
605.603
519.388
437.686
361.846
293.066
232.452
181.051
139.859
109.683
90.8741
1476.53
1478.11
1468.85
1448.9
1418.55
1378.18
1328.33
1269.63
1202.87
1128.95
1048.94
964.072
875.719
785.423
694.825
605.603
519.388
437.687
361.847
293.066
232.453
181.051
139.859
109.683
90.8741
1496.07
1497.95
1488.82
1468.83
1438.26
1397.51
1347.11
1287.71
1220.08
1145.16
1064
977.858
888.128
796.375
704.278
613.561
525.898
442.838
365.765
295.901
234.37
182.228
140.48
109.935
90.9293
)
;

boundaryField
{
    outletCentralUnloaded
    {
        type            zeroGradient;
    }
    inletCentralUnloaded
    {
        type            fixedValue;
        value           uniform 83.3;
    }
    outletFuelElement
    {
        type            zeroGradient;
    }
    inletFuelElement
    {
        type            fixedValue;
        value           uniform 83.3;
    }
    defaultFaces
    {
        type            zeroGradient;
    }
    baffle_master
    {
        type            zeroGradient;
    }
    baffle_slave
    {
        type            zeroGradient;
    }
}


// ************************************************************************* //
