/*--------------------------------*- C++ -*----------------------------------*\
| =========                 |                                                 |
| \\      /  F ield         | OpenFOAM: The Open Source CFD Toolbox           |
|  \\    /   O peration     | Version:  2212                                  |
|   \\  /    A nd           | Website:  www.openfoam.com                      |
|    \\/     M anipulation  |                                                 |
\*---------------------------------------------------------------------------*/
FoamFile
{
    version     2.0;
    format      ascii;
    arch        "LSB;label=32;scalar=64";
    class       volScalarField;
    location    "18/fluidRegion";
    object      Tcav.nuclearFuelPin;
}
// * * * * * * * * * * * * * * * * * * * * * * * * * * * * * * * * * * * * * //

dimensions      [0 0 0 1 0 0 0];

internalField   nonuniform List<scalar> 
350
(
0
0
0
0
0
0
0
0
0
0
0
0
0
0
0
0
0
0
0
0
0
0
0
0
0
0
0
0
0
0
0
0
0
0
0
0
0
0
0
0
0
0
0
0
0
0
0
0
0
0
1474.14
1516.31
1547.13
1566.58
1574.74
1571.84
1558.23
1534.39
1500.91
1458.54
1408.12
1350.62
1287.1
1218.72
1146.67
1072.1
995.994
918.98
841.079
761.318
677.217
584.241
475.896
346.412
198.461
1494.61
1537.5
1568.85
1588.63
1596.93
1593.98
1580.13
1555.87
1521.8
1478.67
1427.34
1368.79
1304.1
1234.46
1161.07
1085.12
1007.63
929.284
850.119
769.179
683.961
589.853
480.223
349.161
199.394
1470.78
1512.86
1543.61
1563.02
1571.17
1568.3
1554.73
1530.97
1497.6
1455.36
1405.09
1347.76
1284.44
1216.26
1144.43
1070.08
994.193
917.39
839.688
760.114
676.19
583.393
475.249
346.004
198.319
1490.01
1532.72
1563.94
1583.64
1591.9
1588.95
1575.14
1550.96
1517.02
1474.06
1422.93
1364.62
1300.19
1230.84
1157.75
1082.12
1004.95
926.906
848.031
767.363
682.403
588.555
479.222
348.524
199.178
1490.01
1532.72
1563.94
1583.64
1591.9
1588.95
1575.14
1550.96
1517.02
1474.06
1422.93
1364.62
1300.19
1230.84
1157.75
1082.12
1004.95
926.906
848.031
767.363
682.403
588.555
479.222
348.524
199.178
1470.78
1512.86
1543.61
1563.02
1571.18
1568.3
1554.74
1530.97
1497.6
1455.36
1405.09
1347.76
1284.44
1216.27
1144.43
1070.08
994.193
917.391
839.689
760.114
676.191
583.394
475.25
346.004
198.319
1494.61
1537.5
1568.85
1588.63
1596.93
1593.98
1580.13
1555.87
1521.8
1478.67
1427.34
1368.79
1304.1
1234.46
1161.07
1085.12
1007.63
929.284
850.119
769.179
683.961
589.853
480.223
349.161
199.394
1474.14
1516.31
1547.13
1566.58
1574.74
1571.84
1558.23
1534.39
1500.91
1458.54
1408.12
1350.62
1287.1
1218.72
1146.67
1072.1
995.994
918.98
841.079
761.318
677.217
584.241
475.896
346.412
198.461
1490.01
1532.72
1563.94
1583.64
1591.9
1588.95
1575.14
1550.96
1517.02
1474.06
1422.93
1364.62
1300.19
1230.84
1157.75
1082.12
1004.95
926.906
848.031
767.363
682.403
588.555
479.222
348.524
199.178
1470.78
1512.86
1543.61
1563.02
1571.17
1568.3
1554.73
1530.97
1497.6
1455.36
1405.09
1347.76
1284.44
1216.26
1144.43
1070.08
994.193
917.39
839.688
760.114
676.19
583.394
475.249
346.004
198.319
1470.78
1512.86
1543.61
1563.02
1571.17
1568.3
1554.74
1530.97
1497.6
1455.36
1405.09
1347.76
1284.44
1216.27
1144.43
1070.08
994.193
917.391
839.689
760.114
676.191
583.394
475.25
346.004
198.319
1490.01
1532.72
1563.94
1583.64
1591.9
1588.95
1575.14
1550.96
1517.02
1474.06
1422.93
1364.62
1300.19
1230.84
1157.75
1082.12
1004.95
926.906
848.031
767.363
682.403
588.555
479.222
348.524
199.178
)
;

boundaryField
{
    outletCentralUnloaded
    {
        type            zeroGradient;
    }
    inletCentralUnloaded
    {
        type            zeroGradient;
    }
    outletFuelElement
    {
        type            zeroGradient;
    }
    inletFuelElement
    {
        type            zeroGradient;
    }
    defaultFaces
    {
        type            zeroGradient;
    }
    baffle_master
    {
        type            zeroGradient;
    }
    baffle_slave
    {
        type            zeroGradient;
    }
}


// ************************************************************************* //
