/*--------------------------------*- C++ -*----------------------------------*\
| =========                 |                                                 |
| \\      /  F ield         | OpenFOAM: The Open Source CFD Toolbox           |
|  \\    /   O peration     | Version:  2212                                  |
|   \\  /    A nd           | Website:  www.openfoam.com                      |
|    \\/     M anipulation  |                                                 |
\*---------------------------------------------------------------------------*/
FoamFile
{
    version     2.0;
    format      ascii;
    arch        "LSB;label=32;scalar=64";
    class       volScalarField;
    location    "18/fluidRegion";
    object      Tci.nuclearFuelPin;
}
// * * * * * * * * * * * * * * * * * * * * * * * * * * * * * * * * * * * * * //

dimensions      [0 0 0 1 0 0 0];

internalField   nonuniform List<scalar> 
350
(
0
0
0
0
0
0
0
0
0
0
0
0
0
0
0
0
0
0
0
0
0
0
0
0
0
0
0
0
0
0
0
0
0
0
0
0
0
0
0
0
0
0
0
0
0
0
0
0
0
0
1473.01
1524.93
1565.33
1594.03
1610.97
1616.22
1610.02
1592.73
1564.84
1527
1479.98
1424.7
1362.19
1293.58
1220.08
1142.85
1062.91
980.958
897.099
810.464
718.704
617.445
500.388
361.964
204.991
1493.41
1546.16
1587.19
1616.32
1633.5
1638.8
1632.45
1614.81
1586.4
1547.85
1499.97
1443.67
1380
1310.13
1235.27
1156.63
1075.28
991.939
906.751
818.861
725.897
623.413
504.971
364.868
205.975
1469.67
1521.48
1561.79
1590.43
1607.34
1612.6
1606.44
1589.21
1561.42
1523.7
1476.83
1421.72
1359.4
1291
1217.71
1140.7
1060.99
979.26
895.61
809.174
717.605
616.541
499.7
361.531
204.841
1488.82
1541.37
1582.25
1611.27
1628.38
1633.66
1627.34
1609.77
1581.47
1543.08
1495.38
1439.31
1375.91
1306.32
1231.77
1153.45
1072.42
989.405
904.522
816.922
724.235
622.033
503.91
364.195
205.748
1488.82
1541.37
1582.25
1611.27
1628.38
1633.66
1627.34
1609.77
1581.47
1543.08
1495.38
1439.31
1375.91
1306.32
1231.77
1153.45
1072.42
989.405
904.522
816.922
724.235
622.033
503.91
364.195
205.748
1469.67
1521.48
1561.79
1590.43
1607.34
1612.6
1606.44
1589.22
1561.42
1523.7
1476.83
1421.72
1359.4
1291
1217.71
1140.7
1060.99
979.26
895.611
809.175
717.605
616.542
499.701
361.532
204.841
1493.41
1546.16
1587.19
1616.32
1633.5
1638.8
1632.45
1614.81
1586.4
1547.85
1499.97
1443.67
1380
1310.13
1235.27
1156.63
1075.28
991.939
906.751
818.861
725.897
623.413
504.971
364.868
205.975
1473.01
1524.93
1565.33
1594.03
1610.97
1616.22
1610.02
1592.73
1564.84
1527
1479.98
1424.7
1362.19
1293.58
1220.08
1142.85
1062.91
980.958
897.099
810.464
718.704
617.445
500.388
361.964
204.991
1488.82
1541.37
1582.25
1611.27
1628.38
1633.66
1627.34
1609.77
1581.47
1543.08
1495.38
1439.31
1375.91
1306.32
1231.77
1153.45
1072.42
989.405
904.522
816.922
724.235
622.033
503.91
364.195
205.748
1469.67
1521.48
1561.79
1590.43
1607.34
1612.6
1606.44
1589.21
1561.42
1523.7
1476.83
1421.72
1359.4
1291
1217.71
1140.7
1060.99
979.26
895.61
809.174
717.605
616.541
499.7
361.531
204.841
1469.67
1521.48
1561.79
1590.43
1607.34
1612.6
1606.44
1589.22
1561.42
1523.7
1476.83
1421.72
1359.4
1291
1217.71
1140.7
1060.99
979.26
895.611
809.175
717.605
616.541
499.701
361.532
204.841
1488.82
1541.37
1582.25
1611.27
1628.38
1633.66
1627.34
1609.77
1581.47
1543.08
1495.38
1439.31
1375.91
1306.32
1231.77
1153.45
1072.42
989.405
904.522
816.922
724.235
622.033
503.91
364.195
205.748
)
;

boundaryField
{
    outletCentralUnloaded
    {
        type            zeroGradient;
    }
    inletCentralUnloaded
    {
        type            zeroGradient;
    }
    outletFuelElement
    {
        type            zeroGradient;
    }
    inletFuelElement
    {
        type            zeroGradient;
    }
    defaultFaces
    {
        type            zeroGradient;
    }
    baffle_master
    {
        type            zeroGradient;
    }
    baffle_slave
    {
        type            zeroGradient;
    }
}


// ************************************************************************* //
