/*--------------------------------*- C++ -*----------------------------------*\
| =========                 |                                                 |
| \\      /  F ield         | OpenFOAM: The Open Source CFD Toolbox           |
|  \\    /   O peration     | Version:  2212                                  |
|   \\  /    A nd           | Website:  www.openfoam.com                      |
|    \\/     M anipulation  |                                                 |
\*---------------------------------------------------------------------------*/
FoamFile
{
    version     2.0;
    format      ascii;
    arch        "LSB;label=32;scalar=64";
    class       volScalarField;
    location    "18/fluidRegion";
    object      Tco.nuclearFuelPin;
}
// * * * * * * * * * * * * * * * * * * * * * * * * * * * * * * * * * * * * * //

dimensions      [0 0 0 1 0 0 0];

internalField   nonuniform List<scalar> 
350
(
0
0
0
0
0
0
0
0
0
0
0
0
0
0
0
0
0
0
0
0
0
0
0
0
0
0
0
0
0
0
0
0
0
0
0
0
0
0
0
0
0
0
0
0
0
0
0
0
0
0
1475.22
1508.3
1530.18
1541
1540.97
1530.45
1509.92
1479.96
1441.27
1394.67
1341.07
1281.49
1217.03
1148.86
1078.17
1006.08
933.549
861.141
788.799
715.453
638.501
553.254
453.04
331.897
192.365
1495.77
1529.46
1551.77
1562.82
1562.84
1552.18
1531.33
1500.88
1461.53
1414.12
1359.58
1298.92
1233.28
1163.84
1091.82
1018.38
944.508
870.813
797.268
722.814
644.825
558.535
457.129
334.503
193.249
1471.86
1504.85
1526.68
1537.47
1537.45
1526.97
1506.5
1476.63
1438.06
1391.6
1338.16
1278.75
1214.49
1146.53
1076.05
1004.18
931.857
859.652
787.499
714.329
637.541
552.46
452.432
331.512
192.23
1491.16
1524.69
1546.89
1557.87
1557.87
1547.24
1526.45
1496.1
1456.9
1409.67
1355.33
1294.92
1229.54
1160.39
1088.68
1015.55
941.979
868.579
795.311
721.113
643.363
557.313
456.182
333.899
193.045
1491.16
1524.69
1546.89
1557.87
1557.87
1547.24
1526.45
1496.1
1456.9
1409.67
1355.33
1294.92
1229.54
1160.39
1088.68
1015.55
941.979
868.579
795.311
721.113
643.363
557.313
456.182
333.899
193.045
1471.86
1504.85
1526.68
1537.47
1537.45
1526.97
1506.5
1476.63
1438.06
1391.6
1338.16
1278.75
1214.49
1146.53
1076.05
1004.18
931.857
859.652
787.5
714.329
637.541
552.46
452.432
331.513
192.23
1495.77
1529.46
1551.77
1562.82
1562.83
1552.18
1531.33
1500.88
1461.53
1414.12
1359.58
1298.92
1233.28
1163.84
1091.82
1018.38
944.508
870.813
797.268
722.814
644.825
558.535
457.129
334.503
193.249
1475.22
1508.3
1530.18
1541
1540.97
1530.45
1509.92
1479.96
1441.27
1394.67
1341.07
1281.49
1217.03
1148.86
1078.17
1006.08
933.549
861.141
788.799
715.453
638.501
553.254
453.04
331.897
192.365
1491.16
1524.69
1546.89
1557.87
1557.87
1547.24
1526.45
1496.1
1456.9
1409.67
1355.33
1294.92
1229.54
1160.39
1088.68
1015.55
941.979
868.579
795.311
721.113
643.363
557.313
456.182
333.899
193.045
1471.86
1504.85
1526.68
1537.47
1537.45
1526.97
1506.5
1476.63
1438.06
1391.6
1338.16
1278.75
1214.49
1146.53
1076.05
1004.18
931.857
859.652
787.499
714.329
637.541
552.46
452.432
331.512
192.23
1471.86
1504.85
1526.68
1537.47
1537.45
1526.97
1506.5
1476.63
1438.06
1391.6
1338.16
1278.75
1214.49
1146.53
1076.05
1004.18
931.857
859.652
787.5
714.329
637.541
552.46
452.432
331.513
192.23
1491.16
1524.69
1546.89
1557.87
1557.87
1547.24
1526.45
1496.1
1456.9
1409.67
1355.33
1294.92
1229.54
1160.39
1088.68
1015.55
941.979
868.579
795.311
721.113
643.363
557.313
456.182
333.899
193.045
)
;

boundaryField
{
    outletCentralUnloaded
    {
        type            zeroGradient;
    }
    inletCentralUnloaded
    {
        type            zeroGradient;
    }
    outletFuelElement
    {
        type            zeroGradient;
    }
    inletFuelElement
    {
        type            zeroGradient;
    }
    defaultFaces
    {
        type            zeroGradient;
    }
    baffle_master
    {
        type            zeroGradient;
    }
    baffle_slave
    {
        type            zeroGradient;
    }
}


// ************************************************************************* //
