/*--------------------------------*- C++ -*----------------------------------*\
| =========                 |                                                 |
| \\      /  F ield         | OpenFOAM: The Open Source CFD Toolbox           |
|  \\    /   O peration     | Version:  2212                                  |
|   \\  /    A nd           | Website:  www.openfoam.com                      |
|    \\/     M anipulation  |                                                 |
\*---------------------------------------------------------------------------*/
FoamFile
{
    version     2.0;
    format      ascii;
    arch        "LSB;label=32;scalar=64";
    class       volScalarField;
    location    "18/fluidRegion";
    object      Tfav.nuclearFuelPin;
}
// * * * * * * * * * * * * * * * * * * * * * * * * * * * * * * * * * * * * * //

dimensions      [0 0 0 1 0 0 0];

internalField   nonuniform List<scalar> 
350
(
0
0
0
0
0
0
0
0
0
0
0
0
0
0
0
0
0
0
0
0
0
0
0
0
0
0
0
0
0
0
0
0
0
0
0
0
0
0
0
0
0
0
0
0
0
0
0
0
0
0
1424.05
2051.98
2658.15
3233.33
3768.7
4256.09
4688.03
5057.9
5360.07
5589.92
5743.98
5819.95
5816.76
5734.56
5574.69
5339.63
5032.89
4658.85
4222.54
3729.4
3184.83
2593.99
1961.73
1294.13
602.421
1439.98
2075.28
2688.54
3270.4
3811.98
4304.97
4741.83
5115.88
5421.4
5653.73
5809.37
5885.99
5882.51
5799.09
5637.09
5399.05
5088.52
4709.95
4268.44
3769.53
3218.64
2621
1981.46
1306.16
606.46
1421.45
2048.21
2653.27
3227.38
3761.78
4248.29
4679.45
5048.67
5350.31
5579.77
5733.58
5809.45
5806.32
5724.31
5564.78
5330.2
5024.06
4650.75
4215.25
3723.04
3179.48
2589.72
1958.61
1292.23
601.781
1436.38
2069.98
2681.6
3261.92
3802.06
4293.75
4729.48
5102.56
5407.3
5639.06
5794.33
5870.8
5867.38
5784.24
5622.73
5385.37
5075.71
4698.19
4257.87
3760.29
3210.85
2614.78
1976.92
1303.39
605.53
1436.38
2069.98
2681.6
3261.92
3802.06
4293.75
4729.48
5102.56
5407.3
5639.06
5794.33
5870.8
5867.38
5784.24
5622.73
5385.37
5075.71
4698.19
4257.87
3760.28
3210.85
2614.78
1976.92
1303.39
605.53
1421.45
2048.21
2653.27
3227.38
3761.78
4248.29
4679.45
5048.67
5350.31
5579.77
5733.58
5809.45
5806.32
5724.31
5564.78
5330.2
5024.06
4650.75
4215.26
3723.04
3179.48
2589.72
1958.61
1292.23
601.782
1439.98
2075.28
2688.54
3270.41
3811.98
4304.97
4741.83
5115.88
5421.4
5653.73
5809.37
5885.99
5882.51
5799.09
5637.09
5399.05
5088.52
4709.95
4268.44
3769.53
3218.64
2621
1981.47
1306.16
606.46
1424.05
2051.98
2658.16
3233.33
3768.7
4256.09
4688.03
5057.9
5360.07
5589.92
5743.98
5819.95
5816.76
5734.56
5574.69
5339.63
5032.89
4658.85
4222.54
3729.4
3184.83
2593.99
1961.73
1294.13
602.421
1436.38
2069.98
2681.6
3261.92
3802.06
4293.75
4729.48
5102.56
5407.3
5639.06
5794.33
5870.8
5867.38
5784.24
5622.73
5385.37
5075.71
4698.19
4257.87
3760.29
3210.85
2614.78
1976.92
1303.39
605.53
1421.45
2048.21
2653.27
3227.38
3761.78
4248.29
4679.45
5048.67
5350.31
5579.77
5733.58
5809.45
5806.32
5724.31
5564.78
5330.2
5024.06
4650.74
4215.25
3723.04
3179.48
2589.72
1958.61
1292.23
601.782
1421.45
2048.21
2653.27
3227.38
3761.78
4248.29
4679.45
5048.67
5350.31
5579.77
5733.58
5809.45
5806.32
5724.31
5564.78
5330.2
5024.06
4650.75
4215.25
3723.04
3179.48
2589.72
1958.61
1292.23
601.782
1436.38
2069.98
2681.6
3261.92
3802.06
4293.75
4729.48
5102.56
5407.3
5639.06
5794.33
5870.8
5867.38
5784.24
5622.73
5385.37
5075.71
4698.19
4257.87
3760.29
3210.85
2614.78
1976.92
1303.39
605.53
)
;

boundaryField
{
    outletCentralUnloaded
    {
        type            zeroGradient;
    }
    inletCentralUnloaded
    {
        type            zeroGradient;
    }
    outletFuelElement
    {
        type            zeroGradient;
    }
    inletFuelElement
    {
        type            zeroGradient;
    }
    defaultFaces
    {
        type            zeroGradient;
    }
    baffle_master
    {
        type            zeroGradient;
    }
    baffle_slave
    {
        type            zeroGradient;
    }
}


// ************************************************************************* //
