/*--------------------------------*- C++ -*----------------------------------*\
| =========                 |                                                 |
| \\      /  F ield         | OpenFOAM: The Open Source CFD Toolbox           |
|  \\    /   O peration     | Version:  2212                                  |
|   \\  /    A nd           | Website:  www.openfoam.com                      |
|    \\/     M anipulation  |                                                 |
\*---------------------------------------------------------------------------*/
FoamFile
{
    version     2.0;
    format      ascii;
    arch        "LSB;label=32;scalar=64";
    class       volScalarField;
    location    "18/fluidRegion";
    object      Tfi.nuclearFuelPin;
}
// * * * * * * * * * * * * * * * * * * * * * * * * * * * * * * * * * * * * * //

dimensions      [0 0 0 1 0 0 0];

internalField   nonuniform List<scalar> 
350
(
0
0
0
0
0
0
0
0
0
0
0
0
0
0
0
0
0
0
0
0
0
0
0
0
0
0
0
0
0
0
0
0
0
0
0
0
0
0
0
0
0
0
0
0
0
0
0
0
0
0
1384.23
2300.61
3190.48
4040.01
4835.99
5566.06
6218.88
6784.29
7253.53
7619.31
7876
8019.65
8048.07
7960.89
7759.48
7446.96
7028.08
6509.08
5897.48
5201.98
4431.95
3597.45
2708.99
1778.51
821.377
1397.41
2324.44
3224.62
4083.97
4889.13
5627.6
6287.9
6859.77
7334.33
7704.22
7963.75
8108.91
8137.51
8049.16
7845.28
7529.02
7105.19
6580.11
5961.4
5257.86
4478.97
3634.89
2736.24
1795.07
826.931
1382.09
2296.78
3185.01
4032.98
4827.51
5556.25
6207.87
6772.26
7240.66
7605.79
7862.04
8005.44
8033.84
7946.84
7745.83
7433.91
7015.82
6497.79
5887.32
5193.1
4424.48
3591.5
2704.67
1775.88
820.494
1394.42
2318.99
3216.8
4073.88
4876.93
5613.46
6272.03
6842.41
7315.74
7684.69
7943.56
8088.37
8116.93
8028.84
7825.53
7510.13
7087.44
6563.75
5946.68
5245
4468.14
3626.27
2729.97
1791.25
825.652
1394.42
2318.99
3216.8
4073.88
4876.93
5613.46
6272.03
6842.41
7315.74
7684.69
7943.56
8088.37
8116.93
8028.84
7825.53
7510.13
7087.44
6563.75
5946.68
5245
4468.14
3626.27
2729.97
1791.25
825.652
1382.09
2296.78
3185.01
4032.98
4827.51
5556.25
6207.87
6772.26
7240.66
7605.79
7862.04
8005.44
8033.84
7946.84
7745.83
7433.91
7015.82
6497.79
5887.32
5193.1
4424.48
3591.5
2704.67
1775.88
820.494
1397.41
2324.44
3224.62
4083.97
4889.13
5627.6
6287.9
6859.77
7334.33
7704.22
7963.75
8108.91
8137.51
8049.16
7845.28
7529.02
7105.19
6580.11
5961.4
5257.86
4478.97
3634.89
2736.25
1795.07
826.931
1384.23
2300.61
3190.48
4040.01
4835.99
5566.06
6218.88
6784.29
7253.53
7619.31
7876
8019.65
8048.07
7960.89
7759.48
7446.96
7028.08
6509.08
5897.48
5201.98
4431.95
3597.45
2708.99
1778.51
821.377
1394.42
2318.99
3216.8
4073.88
4876.93
5613.46
6272.03
6842.41
7315.74
7684.69
7943.56
8088.37
8116.93
8028.84
7825.53
7510.13
7087.44
6563.75
5946.68
5245
4468.14
3626.27
2729.97
1791.25
825.652
1382.09
2296.78
3185.01
4032.98
4827.51
5556.25
6207.87
6772.26
7240.66
7605.79
7862.04
8005.44
8033.84
7946.84
7745.83
7433.91
7015.82
6497.79
5887.32
5193.1
4424.48
3591.5
2704.67
1775.88
820.494
1382.09
2296.78
3185.01
4032.98
4827.51
5556.25
6207.87
6772.26
7240.66
7605.79
7862.04
8005.44
8033.84
7946.84
7745.83
7433.91
7015.82
6497.79
5887.32
5193.1
4424.48
3591.5
2704.67
1775.88
820.494
1394.42
2318.99
3216.8
4073.88
4876.93
5613.46
6272.03
6842.41
7315.74
7684.69
7943.56
8088.37
8116.93
8028.84
7825.53
7510.13
7087.44
6563.75
5946.68
5245
4468.14
3626.27
2729.97
1791.25
825.652
)
;

boundaryField
{
    outletCentralUnloaded
    {
        type            zeroGradient;
    }
    inletCentralUnloaded
    {
        type            zeroGradient;
    }
    outletFuelElement
    {
        type            zeroGradient;
    }
    inletFuelElement
    {
        type            zeroGradient;
    }
    defaultFaces
    {
        type            zeroGradient;
    }
    baffle_master
    {
        type            zeroGradient;
    }
    baffle_slave
    {
        type            zeroGradient;
    }
}


// ************************************************************************* //
