/*--------------------------------*- C++ -*----------------------------------*\
| =========                 |                                                 |
| \\      /  F ield         | OpenFOAM: The Open Source CFD Toolbox           |
|  \\    /   O peration     | Version:  2212                                  |
|   \\  /    A nd           | Website:  www.openfoam.com                      |
|    \\/     M anipulation  |                                                 |
\*---------------------------------------------------------------------------*/
FoamFile
{
    version     2.0;
    format      ascii;
    arch        "LSB;label=32;scalar=64";
    class       scalarFieldField;
    location    "18/fluidRegion";
    object      Trad.nuclearFuelPin;
}
// * * * * * * * * * * * * * * * * * * * * * * * * * * * * * * * * * * * * * //


350
(
0()
0()
0()
0()
0()
0()
0()
0()
0()
0()
0()
0()
0()
0()
0()
0()
0()
0()
0()
0()
0()
0()
0()
0()
0()
0()
0()
0()
0()
0()
0()
0()
0()
0()
0()
0()
0()
0()
0()
0()
0()
0()
0()
0()
0()
0()
0()
0()
0()
0()

20
(
1384.23
1384.64
1385.88
1387.92
1390.76
1394.36
1398.69
1403.69
1409.29
1415.42
1421.95
1428.77
1435.7
1442.57
1449.15
1455.18
1473.01
1473.75
1474.48
1475.22
)


20
(
2300.61
2298.64
2292.71
2282.77
2268.73
2250.45
2227.78
2200.5
2168.39
2131.16
2088.49
2040.02
1985.36
1924.08
1855.7
1779.71
1524.93
1519.18
1513.63
1508.3
)


20
(
3190.48
3186.17
3173.19
3151.44
3120.78
3080.97
3031.73
2972.7
2903.48
2823.61
2732.56
2629.75
2514.55
2386.31
2244.3
2087.77
1565.33
1553.2
1541.49
1530.18
)


20
(
4040.01
4033.42
4013.61
3980.45
3933.7
3873.06
3798.1
3708.35
3603.25
3482.13
3344.29
3188.95
3015.26
2822.32
2609.19
2374.88
1594.03
1575.74
1558.07
1541
)


20
(
4835.99
4827.24
4800.95
4756.93
4694.89
4614.43
4515.04
4396.1
4256.89
4096.6
3914.33
3709.11
3479.88
3225.55
2944.94
2636.87
1610.97
1586.84
1563.52
1540.97
)


20
(
5566.06
5555.3
5522.96
5468.81
5392.52
5293.6
5171.44
5025.3
4854.33
4657.56
4433.92
4182.27
3901.37
3589.92
3246.57
2869.92
1616.22
1586.67
1558.09
1530.45
)


20
(
6218.88
6206.28
6168.42
6105.05
6015.78
5900.05
5757.15
5586.24
5386.35
5156.37
4895.1
4601.21
4273.32
3909.94
3509.56
3070.61
1610.02
1575.53
1542.18
1509.92
)


20
(
6784.29
6770.07
6727.32
6655.78
6555
6424.36
6263.09
6070.24
5844.74
5585.37
5290.78
4959.52
4590.07
4180.79
3730.02
3236.03
1592.73
1553.88
1516.31
1479.96
)


20
(
7253.53
7237.91
7190.98
7112.44
7001.81
6858.43
6681.44
6469.83
6222.44
5937.95
5614.9
5251.75
4846.82
4398.39
3904.65
3363.78
1564.84
1522.27
1481.11
1441.27
)


20
(
7619.31
7602.56
7552.22
7467.98
7349.32
7195.54
7005.75
6778.86
6513.65
6208.71
5862.53
5473.44
5039.7
4559.49
4030.91
3452.03
1527
1481.41
1437.33
1394.67
)


20
(
7876
7858.39
7805.47
7716.9
7592.16
7430.51
7231.03
6992.59
6713.91
6393.54
6029.89
5621.26
5165.83
4661.71
4106.95
3499.55
1479.98
1432.13
1385.85
1341.07
)


20
(
8019.65
8001.47
7946.82
7855.38
7726.61
7559.75
7353.84
7107.76
6820.18
6489.63
6114.49
5693.01
5223.36
4703.59
4131.74
3505.77
1424.7
1375.37
1327.66
1281.49
)


20
(
8048.07
8029.62
7974.15
7881.34
7750.65
7581.3
7372.36
7122.67
6830.91
6495.59
6115.1
5687.69
5211.5
4684.61
4105.02
3470.72
1362.19
1312.19
1263.83
1217.03
)


20
(
7960.89
7942.46
7887.08
7794.43
7663.95
7494.91
7286.36
7037.15
6746
6411.42
6031.83
5605.49
5130.57
4605.18
4027.35
3395.09
1293.58
1243.74
1195.53
1148.86
)


20
(
7759.48
7741.38
7687.01
7596.03
7467.92
7301.95
7097.21
6852.59
6566.82
6238.48
5866.01
5447.74
4981.89
4466.61
3900.01
3280.16
1220.08
1171.2
1123.93
1078.17
)


20
(
7446.96
7429.5
7377.02
7289.21
7165.57
7005.41
6807.85
6571.84
6296.16
5979.45
5620.24
5216.91
4767.77
4271.08
3725
3127.72
1142.85
1095.74
1050.18
1006.08
)


20
(
7028.08
7011.54
6961.81
6878.62
6761.49
6609.78
6422.66
6199.13
5938.08
5638.22
5298.17
4916.42
4491.39
4021.44
3504.88
2939.97
1062.91
1018.35
975.263
933.549
)


20
(
6509.08
6493.73
6447.58
6370.37
6261.68
6120.9
5947.29
5739.94
5497.81
5219.73
4904.44
4550.55
4156.63
3721.16
3242.59
2719.36
980.958
939.692
899.779
861.141
)


20
(
5897.48
5883.56
5841.74
5771.79
5673.31
5545.77
5388.51
5200.73
4981.49
4729.75
4444.38
4124.17
3767.81
3373.97
2941.27
2468.3
897.099
859.799
823.723
788.799
)


20
(
5201.98
5189.73
5152.91
5091.33
5004.64
4892.41
4754.04
4588.85
4396.04
4174.71
3923.89
3642.54
3329.53
2983.71
2603.9
2188.89
810.464
777.741
746.092
715.453
)


20
(
4431.95
4421.55
4390.31
4338.05
4264.51
4169.32
4052
3911.99
3748.62
3561.18
3348.86
3110.79
2846.07
2553.76
2232.87
1882.41
718.704
691.081
664.364
638.501
)


20
(
3597.45
3589.05
3563.83
3521.65
3462.32
3385.54
3290.97
3178.15
3046.61
2895.79
2725.07
2533.79
2321.28
2086.8
1829.61
1548.95
617.445
595.337
573.953
553.254
)


20
(
2708.99
2702.7
2683.81
2652.23
2607.82
2550.4
2479.72
2395.5
2297.41
2185.08
2058.11
1916.05
1758.44
1584.81
1394.65
1187.47
500.388
484.08
468.308
453.04
)


20
(
1778.51
1774.37
1761.97
1741.25
1712.15
1674.58
1628.42
1573.53
1509.76
1436.93
1354.85
1263.3
1162.06
1050.91
929.601
797.901
361.964
351.609
341.594
331.897
)


20
(
821.377
819.424
813.567
803.808
790.156
772.617
751.202
725.926
696.804
663.855
627.098
586.556
542.256
494.222
442.483
387.07
204.991
200.644
196.439
192.365
)


20
(
1397.41
1397.85
1399.16
1401.34
1404.35
1408.18
1412.79
1418.12
1424.09
1430.63
1437.62
1444.93
1452.4
1459.83
1466.99
1473.63
1493.41
1494.2
1494.98
1495.77
)


20
(
2324.44
2322.46
2316.53
2306.58
2292.53
2274.23
2251.53
2224.22
2192.05
2154.74
2111.97
2063.37
2008.55
1947.05
1878.4
1802.09
1546.16
1540.38
1534.81
1529.46
)


20
(
3224.62
3220.27
3207.21
3185.33
3154.46
3114.39
3064.82
3005.39
2935.7
2855.27
2763.56
2660
2543.95
2414.73
2271.61
2113.83
1587.19
1574.97
1563.16
1551.77
)


20
(
4083.97
4077.32
4057.36
4023.92
3976.79
3915.64
3840.07
3749.57
3643.58
3521.43
3382.41
3225.72
3050.5
2855.84
2640.79
2404.34
1616.32
1597.87
1580.04
1562.82
)


20
(
4889.13
4880.31
4853.77
4809.36
4746.76
4665.58
4565.28
4445.26
4304.77
4143
3959.04
3751.89
3520.5
3263.75
2980.45
2669.39
1633.5
1609.14
1585.6
1562.84
)


20
(
5627.6
5616.74
5584.09
5529.43
5452.42
5352.56
5229.24
5081.7
4909.09
4710.41
4484.61
4230.5
3946.84
3632.3
3285.53
2905.11
1638.8
1608.95
1580.09
1552.18
)


20
(
6287.9
6275.18
6236.95
6172.97
6082.82
5965.95
5821.65
5649.06
5447.19
5214.93
4951.04
4654.21
4323.01
3955.95
3551.5
3108.05
1632.45
1597.61
1563.92
1531.33
)


20
(
6859.77
6845.4
6802.23
6729.97
6628.18
6496.24
6333.35
6138.56
5910.79
5648.78
5351.2
5016.56
4643.31
4229.82
3774.38
3275.25
1614.81
1575.56
1537.6
1500.88
)


20
(
7334.33
7318.55
7271.15
7191.81
7080.06
6935.22
6756.42
6542.66
6292.73
6005.31
5678.94
5312.02
4902.89
4449.78
3950.87
3404.3
1586.4
1543.38
1501.78
1461.53
)


20
(
7704.22
7687.3
7636.44
7551.34
7431.46
7276.1
7084.35
6855.12
6587.16
6279.05
5929.26
5536.1
5097.81
4612.54
4078.37
3493.35
1547.85
1501.78
1457.24
1414.12
)


20
(
7963.75
7945.96
7892.48
7803
7676.96
7513.64
7312.08
7071.15
6789.55
6465.83
6098.36
5685.42
5225.18
4715.71
4155.04
3541.16
1499.97
1451.61
1404.84
1359.58
)


20
(
8108.91
8090.54
8035.32
7942.93
7812.81
7644.2
7436.14
7187.47
6896.86
6562.82
6183.71
5757.76
5283.11
4757.8
4179.82
3547.13
1443.67
1393.81
1345.59
1298.92
)


20
(
8137.51
8118.86
8062.81
7969.03
7836.96
7665.83
7454.68
7202.35
6907.5
6568.63
6184.09
5752.12
5270.84
4738.3
4152.47
3511.32
1380
1329.46
1280.59
1233.28
)


20
(
8049.16
8030.54
7974.58
7880.95
7749.09
7578.26
7367.49
7115.64
6821.39
6483.25
6099.6
5668.69
5188.67
4657.62
4073.55
3434.44
1310.13
1259.74
1211.01
1163.84
)


20
(
7845.28
7826.99
7772.04
7680.09
7550.62
7382.89
7175.97
6928.74
6639.92
6308.07
5931.6
5508.83
5037.96
4517.11
3944.37
3317.77
1235.27
1185.86
1138.08
1091.82
)


20
(
7529.02
7511.37
7458.32
7369.58
7244.63
7082.76
6883.09
6644.56
6365.92
6045.82
5682.73
5275.05
4821.06
4318.98
3766.97
3163.17
1156.63
1109.02
1062.96
1018.38
)


20
(
7105.19
7088.46
7038.21
6954.13
6835.75
6682.42
6493.29
6267.37
6003.52
5700.43
5356.71
4970.84
4541.2
4066.15
3543.95
2972.88
1075.28
1030.24
986.677
944.508
)


20
(
6580.11
6564.58
6517.94
6439.91
6330.06
6187.78
6012.31
5802.74
5558
5276.94
4958.24
4600.52
4202.33
3762.12
3278.34
2749.38
991.939
950.222
909.873
870.813
)


20
(
5961.4
5947.33
5905.07
5834.36
5734.84
5605.94
5447.01
5257.21
5035.62
4781.17
4492.73
4169.06
3808.84
3410.72
2973.3
2495.15
906.751
869.044
832.573
797.268
)


20
(
5257.86
5245.48
5208.27
5146.04
5058.44
4945.01
4805.17
4638.22
4443.35
4219.66
3966.16
3681.77
3365.38
3015.82
2631.88
2212.34
818.861
785.781
753.787
722.814
)


20
(
4478.97
4468.46
4436.89
4384.09
4309.79
4213.6
4095.04
3953.55
3788.47
3599.04
3384.46
3143.85
2876.3
2580.84
2256.49
1902.23
725.897
697.975
670.968
644.825
)


20
(
3634.89
3626.41
3600.93
3558.33
3498.38
3420.82
3325.27
3211.29
3078.39
2925.99
2753.49
2560.21
2345.46
2108.49
1848.56
1564.91
623.413
601.068
579.456
558.535
)


20
(
2736.24
2729.89
2710.81
2678.92
2634.07
2576.08
2504.71
2419.65
2320.58
2207.12
2078.86
1935.36
1776.14
1600.72
1408.59
1199.25
504.971
488.493
472.556
457.129
)


20
(
1795.07
1790.9
1778.38
1757.47
1728.11
1690.19
1643.61
1588.22
1523.86
1450.35
1367.49
1275.07
1172.87
1060.63
938.141
805.139
364.868
354.41
344.295
334.503
)


20
(
826.931
824.966
819.071
809.25
795.509
777.856
756.301
730.856
701.536
668.359
631.343
590.51
545.884
497.49
445.354
389.505
205.975
201.594
197.355
193.249
)


20
(
1382.09
1382.5
1383.72
1385.74
1388.55
1392.11
1396.39
1401.34
1406.88
1412.94
1419.39
1426.13
1432.97
1439.75
1446.23
1452.16
1469.67
1470.4
1471.12
1471.86
)


20
(
2296.78
2294.81
2288.88
2278.94
2264.89
2246.62
2223.95
2196.68
2164.57
2127.35
2084.69
2036.24
1981.61
1920.36
1852.02
1776.08
1521.48
1515.72
1510.18
1504.85
)


20
(
3185.01
3180.7
3167.73
3146.01
3115.38
3075.61
3026.42
2967.46
2898.31
2818.53
2727.57
2624.88
2509.82
2381.73
2239.9
2083.56
1561.79
1549.67
1537.97
1526.68
)


20
(
4032.98
4026.4
4006.62
3973.5
3926.81
3866.24
3791.39
3701.76
3596.79
3475.84
3338.19
3183.06
3009.61
2816.94
2604.11
2370.14
1590.43
1572.17
1554.52
1537.47
)


20
(
4827.51
4818.77
4792.51
4748.55
4686.6
4606.26
4507.01
4388.24
4249.24
4089.18
3907.18
3702.27
3473.38
3219.43
2939.26
2631.66
1607.34
1583.25
1559.96
1537.45
)


20
(
5556.25
5545.5
5513.2
5459.14
5382.96
5284.2
5162.22
5016.3
4845.59
4649.12
4425.83
4174.57
3894.11
3583.15
3240.34
2864.29
1612.6
1583.09
1554.56
1526.97
)


20
(
6207.87
6195.3
6157.5
6094.23
6005.09
5889.54
5746.86
5576.22
5376.65
5147.04
4886.17
4592.76
4265.39
3902.6
3502.87
3064.64
1606.44
1572.01
1538.71
1506.5
)


20
(
6772.26
6758.06
6715.38
6643.96
6543.33
6412.91
6251.89
6059.36
5834.22
5575.26
5281.15
4950.44
4581.58
4172.98
3722.95
3229.78
1589.21
1550.43
1512.92
1476.63
)


20
(
7240.66
7225.07
7178.21
7099.8
6989.35
6846.2
6669.5
6458.24
6211.25
5927.22
5604.71
5242.15
4837.9
4390.21
3897.3
3357.33
1561.42
1518.92
1477.83
1438.06
)


20
(
7605.79
7589.07
7538.81
7454.71
7336.24
7182.72
6993.23
6766.72
6501.95
6197.52
5851.91
5463.47
5030.46
4551.05
4023.36
3445.46
1523.7
1478.19
1434.18
1391.6
)


20
(
7862.04
7844.45
7791.61
7703.19
7578.66
7417.28
7218.13
6980.09
6701.87
6382.03
6019
5611.06
5156.4
4653.13
4099.31
3492.95
1476.83
1429.06
1382.86
1338.16
)


20
(
8005.44
7987.29
7932.74
7841.45
7712.9
7546.31
7340.75
7095.08
6807.99
6477.99
6103.48
5682.72
5213.86
4694.99
4124.11
3499.21
1421.72
1372.47
1324.85
1278.75
)


20
(
8033.84
8015.42
7960.05
7867.39
7736.92
7567.86
7359.27
7110
6818.73
6483.98
6104.14
5677.46
5202.08
4676.09
4097.5
3464.29
1359.4
1309.48
1261.21
1214.49
)


20
(
7946.84
7928.45
7873.17
7780.67
7650.41
7481.66
7273.45
7024.67
6734.01
6400.01
6021.06
5595.45
5121.35
4596.86
4020.03
3388.86
1291
1241.24
1193.11
1146.53
)


20
(
7745.83
7727.77
7673.48
7582.66
7454.77
7289.08
7084.69
6840.48
6555.2
6227.43
5855.6
5438.04
4972.99
4458.61
3892.99
3274.21
1217.71
1168.92
1121.73
1076.05
)


20
(
7433.91
7416.48
7364.08
7276.43
7153
6993.12
6795.89
6560.28
6285.07
5968.91
5610.31
5207.68
4759.32
4263.48
3718.36
3122.11
1140.7
1093.68
1048.2
1004.18
)


20
(
7015.82
6999.31
6949.66
6866.62
6749.69
6598.23
6411.43
6188.29
5927.68
5628.34
5288.87
4907.78
4483.49
4014.36
3498.69
2934.77
1060.99
1016.51
973.498
931.857
)


20
(
6497.79
6482.46
6436.39
6359.31
6250.81
6110.27
5936.96
5729.96
5488.24
5210.65
4895.89
4542.62
4149.38
3714.67
3236.94
2714.62
979.26
938.065
898.222
859.652
)


20
(
5887.32
5873.43
5831.68
5761.84
5663.53
5536.21
5379.22
5191.76
4972.89
4721.59
4436.71
4117.05
3761.31
3368.16
2936.2
2464.06
895.61
858.376
822.362
787.499
)


20
(
5193.1
5180.87
5144.11
5082.63
4996.1
4884.05
4745.92
4581.01
4388.52
4167.58
3917.19
3636.32
3323.85
2978.63
2599.48
2185.19
809.174
776.508
744.914
714.329
)


20
(
4424.48
4414.1
4382.9
4330.74
4257.32
4162.29
4045.17
3905.39
3742.3
3555.17
3343.21
3105.55
2841.29
2549.48
2229.14
1879.29
717.605
690.03
663.359
637.541
)


20
(
3591.5
3583.12
3557.94
3515.83
3456.59
3379.95
3285.52
3172.9
3041.58
2891
2720.56
2529.61
2317.46
2083.38
1826.62
1546.45
616.541
594.47
573.124
552.46
)


20
(
2704.67
2698.39
2679.52
2647.99
2603.65
2546.32
2475.76
2391.68
2293.74
2181.6
2054.83
1913
1755.65
1582.3
1392.46
1185.63
499.7
483.42
467.674
452.432
)


20
(
1775.88
1771.75
1759.37
1738.68
1709.62
1672.1
1626.01
1571.2
1507.53
1434.81
1352.85
1261.44
1160.36
1049.38
928.262
796.772
361.531
351.193
341.193
331.512
)


20
(
820.494
818.544
812.692
802.944
789.306
771.785
750.393
725.144
696.054
663.141
626.425
585.931
541.682
493.706
442.031
386.688
204.841
200.499
196.299
192.23
)


20
(
1394.42
1394.85
1396.15
1398.29
1401.27
1405.05
1409.6
1414.85
1420.74
1427.19
1434.08
1441.28
1448.63
1455.93
1462.97
1469.47
1488.82
1489.6
1490.37
1491.16
)


20
(
2318.99
2317.02
2311.09
2301.14
2287.09
2268.8
2246.11
2218.81
2186.66
2149.37
2106.62
2058.06
2003.28
1941.84
1873.25
1797.02
1541.37
1535.6
1530.04
1524.69
)


20
(
3216.8
3212.46
3199.41
3177.57
3146.75
3106.74
3057.24
2997.91
2928.33
2848.03
2756.48
2653.09
2537.24
2408.25
2265.39
2107.91
1582.25
1570.05
1558.26
1546.89
)


20
(
4073.88
4067.25
4047.32
4013.95
3966.91
3905.88
3830.45
3740.12
3634.34
3512.43
3373.68
3217.3
3042.44
2848.18
2633.58
2397.63
1611.27
1592.86
1575.07
1557.87
)


20
(
4876.93
4868.12
4841.64
4797.32
4734.85
4653.83
4553.75
4433.98
4293.79
4132.36
3948.79
3742.09
3511.2
3255
2972.33
2661.96
1628.38
1604.08
1580.59
1557.87
)


20
(
5613.46
5602.62
5570.04
5515.5
5438.66
5339.02
5215.96
5068.75
4896.51
4698.28
4472.98
4219.43
3936.41
3622.59
3276.61
2897.06
1633.66
1603.88
1575.09
1547.24
)


20
(
6272.03
6259.34
6221.2
6157.36
6067.41
5950.8
5806.83
5634.62
5433.21
5201.48
4938.2
4642.04
4311.61
3945.4
3541.88
3099.47
1627.34
1592.58
1558.97
1526.45
)


20
(
6842.41
6828.08
6785
6712.91
6611.35
6479.71
6317.19
6122.86
5895.6
5634.21
5337.31
5003.46
4631.09
4218.56
3764.2
3266.26
1609.77
1570.61
1532.74
1496.1
)


20
(
7315.74
7300
7252.71
7173.56
7062.06
6917.55
6739.18
6525.91
6276.57
5989.82
5664.22
5298.17
4890.01
4437.97
3940.26
3395
1581.47
1538.55
1497.06
1456.9
)


20
(
7684.69
7667.81
7617.07
7532.16
7412.56
7257.57
7066.27
6837.58
6570.25
6262.87
5913.91
5521.69
5084.45
4600.35
4067.46
3483.86
1543.08
1497.12
1452.68
1409.67
)


20
(
7943.56
7925.81
7872.46
7783.18
7657.45
7494.51
7293.43
7053.07
6772.15
6449.19
6082.61
5670.66
5211.53
4703.29
4143.98
3531.59
1495.38
1447.14
1400.49
1355.33
)


20
(
8088.37
8070.04
8014.96
7922.78
7792.97
7624.77
7417.2
7169.13
6879.22
6545.98
6167.78
5742.87
5269.36
4745.33
4168.76
3537.62
1439.31
1389.57
1341.47
1294.92
)


20
(
8116.93
8098.32
8042.41
7948.85
7817.09
7646.38
7435.74
7184.01
6889.87
6551.82
6168.22
5737.29
5257.19
4725.94
4141.55
3501.98
1375.91
1325.49
1276.74
1229.54
)


20
(
8028.84
8010.27
7954.44
7861.03
7729.5
7559.08
7348.82
7097.58
6804.04
6466.72
6084
5654.14
5175.3
4645.55
4062.91
3425.38
1306.32
1256.06
1207.45
1160.39
)


20
(
7825.53
7807.29
7752.47
7660.74
7531.59
7364.26
7157.84
6911.21
6623.09
6292.05
5916.5
5494.77
5025.05
4505.49
3934.16
3309.11
1231.77
1182.49
1134.82
1088.68
)


20
(
7510.13
7492.52
7439.61
7351.08
7226.43
7064.96
6865.77
6627.82
6349.86
6030.54
5668.34
5261.66
4808.79
4307.95
3757.3
3155.01
1153.45
1105.96
1060.02
1015.55
)


20
(
7087.44
7070.75
7020.62
6936.75
6818.66
6665.69
6477.03
6251.66
5988.45
5686.11
5343.23
4958.31
4529.73
4055.85
3534.95
2965.3
1072.42
1027.5
984.043
941.979
)


20
(
6563.75
6548.27
6501.74
6423.9
6314.32
6172.38
5997.34
5788.28
5544.14
5263.76
4945.85
4589.02
4191.8
3752.69
3270.11
2742.47
989.405
947.791
907.542
868.579
)


20
(
5946.68
5932.65
5890.49
5819.96
5720.67
5592.09
5433.54
5244.2
5023.15
4769.33
4481.6
4158.72
3799.39
3402.26
2965.92
2488.97
904.522
866.909
830.529
795.311
)


20
(
5245
5232.65
5195.53
5133.44
5046.05
4932.9
4793.4
4626.85
4432.46
4209.31
3956.42
3672.74
3357.13
3008.43
2625.44
2206.94
816.922
783.924
752.009
721.113
)


20
(
4468.14
4457.66
4426.17
4373.49
4299.36
4203.4
4085.13
3943.98
3779.29
3590.32
3376.26
3136.24
2869.34
2574.6
2251.05
1897.66
724.235
696.382
669.442
643.363
)


20
(
3626.27
3617.81
3592.39
3549.88
3490.08
3412.7
3317.37
3203.66
3071.07
2919.04
2746.94
2554.13
2339.89
2103.49
1844.2
1561.23
622.033
599.742
578.183
557.313
)


20
(
2729.97
2723.63
2704.59
2672.77
2628.03
2570.17
2498.95
2414.09
2315.25
2202.05
2074.08
1930.91
1772.06
1597.05
1405.38
1196.53
503.91
487.472
471.573
456.182
)


20
(
1791.25
1787.09
1774.6
1753.74
1724.43
1686.6
1640.11
1584.84
1520.62
1447.26
1364.58
1272.36
1170.38
1058.39
936.172
803.469
364.195
353.761
343.669
333.899
)


20
(
825.652
823.69
817.804
807.997
794.277
776.65
755.127
729.721
700.446
667.321
630.365
589.6
545.048
496.737
444.693
388.944
205.748
201.375
197.143
193.045
)


20
(
1394.42
1394.85
1396.15
1398.29
1401.27
1405.05
1409.6
1414.85
1420.74
1427.19
1434.08
1441.28
1448.63
1455.93
1462.97
1469.47
1488.82
1489.6
1490.37
1491.16
)


20
(
2318.99
2317.02
2311.09
2301.14
2287.09
2268.8
2246.11
2218.81
2186.66
2149.37
2106.62
2058.06
2003.28
1941.84
1873.25
1797.02
1541.37
1535.6
1530.04
1524.69
)


20
(
3216.8
3212.46
3199.41
3177.57
3146.75
3106.74
3057.25
2997.91
2928.33
2848.03
2756.48
2653.09
2537.24
2408.25
2265.39
2107.91
1582.25
1570.05
1558.26
1546.89
)


20
(
4073.88
4067.25
4047.32
4013.95
3966.91
3905.88
3830.45
3740.12
3634.34
3512.43
3373.68
3217.3
3042.44
2848.18
2633.58
2397.63
1611.27
1592.86
1575.07
1557.87
)


20
(
4876.93
4868.12
4841.64
4797.32
4734.85
4653.83
4553.75
4433.98
4293.79
4132.36
3948.79
3742.09
3511.2
3255
2972.33
2661.96
1628.38
1604.08
1580.59
1557.87
)


20
(
5613.46
5602.62
5570.04
5515.5
5438.66
5339.02
5215.96
5068.75
4896.51
4698.28
4472.98
4219.43
3936.41
3622.59
3276.61
2897.05
1633.66
1603.88
1575.09
1547.24
)


20
(
6272.03
6259.34
6221.2
6157.36
6067.41
5950.8
5806.83
5634.62
5433.21
5201.48
4938.2
4642.04
4311.61
3945.4
3541.88
3099.47
1627.34
1592.58
1558.97
1526.45
)


20
(
6842.41
6828.08
6785
6712.91
6611.35
6479.71
6317.19
6122.86
5895.6
5634.21
5337.31
5003.46
4631.08
4218.56
3764.2
3266.26
1609.77
1570.61
1532.74
1496.1
)


20
(
7315.74
7300
7252.71
7173.56
7062.06
6917.55
6739.18
6525.91
6276.57
5989.82
5664.22
5298.17
4890
4437.97
3940.26
3395
1581.47
1538.55
1497.06
1456.9
)


20
(
7684.69
7667.81
7617.07
7532.16
7412.56
7257.57
7066.27
6837.58
6570.25
6262.87
5913.91
5521.69
5084.45
4600.35
4067.46
3483.86
1543.08
1497.12
1452.68
1409.67
)


20
(
7943.56
7925.81
7872.46
7783.18
7657.45
7494.51
7293.43
7053.07
6772.15
6449.19
6082.61
5670.66
5211.53
4703.29
4143.98
3531.59
1495.38
1447.14
1400.49
1355.33
)


20
(
8088.37
8070.04
8014.96
7922.78
7792.97
7624.77
7417.2
7169.13
6879.22
6545.98
6167.78
5742.86
5269.36
4745.33
4168.76
3537.62
1439.31
1389.57
1341.47
1294.92
)


20
(
8116.93
8098.32
8042.41
7948.85
7817.09
7646.38
7435.74
7184.01
6889.87
6551.82
6168.22
5737.29
5257.19
4725.94
4141.55
3501.98
1375.91
1325.49
1276.74
1229.54
)


20
(
8028.84
8010.27
7954.44
7861.03
7729.5
7559.08
7348.82
7097.58
6804.04
6466.72
6084
5654.14
5175.3
4645.55
4062.91
3425.38
1306.32
1256.06
1207.45
1160.39
)


20
(
7825.53
7807.29
7752.46
7660.74
7531.59
7364.26
7157.84
6911.21
6623.09
6292.05
5916.5
5494.77
5025.05
4505.49
3934.16
3309.11
1231.77
1182.49
1134.82
1088.68
)


20
(
7510.13
7492.52
7439.61
7351.08
7226.43
7064.96
6865.77
6627.82
6349.86
6030.54
5668.34
5261.66
4808.79
4307.95
3757.3
3155.01
1153.45
1105.96
1060.02
1015.55
)


20
(
7087.44
7070.75
7020.62
6936.75
6818.66
6665.69
6477.03
6251.66
5988.45
5686.11
5343.23
4958.31
4529.73
4055.85
3534.95
2965.3
1072.42
1027.5
984.043
941.979
)


20
(
6563.75
6548.27
6501.74
6423.9
6314.32
6172.38
5997.34
5788.28
5544.14
5263.76
4945.85
4589.02
4191.8
3752.69
3270.11
2742.47
989.405
947.791
907.542
868.579
)


20
(
5946.68
5932.65
5890.49
5819.96
5720.67
5592.09
5433.54
5244.2
5023.15
4769.33
4481.6
4158.72
3799.39
3402.26
2965.92
2488.97
904.522
866.909
830.529
795.311
)


20
(
5245
5232.64
5195.53
5133.44
5046.05
4932.9
4793.4
4626.85
4432.46
4209.31
3956.42
3672.74
3357.13
3008.43
2625.44
2206.94
816.922
783.924
752.009
721.113
)


20
(
4468.14
4457.66
4426.17
4373.49
4299.36
4203.4
4085.13
3943.98
3779.29
3590.32
3376.26
3136.24
2869.34
2574.6
2251.05
1897.66
724.235
696.382
669.442
643.363
)


20
(
3626.27
3617.81
3592.39
3549.88
3490.08
3412.7
3317.37
3203.66
3071.07
2919.04
2746.94
2554.13
2339.89
2103.49
1844.2
1561.23
622.033
599.743
578.183
557.313
)


20
(
2729.97
2723.63
2704.59
2672.77
2628.03
2570.17
2498.95
2414.09
2315.25
2202.05
2074.08
1930.91
1772.06
1597.05
1405.38
1196.53
503.91
487.472
471.573
456.182
)


20
(
1791.25
1787.09
1774.6
1753.74
1724.43
1686.6
1640.11
1584.84
1520.62
1447.26
1364.58
1272.36
1170.38
1058.39
936.172
803.469
364.195
353.761
343.669
333.899
)


20
(
825.652
823.69
817.804
807.997
794.277
776.65
755.127
729.721
700.446
667.321
630.365
589.6
545.048
496.737
444.693
388.944
205.748
201.375
197.143
193.045
)


20
(
1382.09
1382.5
1383.72
1385.74
1388.55
1392.11
1396.39
1401.34
1406.88
1412.94
1419.4
1426.13
1432.98
1439.75
1446.23
1452.16
1469.67
1470.4
1471.12
1471.86
)


20
(
2296.78
2294.81
2288.88
2278.94
2264.9
2246.62
2223.95
2196.68
2164.57
2127.35
2084.69
2036.25
1981.61
1920.36
1852.02
1776.08
1521.48
1515.72
1510.18
1504.85
)


20
(
3185.01
3180.7
3167.73
3146.01
3115.38
3075.61
3026.42
2967.46
2898.31
2818.53
2727.57
2624.88
2509.82
2381.73
2239.9
2083.56
1561.79
1549.68
1537.97
1526.68
)


20
(
4032.98
4026.4
4006.62
3973.5
3926.81
3866.24
3791.39
3701.76
3596.79
3475.84
3338.19
3183.06
3009.61
2816.94
2604.11
2370.14
1590.43
1572.17
1554.52
1537.47
)


20
(
4827.51
4818.77
4792.51
4748.55
4686.6
4606.26
4507.01
4388.24
4249.24
4089.18
3907.18
3702.27
3473.38
3219.43
2939.26
2631.66
1607.34
1583.25
1559.97
1537.45
)


20
(
5556.25
5545.5
5513.2
5459.14
5382.96
5284.2
5162.22
5016.3
4845.59
4649.12
4425.83
4174.57
3894.11
3583.15
3240.34
2864.29
1612.6
1583.09
1554.56
1526.97
)


20
(
6207.87
6195.3
6157.5
6094.23
6005.09
5889.54
5746.86
5576.23
5376.65
5147.04
4886.18
4592.76
4265.39
3902.6
3502.87
3064.64
1606.44
1572.01
1538.71
1506.5
)


20
(
6772.26
6758.06
6715.38
6643.96
6543.33
6412.91
6251.89
6059.36
5834.22
5575.26
5281.15
4950.44
4581.58
4172.98
3722.95
3229.78
1589.22
1550.43
1512.92
1476.63
)


20
(
7240.66
7225.07
7178.21
7099.8
6989.35
6846.2
6669.5
6458.24
6211.25
5927.22
5604.71
5242.15
4837.9
4390.21
3897.3
3357.33
1561.42
1518.92
1477.83
1438.06
)


20
(
7605.79
7589.07
7538.81
7454.71
7336.24
7182.72
6993.24
6766.73
6501.95
6197.52
5851.91
5463.47
5030.46
4551.05
4023.36
3445.46
1523.7
1478.19
1434.18
1391.6
)


20
(
7862.04
7844.45
7791.61
7703.19
7578.66
7417.28
7218.13
6980.09
6701.87
6382.04
6019
5611.06
5156.4
4653.13
4099.31
3492.95
1476.83
1429.06
1382.87
1338.16
)


20
(
8005.44
7987.29
7932.74
7841.45
7712.89
7546.31
7340.75
7095.08
6807.99
6477.99
6103.48
5682.72
5213.86
4694.99
4124.11
3499.21
1421.72
1372.47
1324.85
1278.75
)


20
(
8033.84
8015.42
7960.05
7867.39
7736.92
7567.86
7359.27
7110
6818.73
6483.98
6104.14
5677.46
5202.08
4676.09
4097.5
3464.29
1359.4
1309.48
1261.21
1214.49
)


20
(
7946.84
7928.45
7873.17
7780.67
7650.41
7481.66
7273.45
7024.67
6734.01
6400.01
6021.06
5595.45
5121.35
4596.86
4020.03
3388.86
1291
1241.24
1193.11
1146.53
)


20
(
7745.83
7727.77
7673.48
7582.66
7454.77
7289.08
7084.69
6840.48
6555.2
6227.43
5855.6
5438.04
4972.99
4458.61
3892.99
3274.21
1217.71
1168.92
1121.73
1076.05
)


20
(
7433.91
7416.48
7364.09
7276.43
7153
6993.12
6795.89
6560.28
6285.07
5968.91
5610.31
5207.68
4759.32
4263.48
3718.36
3122.11
1140.7
1093.68
1048.2
1004.18
)


20
(
7015.82
6999.31
6949.67
6866.62
6749.69
6598.23
6411.43
6188.29
5927.68
5628.34
5288.87
4907.78
4483.5
4014.36
3498.69
2934.77
1060.99
1016.51
973.498
931.857
)


20
(
6497.79
6482.46
6436.39
6359.31
6250.81
6110.27
5936.96
5729.96
5488.24
5210.65
4895.89
4542.62
4149.38
3714.67
3236.94
2714.62
979.26
938.066
898.223
859.652
)


20
(
5887.32
5873.43
5831.68
5761.84
5663.53
5536.21
5379.22
5191.76
4972.89
4721.59
4436.71
4117.05
3761.31
3368.16
2936.2
2464.06
895.611
858.376
822.363
787.5
)


20
(
5193.1
5180.87
5144.11
5082.63
4996.1
4884.05
4745.92
4581.01
4388.52
4167.58
3917.19
3636.32
3323.85
2978.63
2599.48
2185.19
809.175
776.509
744.914
714.329
)


20
(
4424.48
4414.1
4382.9
4330.74
4257.32
4162.29
4045.17
3905.39
3742.3
3555.17
3343.21
3105.55
2841.29
2549.48
2229.14
1879.29
717.605
690.03
663.36
637.541
)


20
(
3591.5
3583.12
3557.94
3515.83
3456.6
3379.95
3285.52
3172.9
3041.58
2891
2720.57
2529.62
2317.46
2083.38
1826.62
1546.45
616.542
594.471
573.124
552.46
)


20
(
2704.67
2698.39
2679.52
2647.99
2603.65
2546.32
2475.76
2391.68
2293.75
2181.6
2054.83
1913
1755.65
1582.3
1392.46
1185.63
499.701
483.421
467.675
452.432
)


20
(
1775.88
1771.75
1759.37
1738.68
1709.62
1672.1
1626.01
1571.2
1507.53
1434.81
1352.85
1261.44
1160.36
1049.38
928.262
796.772
361.532
351.193
341.193
331.513
)


20
(
820.494
818.544
812.692
802.944
789.306
771.785
750.393
725.144
696.054
663.141
626.425
585.931
541.682
493.706
442.031
386.688
204.841
200.499
196.299
192.23
)


20
(
1397.41
1397.85
1399.16
1401.34
1404.35
1408.18
1412.79
1418.12
1424.09
1430.63
1437.62
1444.93
1452.4
1459.83
1466.99
1473.63
1493.41
1494.2
1494.98
1495.77
)


20
(
2324.44
2322.46
2316.53
2306.58
2292.53
2274.23
2251.53
2224.22
2192.05
2154.74
2111.97
2063.37
2008.55
1947.05
1878.4
1802.09
1546.16
1540.38
1534.81
1529.46
)


20
(
3224.62
3220.27
3207.21
3185.33
3154.46
3114.39
3064.82
3005.39
2935.7
2855.27
2763.56
2660
2543.95
2414.73
2271.61
2113.83
1587.19
1574.97
1563.16
1551.77
)


20
(
4083.97
4077.32
4057.36
4023.92
3976.79
3915.64
3840.07
3749.57
3643.58
3521.43
3382.41
3225.72
3050.5
2855.84
2640.79
2404.34
1616.32
1597.87
1580.04
1562.82
)


20
(
4889.13
4880.31
4853.77
4809.36
4746.76
4665.58
4565.28
4445.26
4304.77
4143
3959.04
3751.89
3520.5
3263.75
2980.45
2669.39
1633.5
1609.14
1585.6
1562.83
)


20
(
5627.6
5616.74
5584.09
5529.43
5452.42
5352.56
5229.24
5081.7
4909.09
4710.41
4484.61
4230.5
3946.84
3632.3
3285.53
2905.11
1638.8
1608.95
1580.09
1552.18
)


20
(
6287.9
6275.18
6236.95
6172.97
6082.82
5965.95
5821.65
5649.06
5447.19
5214.93
4951.04
4654.21
4323.01
3955.95
3551.5
3108.05
1632.45
1597.61
1563.92
1531.33
)


20
(
6859.77
6845.4
6802.23
6729.97
6628.18
6496.24
6333.35
6138.56
5910.78
5648.78
5351.2
5016.56
4643.31
4229.82
3774.38
3275.25
1614.81
1575.56
1537.6
1500.88
)


20
(
7334.33
7318.55
7271.15
7191.81
7080.06
6935.22
6756.42
6542.66
6292.73
6005.31
5678.94
5312.02
4902.89
4449.78
3950.87
3404.3
1586.4
1543.38
1501.78
1461.53
)


20
(
7704.22
7687.3
7636.45
7551.34
7431.46
7276.1
7084.35
6855.12
6587.16
6279.05
5929.26
5536.1
5097.81
4612.54
4078.37
3493.35
1547.85
1501.78
1457.24
1414.12
)


20
(
7963.75
7945.95
7892.48
7802.99
7676.96
7513.64
7312.08
7071.15
6789.55
6465.83
6098.36
5685.42
5225.18
4715.71
4155.04
3541.15
1499.97
1451.61
1404.84
1359.58
)


20
(
8108.91
8090.54
8035.32
7942.93
7812.81
7644.2
7436.14
7187.47
6896.86
6562.82
6183.71
5757.76
5283.11
4757.8
4179.82
3547.13
1443.67
1393.81
1345.59
1298.92
)


20
(
8137.51
8118.86
8062.81
7969.03
7836.96
7665.83
7454.68
7202.35
6907.5
6568.63
6184.09
5752.12
5270.84
4738.3
4152.47
3511.32
1380
1329.46
1280.59
1233.28
)


20
(
8049.16
8030.54
7974.58
7880.95
7749.09
7578.26
7367.49
7115.64
6821.39
6483.25
6099.6
5668.69
5188.67
4657.62
4073.55
3434.44
1310.13
1259.74
1211.01
1163.84
)


20
(
7845.28
7826.99
7772.04
7680.09
7550.62
7382.89
7175.97
6928.74
6639.92
6308.07
5931.6
5508.83
5037.96
4517.11
3944.37
3317.77
1235.27
1185.86
1138.08
1091.82
)


20
(
7529.02
7511.37
7458.33
7369.58
7244.63
7082.76
6883.09
6644.56
6365.92
6045.82
5682.73
5275.05
4821.06
4318.98
3766.97
3163.17
1156.63
1109.02
1062.96
1018.38
)


20
(
7105.19
7088.46
7038.21
6954.13
6835.75
6682.42
6493.29
6267.37
6003.52
5700.43
5356.71
4970.84
4541.2
4066.15
3543.95
2972.88
1075.28
1030.24
986.677
944.508
)


20
(
6580.11
6564.58
6517.94
6439.91
6330.06
6187.78
6012.31
5802.74
5558
5276.93
4958.24
4600.52
4202.33
3762.12
3278.34
2749.38
991.939
950.222
909.873
870.813
)


20
(
5961.4
5947.33
5905.07
5834.36
5734.84
5605.94
5447.01
5257.21
5035.62
4781.17
4492.73
4169.06
3808.84
3410.72
2973.3
2495.15
906.751
869.044
832.573
797.268
)


20
(
5257.86
5245.48
5208.27
5146.04
5058.44
4945.01
4805.17
4638.22
4443.35
4219.66
3966.15
3681.77
3365.38
3015.82
2631.88
2212.34
818.861
785.781
753.787
722.814
)


20
(
4478.97
4468.46
4436.89
4384.09
4309.79
4213.6
4095.04
3953.55
3788.47
3599.04
3384.46
3143.85
2876.3
2580.84
2256.49
1902.23
725.897
697.975
670.968
644.825
)


20
(
3634.89
3626.41
3600.93
3558.33
3498.38
3420.82
3325.27
3211.29
3078.39
2925.99
2753.49
2560.21
2345.46
2108.49
1848.56
1564.91
623.413
601.068
579.456
558.535
)


20
(
2736.25
2729.89
2710.81
2678.92
2634.08
2576.09
2504.71
2419.65
2320.58
2207.13
2078.86
1935.36
1776.14
1600.72
1408.59
1199.25
504.971
488.493
472.556
457.129
)


20
(
1795.07
1790.9
1778.38
1757.47
1728.11
1690.19
1643.61
1588.22
1523.86
1450.35
1367.49
1275.07
1172.86
1060.63
938.141