/*--------------------------------*- C++ -*----------------------------------*\
| =========                 |                                                 |
| \\      /  F ield         | OpenFOAM: The Open Source CFD Toolbox           |
|  \\    /   O peration     | Version:  2212                                  |
|   \\  /    A nd           | Website:  www.openfoam.com                      |
|    \\/     M anipulation  |                                                 |
\*---------------------------------------------------------------------------*/
FoamFile
{
    version     2.0;
    format      ascii;
    arch        "LSB;label=32;scalar=64";
    class       volScalarField;
    location    "60/neutroRegion";
    object      TCool;
}
// * * * * * * * * * * * * * * * * * * * * * * * * * * * * * * * * * * * * * //

dimensions      [0 0 0 1 0 0 0];

internalField   nonuniform List<scalar> 
350
(
83.2889
83.2894
83.2899
83.2904
83.2908
83.2913
83.2918
83.2922
83.2927
83.2932
83.2937
83.2942
83.2947
83.2952
83.2957
83.2962
83.2967
83.2972
83.2976
83.2979
83.2982
83.2985
83.2988
83.2992
83.2997
83.2889
83.2894
83.2899
83.2904
83.2908
83.2913
83.2918
83.2922
83.2927
83.2932
83.2937
83.2942
83.2947
83.2952
83.2957
83.2962
83.2967
83.2972
83.2976
83.2979
83.2982
83.2985
83.2988
83.2992
83.2997
1823.38
1817.22
1798.65
1767.88
1725.28
1671.33
1606.65
1531.99
1448.23
1356.38
1257.58
1153.17
1044.66
933.807
822.567
713.036
607.323
507.391
414.95
331.441
258.111
196.156
146.802
111.211
90.0864
1851.63
1845.68
1827.11
1796.13
1753.09
1698.49
1632.96
1557.26
1472.28
1379.03
1278.67
1172.55
1062.18
949.353
836.052
724.433
616.671
514.801
420.595
335.533
260.887
197.865
147.705
111.575
90.1638
1818.79
1812.62
1794.06
1763.35
1720.84
1667.01
1602.48
1528
1444.45
1352.83
1254.3
1150.16
1041.96
931.423
820.51
711.308
605.915
506.282
414.112
330.838
257.706
195.909
146.671
111.158
90.074
1845.28
1839.27
1820.68
1789.73
1746.78
1692.32
1626.97
1551.5
1466.79
1373.85
1273.84
1168.1
1058.16
945.775
832.943
721.802
614.51
513.087
419.288
334.585
260.243
197.469
147.495
111.491
90.146
1845.28
1839.27
1820.68
1789.73
1746.78
1692.32
1626.97
1551.5
1466.79
1373.85
1273.84
1168.1
1058.16
945.775
832.943
721.802
614.51
513.087
419.288
334.585
260.243
197.469
147.495
111.491
90.146
1818.8
1812.62
1794.06
1763.36
1720.84
1667.01
1602.48
1528
1444.45
1352.83
1254.3
1150.17
1041.96
931.425
820.511
711.31
605.916
506.283
414.112
330.839
257.706
195.909
146.672
111.158
90.074
1851.63
1845.68
1827.11
1796.13
1753.09
1698.49
1632.96
1557.26
1472.28
1379.03
1278.67
1172.55
1062.18
949.353
836.052
724.433
616.671
514.801
420.595
335.533
260.887
197.865
147.705
111.575
90.1638
1823.38
1817.22
1798.65
1767.88
1725.28
1671.33
1606.65
1531.99
1448.23
1356.38
1257.58
1153.17
1044.66
933.807
822.566
713.036
607.323
507.391
414.95
331.441
258.111
196.156
146.802
111.211
90.0864
1845.28
1839.27
1820.68
1789.73
1746.78
1692.32
1626.97
1551.5
1466.79
1373.85
1273.84
1168.1
1058.16
945.775
832.943
721.802
614.51
513.087
419.288
334.585
260.243
197.469
147.495
111.491
90.146
1818.79
1812.62
1794.06
1763.35
1720.84
1667.01
1602.48
1528
1444.45
1352.83
1254.3
1150.16
1041.96
931.423
820.51
711.309
605.915
506.282
414.112
330.838
257.706
195.909
146.672
111.158
90.074
1818.8
1812.62
1794.06
1763.36
1720.84
1667.01
1602.48
1528
1444.45
1352.83
1254.3
1150.17
1041.96
931.424
820.511
711.309
605.916
506.283
414.112
330.839
257.706
195.909
146.672
111.158
90.074
1845.28
1839.27
1820.68
1789.73
1746.78
1692.32
1626.97
1551.5
1466.79
1373.85
1273.84
1168.1
1058.16
945.775
832.943
721.802
614.51
513.087
419.288
334.585
260.243
197.469
147.495
111.491
90.146
)
;

boundaryField
{
    outletCentralUnloaded
    {
        type            zeroGradient;
    }
    inletCentralUnloaded
    {
        type            zeroGradient;
    }
    outletFuelElement
    {
        type            zeroGradient;
    }
    inletFuelElement
    {
        type            zeroGradient;
    }
    defaultFaces
    {
        type            zeroGradient;
    }
}


// ************************************************************************* //
