/*--------------------------------*- C++ -*----------------------------------*\
| =========                 |                                                 |
| \\      /  F ield         | OpenFOAM: The Open Source CFD Toolbox           |
|  \\    /   O peration     | Version:  2212                                  |
|   \\  /    A nd           | Website:  www.openfoam.com                      |
|    \\/     M anipulation  |                                                 |
\*---------------------------------------------------------------------------*/
FoamFile
{
    version     2.0;
    format      ascii;
    arch        "LSB;label=32;scalar=64";
    class       volScalarField;
    location    "22/neutroRegion";
    object      TCool;
}
// * * * * * * * * * * * * * * * * * * * * * * * * * * * * * * * * * * * * * //

dimensions      [0 0 0 1 0 0 0];

internalField   nonuniform List<scalar> 
350
(
83.2885
83.289
83.2895
83.2899
83.2904
83.2909
83.2914
83.2919
83.2924
83.2929
83.2934
83.2939
83.2943
83.2948
83.2953
83.2958
83.2963
83.2968
83.2972
83.2977
83.2982
83.2987
83.2991
83.2996
83.3
83.2885
83.289
83.2895
83.2899
83.2904
83.2909
83.2914
83.2919
83.2924
83.2929
83.2934
83.2939
83.2943
83.2948
83.2953
83.2958
83.2963
83.2968
83.2972
83.2977
83.2982
83.2987
83.2991
83.2996
83.3
1650.64
1649.52
1636.61
1612.09
1576.28
1529.64
1472.73
1406.25
1331.05
1248.07
1158.45
1063.46
964.601
863.527
762.074
662.156
565.661
474.339
389.729
313.165
245.838
188.894
143.459
110.505
90.5102
1674.97
1674.16
1661.35
1636.74
1600.64
1553.5
1495.91
1428.56
1352.31
1268.11
1177.11
1080.6
980.076
877.233
773.941
672.171
573.869
480.843
394.682
316.753
248.269
190.388
144.247
110.823
90.5783
1646.67
1645.52
1632.6
1608.12
1572.37
1525.82
1469.04
1402.72
1327.69
1244.92
1155.53
1060.8
962.203
861.414
760.253
660.628
564.417
473.359
388.988
312.632
245.48
188.676
143.344
110.457
90.4993
1669.5
1668.61
1655.76
1631.16
1595.12
1548.08
1490.63
1423.48
1347.45
1263.53
1172.84
1076.67
976.521
874.079
771.207
669.86
571.974
479.34
393.536
315.923
247.705
190.041
144.064
110.749
90.5627
1669.5
1668.61
1655.76
1631.16
1595.12
1548.08
1490.63
1423.48
1347.45
1263.53
1172.84
1076.67
976.521
874.079
771.207
669.861
571.974
479.34
393.536
315.923
247.705
190.041
144.064
110.749
90.5627
1646.67
1645.52
1632.6
1608.12
1572.38
1525.83
1469.04
1402.72
1327.69
1244.92
1155.53
1060.8
962.204
861.415
760.254
660.629
564.418
473.36
388.989
312.633
245.48
188.676
143.344
110.458
90.4993
1674.97
1674.16
1661.35
1636.74
1600.64
1553.5
1495.91
1428.56
1352.31
1268.11
1177.11
1080.6
980.076
877.233
773.941
672.171
573.869
480.843
394.682
316.754
248.269
190.388
144.247
110.823
90.5783
1650.64
1649.52
1636.61
1612.09
1576.28
1529.64
1472.73
1406.25
1331.05
1248.07
1158.45
1063.46
964.601
863.527
762.074
662.156
565.661
474.339
389.729
313.165
245.838
188.894
143.459
110.505
90.5102
1669.5
1668.61
1655.76
1631.16
1595.12
1548.08
1490.63
1423.48
1347.45
1263.53
1172.84
1076.67
976.521
874.079
771.207
669.86
571.974
479.34
393.536
315.923
247.705
190.041
144.064
110.749
90.5627
1646.67
1645.52
1632.6
1608.12
1572.37
1525.82
1469.04
1402.72
1327.69
1244.92
1155.53
1060.8
962.203
861.414
760.253
660.628
564.417
473.359
388.988
312.632
245.48
188.676
143.344
110.457
90.4993
1646.67
1645.52
1632.6
1608.12
1572.38
1525.83
1469.04
1402.72
1327.69
1244.92
1155.53
1060.8
962.204
861.415
760.254
660.629
564.418
473.36
388.988
312.633
245.48
188.676
143.344
110.458
90.4993
1669.5
1668.61
1655.76
1631.16
1595.12
1548.08
1490.63
1423.48
1347.45
1263.53
1172.84
1076.67
976.521
874.079
771.207
669.86
571.973
479.34
393.536
315.923
247.705
190.041
144.064
110.749
90.5627
)
;

boundaryField
{
    outletCentralUnloaded
    {
        type            zeroGradient;
    }
    inletCentralUnloaded
    {
        type            zeroGradient;
    }
    outletFuelElement
    {
        type            zeroGradient;
    }
    inletFuelElement
    {
        type            zeroGradient;
    }
    defaultFaces
    {
        type            zeroGradient;
    }
}


// ************************************************************************* //
