/*--------------------------------*- C++ -*----------------------------------*\
| =========                 |                                                 |
| \\      /  F ield         | OpenFOAM: The Open Source CFD Toolbox           |
|  \\    /   O peration     | Version:  2212                                  |
|   \\  /    A nd           | Website:  www.openfoam.com                      |
|    \\/     M anipulation  |                                                 |
\*---------------------------------------------------------------------------*/
FoamFile
{
    version     2.0;
    format      ascii;
    arch        "LSB;label=32;scalar=64";
    class       volScalarField;
    location    "36/fluidRegion";
    object      htc;
}
// * * * * * * * * * * * * * * * * * * * * * * * * * * * * * * * * * * * * * //

dimensions      [1 0 -3 -1 0 0 0];

internalField   nonuniform List<scalar> 
350
(
3101.32
3101.32
3101.32
3101.32
3101.34
3101.35
3101.37
3101.39
3101.41
3101.43
3101.45
3101.46
3101.48
3101.48
3101.49
3101.49
3101.49
3101.48
3101.48
3101.47
3101.48
3101.5
3101.53
3101.58
3106.84
3101.32
3101.32
3101.32
3101.32
3101.34
3101.35
3101.37
3101.39
3101.41
3101.43
3101.45
3101.46
3101.48
3101.48
3101.49
3101.49
3101.49
3101.48
3101.48
3101.47
3101.48
3101.5
3101.53
3101.58
3106.84
27052.5
26976.4
26796.9
26492.4
26064.4
25515
24847.2
24064.9
23173.3
22179.7
21093.5
19927.3
18696.2
17416.7
16105.2
14775.3
13437.2
12099
10770.2
9466.82
8217.14
7067.64
6088.9
5373.29
4935.28
27140.3
27063.9
26885.1
26580.6
26152.1
25601.8
24932.4
24147.7
23252.9
22254.9
21163.1
19989.9
18750.8
17462.7
16142.8
14805.3
13460.9
12117.5
10784.1
9476.24
8222.03
7068.09
6085.87
5369.09
4933.34
27038.6
26962.2
26782.6
26478.1
26050.2
25501
24833.5
24051.6
23160.6
22167.7
21082.5
19917.4
18687.5
17409.3
16099.1
14770.3
13433.2
12095.8
10767.6
9464.82
8215.76
7066.81
6088.49
5373.03
4935.14
27120.8
27044.5
26865.5
26561
26132.6
25582.4
24913.3
24129.1
23235
22237.9
21147.4
19975.8
18738.4
17452.3
16134.3
14798.5
13455.6
12113.4
10781
9474.17
8221
7068.09
6086.68
5370.18
4933.86
27120.8
27044.5
26865.5
26561
26132.6
25582.4
24913.3
24129.1
23235
22237.9
21147.4
19975.8
18738.4
17452.3
16134.3
14798.5
13455.6
12113.4
10781
9474.17
8221
7068.09
6086.68
5370.18
4933.86
27038.6
26962.2
26782.6
26478.1
26050.2
25501
24833.5
24051.6
23160.6
22167.7
21082.5
19917.4
18687.5
17409.3
16099.1
14770.3
13433.2
12095.8
10767.6
9464.82
8215.75
7066.8
6088.48
5373.02
4935.13
27140.3
27063.9
26885.1
26580.6
26152.1
25601.8
24932.4
24147.7
23252.9
22254.9
21163.1
19989.9
18750.8
17462.7
16142.8
14805.3
13460.9
12117.5
10784.1
9476.24
8222.03
7068.09
6085.87
5369.09
4933.34
27052.5
26976.4
26796.9
26492.4
26064.4
25515
24847.2
24064.9
23173.3
22179.7
21093.5
19927.3
18696.2
17416.7
16105.2
14775.3
13437.2
12099
10770.2
9466.82
8217.14
7067.64
6088.9
5373.29
4935.28
27120.8
27044.5
26865.5
26561
26132.6
25582.4
24913.3
24129.1
23235
22237.9
21147.4
19975.8
18738.4
17452.3
16134.3
14798.5
13455.6
12113.4
10781
9474.17
8221
7068.09
6086.68
5370.18
4933.86
27038.6
26962.1
26782.6
26478.1
26050.2
25501
24833.5
24051.6
23160.6
22167.7
21082.5
19917.4
18687.5
17409.3
16099.1
14770.3
13433.2
12095.8
10767.6
9464.82
8215.76
7066.81
6088.49
5373.03
4935.14
27038.6
26962.2
26782.6
26478.1
26050.2
25501
24833.5
24051.6
23160.6
22167.7
21082.5
19917.4
18687.5
17409.3
16099.1
14770.3
13433.2
12095.8
10767.6
9464.82
8215.75
7066.8
6088.48
5373.02
4935.13
27120.8
27044.5
26865.5
26561
26132.6
25582.4
24913.3
24129.1
23235
22237.9
21147.4
19975.8
18738.4
17452.3
16134.3
14798.5
13455.6
12113.4
10781
9474.17
8221
7068.09
6086.68
5370.18
4933.86
)
;

boundaryField
{
    outletCentralUnloaded
    {
        type            zeroGradient;
    }
    inletCentralUnloaded
    {
        type            zeroGradient;
    }
    outletFuelElement
    {
        type            zeroGradient;
    }
    inletFuelElement
    {
        type            zeroGradient;
    }
    defaultFaces
    {
        type            zeroGradient;
    }
    baffle_master
    {
        type            zeroGradient;
    }
    baffle_slave
    {
        type            zeroGradient;
    }
}


// ************************************************************************* //
