/*--------------------------------*- C++ -*----------------------------------*\
| =========                 |                                                 |
| \\      /  F ield         | OpenFOAM: The Open Source CFD Toolbox           |
|  \\    /   O peration     | Version:  2212                                  |
|   \\  /    A nd           | Website:  www.openfoam.com                      |
|    \\/     M anipulation  |                                                 |
\*---------------------------------------------------------------------------*/
FoamFile
{
    version     2.0;
    format      ascii;
    arch        "LSB;label=32;scalar=64";
    class       volTensorField;
    location    "36/fluidRegion";
    object      Kd;
}
// * * * * * * * * * * * * * * * * * * * * * * * * * * * * * * * * * * * * * //

dimensions      [1 -3 -1 0 0 0 0];

internalField   nonuniform List<tensor> 
350
(
(84.7404 0 0 0 84.7404 0 0 0 84.7404)
(84.7401 0 0 0 84.7401 0 0 0 84.7401)
(84.7396 0 0 0 84.7396 0 0 0 84.7396)
(84.7393 0 0 0 84.7393 0 0 0 84.7393)
(84.7391 0 0 0 84.7391 0 0 0 84.7391)
(84.7391 0 0 0 84.7391 0 0 0 84.7391)
(84.7392 0 0 0 84.7392 0 0 0 84.7392)
(84.7394 0 0 0 84.7394 0 0 0 84.7394)
(84.7395 0 0 0 84.7395 0 0 0 84.7395)
(84.7396 0 0 0 84.7396 0 0 0 84.7396)
(84.7397 0 0 0 84.7397 0 0 0 84.7397)
(84.7396 0 0 0 84.7396 0 0 0 84.7396)
(84.7395 0 0 0 84.7395 0 0 0 84.7395)
(84.7394 0 0 0 84.7394 0 0 0 84.7394)
(84.7391 0 0 0 84.7391 0 0 0 84.7391)
(84.7386 0 0 0 84.7386 0 0 0 84.7386)
(84.7381 0 0 0 84.7381 0 0 0 84.7381)
(84.7375 0 0 0 84.7375 0 0 0 84.7375)
(84.7369 0 0 0 84.7369 0 0 0 84.7369)
(84.7364 0 0 0 84.7364 0 0 0 84.7364)
(84.7361 0 0 0 84.7361 0 0 0 84.7361)
(84.7361 0 0 0 84.7361 0 0 0 84.7361)
(84.7366 0 0 0 84.7366 0 0 0 84.7366)
(84.7374 0 0 0 84.7374 0 0 0 84.7374)
(84.8717 0 0 0 84.8717 0 0 0 84.8717)
(84.7404 0 0 0 84.7404 0 0 0 84.7404)
(84.7401 0 0 0 84.7401 0 0 0 84.7401)
(84.7396 0 0 0 84.7396 0 0 0 84.7396)
(84.7393 0 0 0 84.7393 0 0 0 84.7393)
(84.7391 0 0 0 84.7391 0 0 0 84.7391)
(84.7391 0 0 0 84.7391 0 0 0 84.7391)
(84.7392 0 0 0 84.7392 0 0 0 84.7392)
(84.7394 0 0 0 84.7394 0 0 0 84.7394)
(84.7395 0 0 0 84.7395 0 0 0 84.7395)
(84.7396 0 0 0 84.7396 0 0 0 84.7396)
(84.7397 0 0 0 84.7397 0 0 0 84.7397)
(84.7396 0 0 0 84.7396 0 0 0 84.7396)
(84.7395 0 0 0 84.7395 0 0 0 84.7395)
(84.7394 0 0 0 84.7394 0 0 0 84.7394)
(84.7391 0 0 0 84.7391 0 0 0 84.7391)
(84.7386 0 0 0 84.7386 0 0 0 84.7386)
(84.7381 0 0 0 84.7381 0 0 0 84.7381)
(84.7375 0 0 0 84.7375 0 0 0 84.7375)
(84.7369 0 0 0 84.7369 0 0 0 84.7369)
(84.7364 0 0 0 84.7364 0 0 0 84.7364)
(84.7361 0 0 0 84.7361 0 0 0 84.7361)
(84.7361 0 0 0 84.7361 0 0 0 84.7361)
(84.7366 0 0 0 84.7366 0 0 0 84.7366)
(84.7374 0 0 0 84.7374 0 0 0 84.7374)
(84.8717 0 0 0 84.8717 0 0 0 84.8717)
(681.69 0 0 0 681.69 0 0 0 681.69)
(681.18 0 0 0 681.18 0 0 0 681.18)
(681.193 0 0 0 681.193 0 0 0 681.193)
(681.196 0 0 0 681.196 0 0 0 681.196)
(681.188 0 0 0 681.188 0 0 0 681.188)
(681.167 0 0 0 681.167 0 0 0 681.167)
(681.132 0 0 0 681.132 0 0 0 681.132)
(681.081 0 0 0 681.081 0 0 0 681.081)
(681.012 0 0 0 681.012 0 0 0 681.012)
(680.924 0 0 0 680.924 0 0 0 680.924)
(680.815 0 0 0 680.815 0 0 0 680.815)
(680.685 0 0 0 680.685 0 0 0 680.685)
(680.534 0 0 0 680.534 0 0 0 680.534)
(680.362 0 0 0 680.362 0 0 0 680.362)
(680.167 0 0 0 680.167 0 0 0 680.167)
(679.939 0 0 0 679.939 0 0 0 679.939)
(679.661 0 0 0 679.661 0 0 0 679.661)
(679.316 0 0 0 679.316 0 0 0 679.316)
(678.898 0 0 0 678.898 0 0 0 678.898)
(678.464 0 0 0 678.464 0 0 0 678.464)
(678.193 0 0 0 678.193 0 0 0 678.193)
(678.636 0 0 0 678.636 0 0 0 678.636)
(681.104 0 0 0 681.104 0 0 0 681.104)
(687.895 0 0 0 687.895 0 0 0 687.895)
(692.191 0 0 0 692.191 0 0 0 692.191)
(677.184 0 0 0 677.184 0 0 0 677.184)
(676.602 0 0 0 676.602 0 0 0 676.602)
(676.576 0 0 0 676.576 0 0 0 676.576)
(676.539 0 0 0 676.539 0 0 0 676.539)
(676.494 0 0 0 676.494 0 0 0 676.494)
(676.439 0 0 0 676.439 0 0 0 676.439)
(676.372 0 0 0 676.372 0 0 0 676.372)
(676.292 0 0 0 676.292 0 0 0 676.292)
(676.196 0 0 0 676.196 0 0 0 676.196)
(676.083 0 0 0 676.083 0 0 0 676.083)
(675.954 0 0 0 675.954 0 0 0 675.954)
(675.812 0 0 0 675.812 0 0 0 675.812)
(675.665 0 0 0 675.665 0 0 0 675.665)
(675.52 0 0 0 675.52 0 0 0 675.52)
(675.385 0 0 0 675.385 0 0 0 675.385)
(675.26 0 0 0 675.26 0 0 0 675.26)
(675.133 0 0 0 675.133 0 0 0 675.133)
(674.988 0 0 0 674.988 0 0 0 674.988)
(674.82 0 0 0 674.82 0 0 0 674.82)
(674.689 0 0 0 674.689 0 0 0 674.689)
(674.791 0 0 0 674.791 0 0 0 674.791)
(675.706 0 0 0 675.706 0 0 0 675.706)
(678.8 0 0 0 678.8 0 0 0 678.8)
(686.425 0 0 0 686.425 0 0 0 686.425)
(691.713 0 0 0 691.713 0 0 0 691.713)
(682.443 0 0 0 682.443 0 0 0 682.443)
(681.93 0 0 0 681.93 0 0 0 681.93)
(681.947 0 0 0 681.947 0 0 0 681.947)
(681.953 0 0 0 681.953 0 0 0 681.953)
(681.947 0 0 0 681.947 0 0 0 681.947)
(681.928 0 0 0 681.928 0 0 0 681.928)
(681.894 0 0 0 681.894 0 0 0 681.894)
(681.845 0 0 0 681.845 0 0 0 681.845)
(681.776 0 0 0 681.776 0 0 0 681.776)
(681.688 0 0 0 681.688 0 0 0 681.688)
(681.578 0 0 0 681.578 0 0 0 681.578)
(681.444 0 0 0 681.444 0 0 0 681.444)
(681.287 0 0 0 681.287 0 0 0 681.287)
(681.105 0 0 0 681.105 0 0 0 681.105)
(680.893 0 0 0 680.893 0 0 0 680.893)
(680.641 0 0 0 680.641 0 0 0 680.641)
(680.331 0 0 0 680.331 0 0 0 680.331)
(679.946 0 0 0 679.946 0 0 0 679.946)
(679.479 0 0 0 679.479 0 0 0 679.479)
(678.985 0 0 0 678.985 0 0 0 678.985)
(678.643 0 0 0 678.643 0 0 0 678.643)
(678.995 0 0 0 678.995 0 0 0 678.995)
(681.349 0 0 0 681.349 0 0 0 681.349)
(688.006 0 0 0 688.006 0 0 0 688.006)
(692.208 0 0 0 692.208 0 0 0 692.208)
(678.192 0 0 0 678.192 0 0 0 678.192)
(677.631 0 0 0 677.631 0 0 0 677.631)
(677.615 0 0 0 677.615 0 0 0 677.615)
(677.59 0 0 0 677.59 0 0 0 677.59)
(677.555 0 0 0 677.555 0 0 0 677.555)
(677.51 0 0 0 677.51 0 0 0 677.51)
(677.452 0 0 0 677.452 0 0 0 677.452)
(677.38 0 0 0 677.38 0 0 0 677.38)
(677.292 0 0 0 677.292 0 0 0 677.292)
(677.186 0 0 0 677.186 0 0 0 677.186)
(677.064 0 0 0 677.064 0 0 0 677.064)
(676.926 0 0 0 676.926 0 0 0 676.926)
(676.78 0 0 0 676.78 0 0 0 676.78)
(676.631 0 0 0 676.631 0 0 0 676.631)
(676.484 0 0 0 676.484 0 0 0 676.484)
(676.337 0 0 0 676.337 0 0 0 676.337)
(676.177 0 0 0 676.177 0 0 0 676.177)
(675.988 0 0 0 675.988 0 0 0 675.988)
(675.764 0 0 0 675.764 0 0 0 675.764)
(675.565 0 0 0 675.565 0 0 0 675.565)
(675.583 0 0 0 675.583 0 0 0 675.583)
(676.392 0 0 0 676.392 0 0 0 676.392)
(679.344 0 0 0 679.344 0 0 0 679.344)
(686.779 0 0 0 686.779 0 0 0 686.779)
(691.832 0 0 0 691.832 0 0 0 691.832)
(678.192 0 0 0 678.192 0 0 0 678.192)
(677.631 0 0 0 677.631 0 0 0 677.631)
(677.615 0 0 0 677.615 0 0 0 677.615)
(677.59 0 0 0 677.59 0 0 0 677.59)
(677.555 0 0 0 677.555 0 0 0 677.555)
(677.51 0 0 0 677.51 0 0 0 677.51)
(677.452 0 0 0 677.452 0 0 0 677.452)
(677.38 0 0 0 677.38 0 0 0 677.38)
(677.292 0 0 0 677.292 0 0 0 677.292)
(677.186 0 0 0 677.186 0 0 0 677.186)
(677.064 0 0 0 677.064 0 0 0 677.064)
(676.926 0 0 0 676.926 0 0 0 676.926)
(676.78 0 0 0 676.78 0 0 0 676.78)
(676.631 0 0 0 676.631 0 0 0 676.631)
(676.484 0 0 0 676.484 0 0 0 676.484)
(676.337 0 0 0 676.337 0 0 0 676.337)
(676.177 0 0 0 676.177 0 0 0 676.177)
(675.988 0 0 0 675.988 0 0 0 675.988)
(675.764 0 0 0 675.764 0 0 0 675.764)
(675.565 0 0 0 675.565 0 0 0 675.565)
(675.583 0 0 0 675.583 0 0 0 675.583)
(676.392 0 0 0 676.392 0 0 0 676.392)
(679.344 0 0 0 679.344 0 0 0 679.344)
(686.779 0 0 0 686.779 0 0 0 686.779)
(691.832 0 0 0 691.832 0 0 0 691.832)
(682.443 0 0 0 682.443 0 0 0 682.443)
(681.93 0 0 0 681.93 0 0 0 681.93)
(681.947 0 0 0 681.947 0 0 0 681.947)
(681.953 0 0 0 681.953 0 0 0 681.953)
(681.947 0 0 0 681.947 0 0 0 681.947)
(681.928 0 0 0 681.928 0 0 0 681.928)
(681.894 0 0 0 681.894 0 0 0 681.894)
(681.844 0 0 0 681.844 0 0 0 681.844)
(681.776 0 0 0 681.776 0 0 0 681.776)
(681.688 0 0 0 681.688 0 0 0 681.688)
(681.577 0 0 0 681.577 0 0 0 681.577)
(681.444 0 0 0 681.444 0 0 0 681.444)
(681.287 0 0 0 681.287 0 0 0 681.287)
(681.105 0 0 0 681.105 0 0 0 681.105)
(680.893 0 0 0 680.893 0 0 0 680.893)
(680.641 0 0 0 680.641 0 0 0 680.641)
(680.331 0 0 0 680.331 0 0 0 680.331)
(679.945 0 0 0 679.945 0 0 0 679.945)
(679.478 0 0 0 679.478 0 0 0 679.478)
(678.984 0 0 0 678.984 0 0 0 678.984)
(678.642 0 0 0 678.642 0 0 0 678.642)
(678.994 0 0 0 678.994 0 0 0 678.994)
(681.348 0 0 0 681.348 0 0 0 681.348)
(688.004 0 0 0 688.004 0 0 0 688.004)
(692.207 0 0 0 692.207 0 0 0 692.207)
(677.184 0 0 0 677.184 0 0 0 677.184)
(676.602 0 0 0 676.602 0 0 0 676.602)
(676.576 0 0 0 676.576 0 0 0 676.576)
(676.539 0 0 0 676.539 0 0 0 676.539)
(676.494 0 0 0 676.494 0 0 0 676.494)
(676.439 0 0 0 676.439 0 0 0 676.439)
(676.372 0 0 0 676.372 0 0 0 676.372)
(676.292 0 0 0 676.292 0 0 0 676.292)
(676.196 0 0 0 676.196 0 0 0 676.196)
(676.083 0 0 0 676.083 0 0 0 676.083)
(675.954 0 0 0 675.954 0 0 0 675.954)
(675.812 0 0 0 675.812 0 0 0 675.812)
(675.665 0 0 0 675.665 0 0 0 675.665)
(675.52 0 0 0 675.52 0 0 0 675.52)
(675.385 0 0 0 675.385 0 0 0 675.385)
(675.26 0 0 0 675.26 0 0 0 675.26)
(675.133 0 0 0 675.133 0 0 0 675.133)
(674.988 0 0 0 674.988 0 0 0 674.988)
(674.82 0 0 0 674.82 0 0 0 674.82)
(674.689 0 0 0 674.689 0 0 0 674.689)
(674.791 0 0 0 674.791 0 0 0 674.791)
(675.706 0 0 0 675.706 0 0 0 675.706)
(678.8 0 0 0 678.8 0 0 0 678.8)
(686.425 0 0 0 686.425 0 0 0 686.425)
(691.713 0 0 0 691.713 0 0 0 691.713)
(681.69 0 0 0 681.69 0 0 0 681.69)
(681.18 0 0 0 681.18 0 0 0 681.18)
(681.193 0 0 0 681.193 0 0 0 681.193)
(681.196 0 0 0 681.196 0 0 0 681.196)
(681.188 0 0 0 681.188 0 0 0 681.188)
(681.167 0 0 0 681.167 0 0 0 681.167)
(681.132 0 0 0 681.132 0 0 0 681.132)
(681.081 0 0 0 681.081 0 0 0 681.081)
(681.012 0 0 0 681.012 0 0 0 681.012)
(680.924 0 0 0 680.924 0 0 0 680.924)
(680.815 0 0 0 680.815 0 0 0 680.815)
(680.685 0 0 0 680.685 0 0 0 680.685)
(680.534 0 0 0 680.534 0 0 0 680.534)
(680.362 0 0 0 680.362 0 0 0 680.362)
(680.167 0 0 0 680.167 0 0 0 680.167)
(679.939 0 0 0 679.939 0 0 0 679.939)
(679.661 0 0 0 679.661 0 0 0 679.661)
(679.316 0 0 0 679.316 0 0 0 679.316)
(678.898 0 0 0 678.898 0 0 0 678.898)
(678.464 0 0 0 678.464 0 0 0 678.464)
(678.193 0 0 0 678.193 0 0 0 678.193)
(678.636 0 0 0 678.636 0 0 0 678.636)
(681.105 0 0 0 681.105 0 0 0 681.105)
(687.895 0 0 0 687.895 0 0 0 687.895)
(692.191 0 0 0 692.191 0 0 0 692.191)
(678.192 0 0 0 678.192 0 0 0 678.192)
(677.631 0 0 0 677.631 0 0 0 677.631)
(677.615 0 0 0 677.615 0 0 0 677.615)
(677.59 0 0 0 677.59 0 0 0 677.59)
(677.555 0 0 0 677.555 0 0 0 677.555)
(677.51 0 0 0 677.51 0 0 0 677.51)
(677.452 0 0 0 677.452 0 0 0 677.452)
(677.38 0 0 0 677.38 0 0 0 677.38)
(677.292 0 0 0 677.292 0 0 0 677.292)
(677.186 0 0 0 677.186 0 0 0 677.186)
(677.064 0 0 0 677.064 0 0 0 677.064)
(676.926 0 0 0 676.926 0 0 0 676.926)
(676.78 0 0 0 676.78 0 0 0 676.78)
(676.631 0 0 0 676.631 0 0 0 676.631)
(676.484 0 0 0 676.484 0 0 0 676.484)
(676.337 0 0 0 676.337 0 0 0 676.337)
(676.177 0 0 0 676.177 0 0 0 676.177)
(675.988 0 0 0 675.988 0 0 0 675.988)
(675.764 0 0 0 675.764 0 0 0 675.764)
(675.565 0 0 0 675.565 0 0 0 675.565)
(675.583 0 0 0 675.583 0 0 0 675.583)
(676.392 0 0 0 676.392 0 0 0 676.392)
(679.344 0 0 0 679.344 0 0 0 679.344)
(686.779 0 0 0 686.779 0 0 0 686.779)
(691.832 0 0 0 691.832 0 0 0 691.832)
(682.443 0 0 0 682.443 0 0 0 682.443)
(681.93 0 0 0 681.93 0 0 0 681.93)
(681.947 0 0 0 681.947 0 0 0 681.947)
(681.953 0 0 0 681.953 0 0 0 681.953)
(681.947 0 0 0 681.947 0 0 0 681.947)
(681.928 0 0 0 681.928 0 0 0 681.928)
(681.894 0 0 0 681.894 0 0 0 681.894)
(681.845 0 0 0 681.845 0 0 0 681.845)
(681.776 0 0 0 681.776 0 0 0 681.776)
(681.688 0 0 0 681.688 0 0 0 681.688)
(681.578 0 0 0 681.578 0 0 0 681.578)
(681.444 0 0 0 681.444 0 0 0 681.444)
(681.287 0 0 0 681.287 0 0 0 681.287)
(681.105 0 0 0 681.105 0 0 0 681.105)
(680.893 0 0 0 680.893 0 0 0 680.893)
(680.641 0 0 0 680.641 0 0 0 680.641)
(680.331 0 0 0 680.331 0 0 0 680.331)
(679.946 0 0 0 679.946 0 0 0 679.946)
(679.479 0 0 0 679.479 0 0 0 679.479)
(678.985 0 0 0 678.985 0 0 0 678.985)
(678.642 0 0 0 678.642 0 0 0 678.642)
(678.995 0 0 0 678.995 0 0 0 678.995)
(681.349 0 0 0 681.349 0 0 0 681.349)
(688.006 0 0 0 688.006 0 0 0 688.006)
(692.208 0 0 0 692.208 0 0 0 692.208)
(682.443 0 0 0 682.443 0 0 0 682.443)
(681.93 0 0 0 681.93 0 0 0 681.93)
(681.947 0 0 0 681.947 0 0 0 681.947)
(681.953 0 0 0 681.953 0 0 0 681.953)
(681.947 0 0 0 681.947 0 0 0 681.947)
(681.928 0 0 0 681.928 0 0 0 681.928)
(681.894 0 0 0 681.894 0 0 0 681.894)
(681.844 0 0 0 681.844 0 0 0 681.844)
(681.776 0 0 0 681.776 0 0 0 681.776)
(681.688 0 0 0 681.688 0 0 0 681.688)
(681.577 0 0 0 681.577 0 0 0 681.577)
(681.444 0 0 0 681.444 0 0 0 681.444)
(681.287 0 0 0 681.287 0 0 0 681.287)
(681.105 0 0 0 681.105 0 0 0 681.105)
(680.893 0 0 0 680.893 0 0 0 680.893)
(680.641 0 0 0 680.641 0 0 0 680.641)
(680.331 0 0 0 680.331 0 0 0 680.331)
(679.945 0 0 0 679.945 0 0 0 679.945)
(679.478 0 0 0 679.478 0 0 0 679.478)
(678.984 0 0 0 678.984 0 0 0 678.984)
(678.642 0 0 0 678.642 0 0 0 678.642)
(678.994 0 0 0 678.994 0 0 0 678.994)
(681.348 0 0 0 681.348 0 0 0 681.348)
(688.004 0 0 0 688.004 0 0 0 688.004)
(692.207 0 0 0 692.207 0 0 0 692.207)
(678.192 0 0 0 678.192 0 0 0 678.192)
(677.631 0 0 0 677.631 0 0 0 677.631)
(677.615 0 0 0 677.615 0 0 0 677.615)
(677.59 0 0 0 677.59 0 0 0 677.59)
(677.555 0 0 0 677.555 0 0 0 677.555)
(677.51 0 0 0 677.51 0 0 0 677.51)
(677.452 0 0 0 677.452 0 0 0 677.452)
(677.38 0 0 0 677.38 0 0 0 677.38)
(677.292 0 0 0 677.292 0 0 0 677.292)
(677.186 0 0 0 677.186 0 0 0 677.186)
(677.064 0 0 0 677.064 0 0 0 677.064)
(676.926 0 0 0 676.926 0 0 0 676.926)
(676.78 0 0 0 676.78 0 0 0 676.78)
(676.631 0 0 0 676.631 0 0 0 676.631)
(676.484 0 0 0 676.484 0 0 0 676.484)
(676.337 0 0 0 676.337 0 0 0 676.337)
(676.177 0 0 0 676.177 0 0 0 676.177)
(675.988 0 0 0 675.988 0 0 0 675.988)
(675.764 0 0 0 675.764 0 0 0 675.764)
(675.565 0 0 0 675.565 0 0 0 675.565)
(675.583 0 0 0 675.583 0 0 0 675.583)
(676.392 0 0 0 676.392 0 0 0 676.392)
(679.344 0 0 0 679.344 0 0 0 679.344)
(686.78 0 0 0 686.78 0 0 0 686.78)
(691.832 0 0 0 691.832 0 0 0 691.832)
)
;

boundaryField
{
    outletCentralUnloaded
    {
        type            zeroGradient;
    }
    inletCentralUnloaded
    {
        type            zeroGradient;
    }
    outletFuelElement
    {
        type            zeroGradient;
    }
    inletFuelElement
    {
        type            zeroGradient;
    }
    defaultFaces
    {
        type            zeroGradient;
    }
    baffle_master
    {
        type            zeroGradient;
    }
    baffle_slave
    {
        type            zeroGradient;
    }
}


// ************************************************************************* //
