/*--------------------------------*- C++ -*----------------------------------*\
| =========                 |                                                 |
| \\      /  F ield         | OpenFOAM: The Open Source CFD Toolbox           |
|  \\    /   O peration     | Version:  2212                                  |
|   \\  /    A nd           | Website:  www.openfoam.com                      |
|    \\/     M anipulation  |                                                 |
\*---------------------------------------------------------------------------*/
FoamFile
{
    version     2.0;
    format      ascii;
    arch        "LSB;label=32;scalar=64";
    class       volScalarField;
    location    "36/fluidRegion";
    object      nut;
}
// * * * * * * * * * * * * * * * * * * * * * * * * * * * * * * * * * * * * * //

dimensions      [0 2 -1 0 0 0 0];

internalField   nonuniform List<scalar> 
350
(
0.000537586
0.000537543
0.0005375
0.000537458
0.000537416
0.000537375
0.000537332
0.00053729
0.000537246
0.000537201
0.000537157
0.000537112
0.000537069
0.000537028
0.000536992
0.000536961
0.000536941
0.000536936
0.000536953
0.000537006
0.000537112
0.000537299
0.000537608
0.000538102
0.000539506
0.000537586
0.000537543
0.0005375
0.000537458
0.000537416
0.000537375
0.000537332
0.00053729
0.000537246
0.000537201
0.000537157
0.000537112
0.000537069
0.000537028
0.000536992
0.000536961
0.000536941
0.000536936
0.000536953
0.000537006
0.000537112
0.000537299
0.000537608
0.000538102
0.000539506
0.0103136
0.0101011
0.00983708
0.00951692
0.00914554
0.0087281
0.00826994
0.00777656
0.00725361
0.00670695
0.00614277
0.00556766
0.00498875
0.00441381
0.00385108
0.00330902
0.00279576
0.00231863
0.00188385
0.00149663
0.00116158
0.00088316
0.000665597
0.000511421
0.000416396
0.0103799
0.0101663
0.00990142
0.00957986
0.00920665
0.00878699
0.00832625
0.00782994
0.00730374
0.00675355
0.00618557
0.0056064
0.00502324
0.00444391
0.00387676
0.00333035
0.00281293
0.00233196
0.00189374
0.00150355
0.00116604
0.000885687
0.000666769
0.000511797
0.000416462
0.0103028
0.0100904
0.00982656
0.00950667
0.00913562
0.00871857
0.00826086
0.00776797
0.00724557
0.00669951
0.00613595
0.0055615
0.00498328
0.00440904
0.00384702
0.00330564
0.00279303
0.0023165
0.00188225
0.00149549
0.00116081
0.000882675
0.000665317
0.000511274
0.000416347
0.0103652
0.0101519
0.00988714
0.00956585
0.00919302
0.00877383
0.00831364
0.00781796
0.00729247
0.00674306
0.00617591
0.00559764
0.00501543
0.00443708
0.00387092
0.00332549
0.00280902
0.00232892
0.00189149
0.00150198
0.00116502
0.000885118
0.000666511
0.000511722
0.000416453
0.0103652
0.0101519
0.00988714
0.00956585
0.00919302
0.00877383
0.00831364
0.00781796
0.00729247
0.00674306
0.00617591
0.00559764
0.00501543
0.00443708
0.00387092
0.00332549
0.00280902
0.00232892
0.00189149
0.00150198
0.00116502
0.000885118
0.000666511
0.000511722
0.000416453
0.0103029
0.0100904
0.00982657
0.00950667
0.00913562
0.00871857
0.00826086
0.00776798
0.00724557
0.00669951
0.00613596
0.0055615
0.00498328
0.00440904
0.00384702
0.00330564
0.00279303
0.0023165
0.00188225
0.00149549
0.00116081
0.000882675
0.000665317
0.000511273
0.000416347
0.0103799
0.0101663
0.00990142
0.00957986
0.00920665
0.00878699
0.00832625
0.00782994
0.00730374
0.00675355
0.00618557
0.0056064
0.00502324
0.00444391
0.00387676
0.00333035
0.00281293
0.00233196
0.00189374
0.00150355
0.00116604
0.000885687
0.000666769
0.000511797
0.000416462
0.0103136
0.0101011
0.00983708
0.00951692
0.00914554
0.0087281
0.00826994
0.00777656
0.00725361
0.00670695
0.00614277
0.00556766
0.00498875
0.00441381
0.00385108
0.00330902
0.00279576
0.00231863
0.00188385
0.00149663
0.00116158
0.000883161
0.000665597
0.000511422
0.000416398
0.0103652
0.0101519
0.00988714
0.00956585
0.00919302
0.00877383
0.00831364
0.00781796
0.00729247
0.00674306
0.00617591
0.00559764
0.00501543
0.00443708
0.00387092
0.00332549
0.00280902
0.00232892
0.00189149
0.00150198
0.00116502
0.000885118
0.000666511
0.000511723
0.000416453
0.0103028
0.0100904
0.00982656
0.00950667
0.00913562
0.00871857
0.00826086
0.00776797
0.00724557
0.00669951
0.00613595
0.0055615
0.00498328
0.00440904
0.00384702
0.00330564
0.00279303
0.0023165
0.00188225
0.00149549
0.00116081
0.000882675
0.000665316
0.000511271
0.000416344
0.0103029
0.0100904
0.00982657
0.00950667
0.00913562
0.00871857
0.00826086
0.00776798
0.00724557
0.00669951
0.00613596
0.0055615
0.00498328
0.00440904
0.00384702
0.00330564
0.00279303
0.0023165
0.00188225
0.00149549
0.00116081
0.000882675
0.000665316
0.000511273
0.000416346
0.0103652
0.0101519
0.00988714
0.00956585
0.00919302
0.00877383
0.00831364
0.00781796
0.00729247
0.00674306
0.00617591
0.00559764
0.00501543
0.00443708
0.00387092
0.00332549
0.00280902
0.00232892
0.00189149
0.00150198
0.00116502
0.000885118
0.000666512
0.000511724
0.000416455
)
;

boundaryField
{
    outletCentralUnloaded
    {
        type            zeroGradient;
    }
    inletCentralUnloaded
    {
        type            zeroGradient;
    }
    outletFuelElement
    {
        type            zeroGradient;
    }
    inletFuelElement
    {
        type            zeroGradient;
    }
    defaultFaces
    {
        type            zeroGradient;
    }
    baffle_master
    {
        type            calculated;
        value           nonuniform List<scalar> 
150
(
0.000537586
0.000537586
0.000537586
0.000537543
0.000537543
0.000537543
0.0005375
0.0005375
0.0005375
0.000537458
0.000537458
0.000537458
0.000537416
0.000537416
0.000537416
0.000537375
0.000537375
0.000537375
0.000537332
0.000537332
0.000537332
0.00053729
0.00053729
0.00053729
0.000537246
0.000537246
0.000537246
0.000537201
0.000537201
0.000537201
0.000537157
0.000537157
0.000537157
0.000537112
0.000537112
0.000537112
0.000537069
0.000537069
0.000537069
0.000537028
0.000537028
0.000537028
0.000536992
0.000536992
0.000536992
0.000536961
0.000536961
0.000536961
0.000536941
0.000536941
0.000536941
0.000536936
0.000536936
0.000536936
0.000536953
0.000536953
0.000536953
0.000537006
0.000537006
0.000537006
0.000537112
0.000537112
0.000537112
0.000537299
0.000537299
0.000537299
0.000537608
0.000537608
0.000537608
0.000538102
0.000538102
0.000538102
0.000539506
0.000539506
0.000539506
0.000537586
0.000537586
0.000537586
0.000537543
0.000537543
0.000537543
0.0005375
0.0005375
0.0005375
0.000537458
0.000537458
0.000537458
0.000537416
0.000537416
0.000537416
0.000537375
0.000537375
0.000537375
0.000537332
0.000537332
0.000537332
0.00053729
0.00053729
0.00053729
0.000537246
0.000537246
0.000537246
0.000537201
0.000537201
0.000537201
0.000537157
0.000537157
0.000537157
0.000537112
0.000537112
0.000537112
0.000537069
0.000537069
0.000537069
0.000537028
0.000537028
0.000537028
0.000536992
0.000536992
0.000536992
0.000536961
0.000536961
0.000536961
0.000536941
0.000536941
0.000536941
0.000536936
0.000536936
0.000536936
0.000536953
0.000536953
0.000536953
0.000537006
0.000537006
0.000537006
0.000537112
0.000537112
0.000537112
0.000537299
0.000537299
0.000537299
0.000537608
0.000537608
0.000537608
0.000538102
0.000538102
0.000538102
0.000539506
0.000539506
0.000539506
)
;
    }
    baffle_slave
    {
        type            calculated;
        value           nonuniform List<scalar> 
150
(
0.0103799
0.0103652
0.0103652
0.0101663
0.0101519
0.0101519
0.00990142
0.00988714
0.00988714
0.00957986
0.00956585
0.00956585
0.00920665
0.00919302
0.00919302
0.00878699
0.00877383
0.00877383
0.00832625
0.00831364
0.00831364
0.00782994
0.00781796
0.00781796
0.00730374
0.00729247
0.00729247
0.00675355
0.00674306
0.00674306
0.00618557
0.00617591
0.00617591
0.0056064
0.00559764
0.00559764
0.00502324
0.00501543
0.00501543
0.00444391
0.00443708
0.00443708
0.00387676
0.00387092
0.00387092
0.00333035
0.00332549
0.00332549
0.00281293
0.00280902
0.00280902
0.00233196
0.00232892
0.00232892
0.00189374
0.00189149
0.00189149
0.00150355
0.00150198
0.00150198
0.00116604
0.00116502
0.00116502
0.000885687
0.000885118
0.000885118
0.000666769
0.000666511
0.000666512
0.000511797
0.000511722
0.000511724
0.000416462
0.000416453
0.000416455
0.0103652
0.0103799
0.0103652
0.0101519
0.0101663
0.0101519
0.00988714
0.00990142
0.00988714
0.00956585
0.00957986
0.00956585
0.00919302
0.00920665
0.00919302
0.00877383
0.00878699
0.00877383
0.00831364
0.00832625
0.00831364
0.00781796
0.00782994
0.00781796
0.00729247
0.00730374
0.00729247
0.00674306
0.00675355
0.00674306
0.00617591
0.00618557
0.00617591
0.00559764
0.0056064
0.00559764
0.00501543
0.00502324
0.00501543
0.00443708
0.00444391
0.00443708
0.00387092
0.00387676
0.00387092
0.00332549
0.00333035
0.00332549
0.00280902
0.00281293
0.00280902
0.00232892
0.00233196
0.00232892
0.00189149
0.00189374
0.00189149
0.00150198
0.00150355
0.00150198
0.00116502
0.00116604
0.00116502
0.000885118
0.000885687
0.000885118
0.000666511
0.000666769
0.000666511
0.000511722
0.000511797
0.000511723
0.000416453
0.000416462
0.000416453
)
;
    }
}


// ************************************************************************* //
