/*--------------------------------*- C++ -*----------------------------------*\
| =========                 |                                                 |
| \\      /  F ield         | OpenFOAM: The Open Source CFD Toolbox           |
|  \\    /   O peration     | Version:  2212                                  |
|   \\  /    A nd           | Website:  www.openfoam.com                      |
|    \\/     M anipulation  |                                                 |
\*---------------------------------------------------------------------------*/
FoamFile
{
    version     2.0;
    format      ascii;
    arch        "LSB;label=32;scalar=64";
    class       volScalarField;
    location    "36/fluidRegion";
    object      p_rgh;
}
// * * * * * * * * * * * * * * * * * * * * * * * * * * * * * * * * * * * * * //

dimensions      [1 -1 -2 0 0 0 0];

internalField   nonuniform List<scalar> 
350
(
3.44743e+06
3.44773e+06
3.44802e+06
3.44832e+06
3.44861e+06
3.44891e+06
3.4492e+06
3.4495e+06
3.44979e+06
3.45009e+06
3.45038e+06
3.45068e+06
3.45097e+06
3.45127e+06
3.45156e+06
3.45186e+06
3.45216e+06
3.45245e+06
3.45275e+06
3.45304e+06
3.45334e+06
3.45363e+06
3.45393e+06
3.45422e+06
3.45451e+06
3.44743e+06
3.44773e+06
3.44802e+06
3.44832e+06
3.44861e+06
3.44891e+06
3.4492e+06
3.4495e+06
3.44979e+06
3.45009e+06
3.45038e+06
3.45068e+06
3.45097e+06
3.45127e+06
3.45156e+06
3.45186e+06
3.45216e+06
3.45245e+06
3.45275e+06
3.45304e+06
3.45334e+06
3.45363e+06
3.45393e+06
3.45422e+06
3.45451e+06
3.4735e+06
3.52468e+06
3.5753e+06
3.62503e+06
3.67358e+06
3.72066e+06
3.76601e+06
3.80939e+06
3.8506e+06
3.88944e+06
3.92575e+06
3.9594e+06
3.99028e+06
4.01829e+06
4.04341e+06
4.06561e+06
4.08496e+06
4.10153e+06
4.11546e+06
4.12693e+06
4.13613e+06
4.14329e+06
4.14864e+06
4.15248e+06
4.15515e+06
3.4735e+06
3.52468e+06
3.5753e+06
3.62503e+06
3.67358e+06
3.72066e+06
3.76601e+06
3.80939e+06
3.8506e+06
3.88944e+06
3.92575e+06
3.9594e+06
3.99028e+06
4.01829e+06
4.04341e+06
4.06561e+06
4.08496e+06
4.10153e+06
4.11546e+06
4.12693e+06
4.13613e+06
4.14329e+06
4.14864e+06
4.15248e+06
4.15515e+06
3.4735e+06
3.52468e+06
3.5753e+06
3.62503e+06
3.67358e+06
3.72066e+06
3.76601e+06
3.80939e+06
3.8506e+06
3.88944e+06
3.92575e+06
3.9594e+06
3.99028e+06
4.01829e+06
4.04341e+06
4.06561e+06
4.08496e+06
4.10153e+06
4.11546e+06
4.12693e+06
4.13613e+06
4.14329e+06
4.14864e+06
4.15248e+06
4.15515e+06
3.4735e+06
3.52468e+06
3.5753e+06
3.62503e+06
3.67358e+06
3.72066e+06
3.76601e+06
3.80939e+06
3.8506e+06
3.88944e+06
3.92575e+06
3.9594e+06
3.99028e+06
4.01829e+06
4.04341e+06
4.06561e+06
4.08496e+06
4.10153e+06
4.11546e+06
4.12693e+06
4.13613e+06
4.14329e+06
4.14864e+06
4.15248e+06
4.15515e+06
3.4735e+06
3.52468e+06
3.5753e+06
3.62503e+06
3.67358e+06
3.72066e+06
3.76601e+06
3.80939e+06
3.8506e+06
3.88944e+06
3.92575e+06
3.9594e+06
3.99028e+06
4.01829e+06
4.04341e+06
4.06561e+06
4.08496e+06
4.10153e+06
4.11546e+06
4.12693e+06
4.13613e+06
4.14329e+06
4.14864e+06
4.15248e+06
4.15515e+06
3.4735e+06
3.52468e+06
3.5753e+06
3.62503e+06
3.67358e+06
3.72066e+06
3.76601e+06
3.80939e+06
3.8506e+06
3.88944e+06
3.92575e+06
3.9594e+06
3.99028e+06
4.01829e+06
4.04341e+06
4.06561e+06
4.08496e+06
4.10153e+06
4.11546e+06
4.12693e+06
4.13613e+06
4.14329e+06
4.14864e+06
4.15248e+06
4.15515e+06
3.4735e+06
3.52468e+06
3.5753e+06
3.62503e+06
3.67358e+06
3.72066e+06
3.76601e+06
3.80939e+06
3.8506e+06
3.88944e+06
3.92575e+06
3.9594e+06
3.99028e+06
4.01829e+06
4.04341e+06
4.06561e+06
4.08496e+06
4.10153e+06
4.11546e+06
4.12693e+06
4.13613e+06
4.14329e+06
4.14864e+06
4.15248e+06
4.15515e+06
3.4735e+06
3.52468e+06
3.5753e+06
3.62503e+06
3.67358e+06
3.72066e+06
3.76601e+06
3.80939e+06
3.8506e+06
3.88944e+06
3.92575e+06
3.9594e+06
3.99028e+06
4.01829e+06
4.04341e+06
4.06561e+06
4.08496e+06
4.10153e+06
4.11546e+06
4.12693e+06
4.13613e+06
4.14329e+06
4.14864e+06
4.15248e+06
4.15515e+06
3.4735e+06
3.52468e+06
3.5753e+06
3.62503e+06
3.67358e+06
3.72066e+06
3.76601e+06
3.80939e+06
3.8506e+06
3.88944e+06
3.92575e+06
3.9594e+06
3.99028e+06
4.01829e+06
4.04341e+06
4.06561e+06
4.08496e+06
4.10153e+06
4.11546e+06
4.12693e+06
4.13613e+06
4.14329e+06
4.14864e+06
4.15248e+06
4.15515e+06
3.4735e+06
3.52468e+06
3.5753e+06
3.62503e+06
3.67358e+06
3.72066e+06
3.76601e+06
3.80939e+06
3.8506e+06
3.88944e+06
3.92575e+06
3.9594e+06
3.99028e+06
4.01829e+06
4.04341e+06
4.06561e+06
4.08496e+06
4.10153e+06
4.11546e+06
4.12693e+06
4.13613e+06
4.14329e+06
4.14864e+06
4.15248e+06
4.15515e+06
3.4735e+06
3.52468e+06
3.5753e+06
3.62503e+06
3.67358e+06
3.72066e+06
3.76601e+06
3.80939e+06
3.8506e+06
3.88944e+06
3.92575e+06
3.9594e+06
3.99028e+06
4.01829e+06
4.04341e+06
4.06561e+06
4.08496e+06
4.10153e+06
4.11546e+06
4.12693e+06
4.13613e+06
4.14329e+06
4.14864e+06
4.15248e+06
4.15515e+06
3.4735e+06
3.52468e+06
3.5753e+06
3.62503e+06
3.67358e+06
3.72066e+06
3.76601e+06
3.80939e+06
3.8506e+06
3.88944e+06
3.92575e+06
3.9594e+06
3.99028e+06
4.01829e+06
4.04341e+06
4.06561e+06
4.08496e+06
4.10153e+06
4.11546e+06
4.12693e+06
4.13613e+06
4.14329e+06
4.14864e+06
4.15248e+06
4.15515e+06
)
;

boundaryField
{
    outletCentralUnloaded
    {
        type            fixedValue;
        value           uniform 3.44728e+06;
    }
    inletCentralUnloaded
    {
        type            zeroGradient;
    }
    outletFuelElement
    {
        type            fixedValue;
        value           uniform 3.44728e+06;
    }
    inletFuelElement
    {
        type            zeroGradient;
    }
    defaultFaces
    {
        type            zeroGradient;
    }
    baffle_master
    {
        type            zeroGradient;
    }
    baffle_slave
    {
        type            zeroGradient;
    }
}


// ************************************************************************* //
