/*--------------------------------*- C++ -*----------------------------------*\
| =========                 |                                                 |
| \\      /  F ield         | OpenFOAM: The Open Source CFD Toolbox           |
|  \\    /   O peration     | Version:  2212                                  |
|   \\  /    A nd           | Website:  www.openfoam.com                      |
|    \\/     M anipulation  |                                                 |
\*---------------------------------------------------------------------------*/
FoamFile
{
    version     2.0;
    format      ascii;
    arch        "LSB;label=32;scalar=64";
    class       volScalarField;
    location    "36/fluidRegion";
    object      T;
}
// * * * * * * * * * * * * * * * * * * * * * * * * * * * * * * * * * * * * * //

dimensions      [0 0 0 1 0 0 0];

internalField   nonuniform List<scalar> 
350
(
83.2889
83.2895
83.29
83.2906
83.2911
83.2916
83.292
83.2924
83.2927
83.293
83.2934
83.2937
83.2942
83.2946
83.2951
83.2957
83.2962
83.2968
83.2973
83.2979
83.2984
83.2989
83.2994
83.2998
83.3002
83.2889
83.2895
83.29
83.2906
83.2911
83.2916
83.292
83.2924
83.2927
83.293
83.2934
83.2937
83.2942
83.2946
83.2951
83.2957
83.2962
83.2968
83.2973
83.2979
83.2984
83.2989
83.2994
83.2998
83.3002
1807.32
1801.92
1784.13
1754.16
1712.36
1659.22
1595.36
1521.52
1438.58
1347.55
1249.57
1145.97
1038.28
928.235
817.787
709.024
604.038
504.779
412.946
329.972
257.114
195.558
146.521
111.155
90.1323
1835.15
1829.98
1812.2
1782.03
1739.82
1686.05
1621.36
1546.5
1462.36
1369.95
1270.44
1165.15
1055.62
943.615
831.128
720.297
613.285
512.109
418.529
334.018
259.859
197.247
147.414
111.515
90.2088
1802.79
1797.38
1779.6
1749.68
1707.97
1654.95
1591.23
1517.57
1434.84
1344.04
1246.32
1143
1035.61
925.874
815.751
707.313
602.644
503.682
412.116
329.375
256.713
195.313
146.393
111.103
90.1201
1828.89
1823.66
1805.86
1775.72
1733.59
1679.95
1615.44
1540.81
1456.93
1364.83
1265.66
1160.75
1051.63
940.075
828.052
717.695
611.148
510.413
417.236
333.081
259.222
196.855
147.207
111.432
90.1912
1828.89
1823.66
1805.86
1775.72
1733.59
1679.95
1615.44
1540.81
1456.93
1364.83
1265.66
1160.75
1051.63
940.075
828.052
717.695
611.148
510.413
417.236
333.081
259.222
196.855
147.207
111.432
90.1912
1802.8
1797.38
1779.6
1749.68
1707.97
1654.95
1591.23
1517.57
1434.84
1344.04
1246.32
1143
1035.61
925.875
815.752
707.315
602.645
503.682
412.117
329.376
256.714
195.313
146.393
111.103
90.1201
1835.15
1829.98
1812.2
1782.03
1739.82
1686.05
1621.36
1546.5
1462.36
1369.95
1270.44
1165.15
1055.62
943.615
831.128
720.297
613.285
512.109
418.529
334.018
259.859
197.247
147.414
111.515
90.2088
1807.32
1801.92
1784.13
1754.16
1712.36
1659.22
1595.36
1521.52
1438.58
1347.55
1249.57
1145.97
1038.28
928.235
817.787
709.024
604.038
504.779
412.946
329.972
257.114
195.558
146.521
111.155
90.1323
1828.89
1823.66
1805.86
1775.72
1733.59
1679.95
1615.44
1540.81
1456.93
1364.83
1265.66
1160.75
1051.63
940.075
828.052
717.695
611.148
510.413
417.236
333.081
259.222
196.855
147.207
111.432
90.1912
1802.79
1797.38
1779.6
1749.68
1707.97
1654.94
1591.23
1517.57
1434.84
1344.04
1246.32
1143
1035.61
925.874
815.751
707.313
602.644
503.682
412.116
329.375
256.713
195.313
146.393
111.103
90.1201
1802.8
1797.38
1779.6
1749.68
1707.97
1654.95
1591.23
1517.57
1434.84
1344.04
1246.32
1143
1035.61
925.875
815.752
707.314
602.645
503.682
412.117
329.376
256.714
195.313
146.393
111.103
90.1201
1828.89
1823.66
1805.86
1775.72
1733.59
1679.95
1615.44
1540.81
1456.93
1364.83
1265.66
1160.75
1051.63
940.075
828.052
717.695
611.148
510.413
417.236
333.081
259.222
196.855
147.207
111.431
90.1912
)
;

boundaryField
{
    outletCentralUnloaded
    {
        type            zeroGradient;
    }
    inletCentralUnloaded
    {
        type            fixedValue;
        value           uniform 83.3;
    }
    outletFuelElement
    {
        type            zeroGradient;
    }
    inletFuelElement
    {
        type            fixedValue;
        value           uniform 83.3;
    }
    defaultFaces
    {
        type            zeroGradient;
    }
    baffle_master
    {
        type            zeroGradient;
    }
    baffle_slave
    {
        type            zeroGradient;
    }
}


// ************************************************************************* //
