/*--------------------------------*- C++ -*----------------------------------*\
| =========                 |                                                 |
| \\      /  F ield         | OpenFOAM: The Open Source CFD Toolbox           |
|  \\    /   O peration     | Version:  2212                                  |
|   \\  /    A nd           | Website:  www.openfoam.com                      |
|    \\/     M anipulation  |                                                 |
\*---------------------------------------------------------------------------*/
FoamFile
{
    version     2.0;
    format      ascii;
    arch        "LSB;label=32;scalar=64";
    class       volScalarField;
    location    "36/fluidRegion";
    object      T.fuelAvForNeutronics;
}
// * * * * * * * * * * * * * * * * * * * * * * * * * * * * * * * * * * * * * //

dimensions      [0 0 0 1 0 0 0];

internalField   nonuniform List<scalar> 
350
(
0
0
0
0
0
0
0
0
0
0
0
0
0
0
0
0
0
0
0
0
0
0
0
0
0
0
0
0
0
0
0
0
0
0
0
0
0
0
0
0
0
0
0
0
0
0
0
0
0
0
2154.02
2937.9
3691.4
4403.07
5062.02
5658.15
6182.29
6626.37
6983.54
7248.28
7416.51
7485.66
7454.69
7324.18
7096.26
6774.57
6364.1
5870.87
5301.55
4662.88
3960.57
3198.24
2376.18
1494.63
567.042
2185.21
2978.27
3740.52
4460.39
5126.85
5729.69
6259.65
6708.55
7069.48
7336.85
7506.55
7575.97
7544.07
7411.43
7180.23
6854.15
6438.28
5938.75
5362.34
4715.94
4005.34
3234.18
2402.67
1510.91
572.509
2148.96
2931.4
3683.53
4393.91
5051.68
5646.75
6169.98
6613.31
6969.89
7234.23
7402.24
7471.35
7440.53
7310.37
7082.97
6761.99
6352.37
5860.14
5291.94
4654.5
3953.51
3192.58
2372.02
1492.08
566.179
2178.18
2969.1
3729.33
4447.29
5112.01
5713.3
6241.9
6689.68
7049.73
7316.49
7485.84
7555.19
7523.5
7391.34
7160.89
6835.83
6421.19
5923.11
5348.34
4703.72
3995.03
3225.9
2396.57
1507.15
571.249
2178.18
2969.1
3729.33
4447.29
5112.01
5713.3
6241.9
6689.68
7049.73
7316.49
7485.84
7555.19
7523.5
7391.34
7160.89
6835.83
6421.19
5923.11
5348.34
4703.72
3995.03
3225.9
2396.57
1507.15
571.249
2148.96
2931.4
3683.53
4393.91
5051.68
5646.76
6169.99
6613.31
6969.89
7234.23
7402.24
7471.35
7440.54
7310.37
7082.97
6761.99
6352.37
5860.14
5291.94
4654.5
3953.51
3192.58
2372.03
1492.08
566.179
2185.21
2978.27
3740.52
4460.39
5126.85
5729.69
6259.65
6708.55
7069.48
7336.85
7506.55
7575.97
7544.07
7411.43
7180.23
6854.15
6438.28
5938.75
5362.34
4715.94
4005.34
3234.18
2402.67
1510.91
572.509
2154.02
2937.9
3691.4
4403.07
5062.02
5658.15
6182.29
6626.37
6983.54
7248.28
7416.51
7485.65
7454.69
7324.18
7096.26
6774.57
6364.1
5870.87
5301.55
4662.88
3960.57
3198.24
2376.18
1494.63
567.042
2178.18
2969.1
3729.33
4447.29
5112.01
5713.3
6241.9
6689.68
7049.73
7316.49
7485.84
7555.19
7523.5
7391.34
7160.89
6835.83
6421.19
5923.11
5348.34
4703.72
3995.03
3225.9
2396.57
1507.15
571.249
2148.96
2931.4
3683.53
4393.91
5051.68
5646.75
6169.98
6613.31
6969.89
7234.23
7402.24
7471.35
7440.53
7310.37
7082.97
6761.99
6352.37
5860.14
5291.94
4654.5
3953.51
3192.58
2372.03
1492.08
566.179
2148.96
2931.4
3683.53
4393.91
5051.68
5646.76
6169.99
6613.31
6969.89
7234.23
7402.24
7471.35
7440.54
7310.37
7082.97
6761.99
6352.37
5860.14
5291.94
4654.5
3953.51
3192.58
2372.03
1492.08
566.179
2178.18
2969.1
3729.33
4447.29
5112.01
5713.3
6241.9
6689.68
7049.73
7316.49
7485.84
7555.19
7523.5
7391.34
7160.89
6835.83
6421.19
5923.11
5348.34
4703.72
3995.03
3225.9
2396.57
1507.15
571.249
)
;

boundaryField
{
    outletCentralUnloaded
    {
        type            zeroGradient;
    }
    inletCentralUnloaded
    {
        type            zeroGradient;
    }
    outletFuelElement
    {
        type            zeroGradient;
    }
    inletFuelElement
    {
        type            zeroGradient;
    }
    defaultFaces
    {
        type            zeroGradient;
    }
    baffle_master
    {
        type            zeroGradient;
    }
    baffle_slave
    {
        type            zeroGradient;
    }
}


// ************************************************************************* //
