/*--------------------------------*- C++ -*----------------------------------*\
| =========                 |                                                 |
| \\      /  F ield         | OpenFOAM: The Open Source CFD Toolbox           |
|  \\    /   O peration     | Version:  2212                                  |
|   \\  /    A nd           | Website:  www.openfoam.com                      |
|    \\/     M anipulation  |                                                 |
\*---------------------------------------------------------------------------*/
FoamFile
{
    version     2.0;
    format      ascii;
    arch        "LSB;label=32;scalar=64";
    class       volScalarField;
    location    "36/fluidRegion";
    object      Tco.nuclearFuelPin;
}
// * * * * * * * * * * * * * * * * * * * * * * * * * * * * * * * * * * * * * //

dimensions      [0 0 0 1 0 0 0];

internalField   nonuniform List<scalar> 
350
(
0
0
0
0
0
0
0
0
0
0
0
0
0
0
0
0
0
0
0
0
0
0
0
0
0
0
0
0
0
0
0
0
0
0
0
0
0
0
0
0
0
0
0
0
0
0
0
0
0
0
1821.8
1849.42
1864.37
1866.81
1857.05
1835.5
1802.74
1759.47
1706.5
1644.78
1575.36
1499.4
1418.14
1332.93
1245.19
1156.36
1067.73
980.301
894.337
808.889
720.91
624.017
507.521
359.598
181.869
1849.72
1877.85
1893.08
1895.58
1885.65
1863.73
1830.39
1786.33
1732.41
1669.56
1598.86
1521.48
1438.69
1351.85
1262.4
1171.82
1081.45
992.329
904.794
817.926
728.674
630.57
512.711
362.979
183.012
1817.26
1844.82
1859.74
1862.2
1852.48
1831.01
1798.36
1755.22
1702.42
1640.9
1571.69
1495.96
1414.95
1330
1242.54
1153.98
1065.64
978.466
892.748
807.522
719.743
623.043
506.76
359.107
181.695
1843.44
1871.44
1886.59
1889.06
1879.16
1857.31
1824.08
1780.2
1726.48
1663.88
1593.47
1516.41
1433.96
1347.49
1258.44
1168.25
1078.28
989.548
902.376
815.835
726.877
629.052
511.507
362.194
182.748
1843.44
1871.44
1886.59
1889.06
1879.16
1857.31
1824.08
1780.2
1726.48
1663.88
1593.47
1516.41
1433.96
1347.49
1258.44
1168.25
1078.28
989.548
902.376
815.835
726.877
629.053
511.507
362.194
182.748
1817.26
1844.82
1859.75
1862.2
1852.48
1831.01
1798.36
1755.22
1702.42
1640.9
1571.69
1495.96
1414.95
1330.01
1242.54
1153.99
1065.64
978.467
892.749
807.523
719.744
623.043
506.761
359.108
181.695
1849.72
1877.85
1893.08
1895.58
1885.65
1863.73
1830.39
1786.33
1732.41
1669.56
1598.86
1521.48
1438.69
1351.85
1262.4
1171.82
1081.45
992.329
904.794
817.926
728.674
630.57
512.711
362.978
183.012
1821.8
1849.42
1864.37
1866.81
1857.05
1835.5
1802.74
1759.47
1706.5
1644.78
1575.36
1499.4
1418.14
1332.93
1245.19
1156.36
1067.73
980.301
894.337
808.889
720.91
624.017
507.521
359.598
181.869
1843.44
1871.44
1886.59
1889.06
1879.16
1857.31
1824.08
1780.2
1726.48
1663.88
1593.47
1516.41
1433.96
1347.49
1258.44
1168.25
1078.28
989.548
902.376
815.835
726.877
629.053
511.507
362.194
182.748
1817.26
1844.82
1859.74
1862.2
1852.48
1831.01
1798.36
1755.22
1702.42
1640.9
1571.69
1495.96
1414.95
1330
1242.54
1153.98
1065.64
978.466
892.748
807.522
719.743
623.043
506.76
359.107
181.695
1817.26
1844.82
1859.75
1862.2
1852.48
1831.01
1798.36
1755.22
1702.42
1640.9
1571.69
1495.96
1414.95
1330.01
1242.54
1153.98
1065.64
978.467
892.749
807.523
719.744
623.043
506.761
359.108
181.695
1843.44
1871.44
1886.59
1889.06
1879.16
1857.31
1824.08
1780.2
1726.48
1663.88
1593.47
1516.41
1433.96
1347.49
1258.44
1168.25
1078.28
989.548
902.376
815.835
726.877
629.053
511.507
362.194
182.748
)
;

boundaryField
{
    outletCentralUnloaded
    {
        type            zeroGradient;
    }
    inletCentralUnloaded
    {
        type            zeroGradient;
    }
    outletFuelElement
    {
        type            zeroGradient;
    }
    inletFuelElement
    {
        type            zeroGradient;
    }
    defaultFaces
    {
        type            zeroGradient;
    }
    baffle_master
    {
        type            zeroGradient;
    }
    baffle_slave
    {
        type            zeroGradient;
    }
}


// ************************************************************************* //
