/*--------------------------------*- C++ -*----------------------------------*\
| =========                 |                                                 |
| \\      /  F ield         | OpenFOAM: The Open Source CFD Toolbox           |
|  \\    /   O peration     | Version:  2212                                  |
|   \\  /    A nd           | Website:  www.openfoam.com                      |
|    \\/     M anipulation  |                                                 |
\*---------------------------------------------------------------------------*/
FoamFile
{
    version     2.0;
    format      ascii;
    arch        "LSB;label=32;scalar=64";
    class       volScalarField;
    location    "36/fluidRegion";
    object      Tfo.nuclearFuelPin;
}
// * * * * * * * * * * * * * * * * * * * * * * * * * * * * * * * * * * * * * //

dimensions      [0 0 0 1 0 0 0];

internalField   nonuniform List<scalar> 
350
(
0
0
0
0
0
0
0
0
0
0
0
0
0
0
0
0
0
0
0
0
0
0
0
0
0
0
0
0
0
0
0
0
0
0
0
0
0
0
0
0
0
0
0
0
0
0
0
0
0
0
1981.81
2370.19
2737.44
3078.19
3387.39
3660.46
3893.31
4082.47
4225.09
4319.03
4362.91
4356.08
4298.73
4191.83
4037.14
3837.14
3594.9
3313.8
2997.19
2647.76
2266.66
1852.25
1399.08
901.051
365.428
2011.32
2404.35
2775.92
3120.61
3433.31
3709.38
3944.7
4135.75
4279.66
4374.27
4418.17
4410.74
4352.14
4243.37
4086.21
3883.2
3637.47
3352.49
3031.67
2677.81
2292.08
1872.83
1414.44
910.59
368.635
1977.01
2364.68
2731.26
3071.4
3380.06
3652.67
3885.14
4074.01
4216.44
4310.29
4354.17
4347.46
4290.31
4183.71
4029.41
3829.89
3588.2
3307.72
2991.77
2643.05
2262.68
1849.04
1396.7
899.578
364.925
2004.68
2396.61
2767.18
3110.95
3422.83
3698.19
3932.93
4123.53
4267.13
4361.58
4405.47
4398.17
4339.85
4231.5
4074.91
3872.59
3627.66
3343.57
3023.72
2670.88
2286.22
1868.09
1410.9
908.388
367.896
2004.68
2396.61
2767.18
3110.95
3422.83
3698.19
3932.93
4123.53
4267.13
4361.58
4405.47
4398.17
4339.85
4231.5
4074.91
3872.59
3627.66
3343.57
3023.72
2670.88
2286.22
1868.09
1410.9
908.388
367.896
1977.02
2364.68
2731.26
3071.4
3380.07
3652.67
3885.14
4074.01
4216.44
4310.29
4354.17
4347.46
4290.31
4183.71
4029.41
3829.89
3588.2
3307.73
2991.77
2643.05
2262.68
1849.05
1396.7
899.579
364.925
2011.32
2404.35
2775.92
3120.61
3433.31
3709.38
3944.7
4135.75
4279.66
4374.27
4418.17
4410.74
4352.14
4243.37
4086.21
3883.2
3637.47
3352.49
3031.67
2677.81
2292.08
1872.83
1414.44
910.59
368.635
1981.81
2370.19
2737.44
3078.19
3387.39
3660.46
3893.31
4082.47
4225.09
4319.03
4362.91
4356.08
4298.73
4191.83
4037.14
3837.14
3594.9
3313.8
2997.19
2647.76
2266.66
1852.25
1399.08
901.051
365.428
2004.68
2396.61
2767.18
3110.95
3422.83
3698.19
3932.93
4123.53
4267.13
4361.58
4405.47
4398.17
4339.85
4231.5
4074.91
3872.59
3627.66
3343.57
3023.72
2670.88
2286.22
1868.09
1410.9
908.388
367.896
1977.01
2364.68
2731.26
3071.4
3380.06
3652.67
3885.14
4074.01
4216.44
4310.29
4354.17
4347.45
4290.31
4183.71
4029.41
3829.89
3588.2
3307.72
2991.77
2643.05
2262.68
1849.04
1396.7
899.578
364.925
1977.02
2364.68
2731.26
3071.4
3380.07
3652.67
3885.14
4074.01
4216.44
4310.29
4354.17
4347.46
4290.31
4183.71
4029.41
3829.89
3588.2
3307.73
2991.77
2643.05
2262.68
1849.05
1396.7
899.579
364.925
2004.68
2396.61
2767.18
3110.95
3422.83
3698.19
3932.93
4123.53
4267.13
4361.58
4405.47
4398.17
4339.85
4231.5
4074.91
3872.59
3627.66
3343.57
3023.72
2670.88
2286.22
1868.09
1410.9
908.387
367.895
)
;

boundaryField
{
    outletCentralUnloaded
    {
        type            zeroGradient;
    }
    inletCentralUnloaded
    {
        type            zeroGradient;
    }
    outletFuelElement
    {
        type            zeroGradient;
    }
    inletFuelElement
    {
        type            zeroGradient;
    }
    defaultFaces
    {
        type            zeroGradient;
    }
    baffle_master
    {
        type            zeroGradient;
    }
    baffle_slave
    {
        type            zeroGradient;
    }
}


// ************************************************************************* //
