/*--------------------------------*- C++ -*----------------------------------*\
| =========                 |                                                 |
| \\      /  F ield         | OpenFOAM: The Open Source CFD Toolbox           |
|  \\    /   O peration     | Version:  2212                                  |
|   \\  /    A nd           | Website:  www.openfoam.com                      |
|    \\/     M anipulation  |                                                 |
\*---------------------------------------------------------------------------*/
FoamFile
{
    version     2.0;
    format      ascii;
    arch        "LSB;label=32;scalar=64";
    class       scalarFieldField;
    location    "36/fluidRegion";
    object      Trad.nuclearFuelPin;
}
// * * * * * * * * * * * * * * * * * * * * * * * * * * * * * * * * * * * * * //


350
(
0()
0()
0()
0()
0()
0()
0()
0()
0()
0()
0()
0()
0()
0()
0()
0()
0()
0()
0()
0()
0()
0()
0()
0()
0()
0()
0()
0()
0()
0()
0()
0()
0()
0()
0()
0()
0()
0()
0()
0()
0()
0()
0()
0()
0()
0()
0()
0()
0()
0()

20
(
2324.17
2322.69
2318.28
2310.9
2300.56
2287.23
2270.88
2251.5
2229.03
2203.44
2174.7
2142.75
2107.53
2069.01
2027.12
1981.81
1832.1
1828.55
1825.12
1821.8
)


20
(
3506.57
3501.58
3486.59
3461.61
3426.61
3381.57
3326.46
3261.25
3185.89
3100.35
3004.58
2898.51
2782.1
2655.29
2518
2370.19
1883.07
1871.49
1860.28
1849.42
)


20
(
4649.32
4640.88
4615.58
4573.39
4514.3
4438.29
4345.32
4235.35
4108.34
3964.25
3803.01
3624.56
3428.85
3215.81
2985.36
2737.44
1920.82
1901.38
1882.58
1864.37
)


20
(
5734.8
5723.06
5687.84
5629.13
5546.91
5441.15
5311.82
5158.87
4982.25
4781.92
4557.81
4309.86
4037.99
3742.14
3422.23
3078.19
1945.16
1918.18
1892.09
1866.81
)


20
(
6746.24
6731.39
6686.82
6612.53
6508.5
6374.69
6211.06
6017.58
5794.19
5540.82
5257.43
4943.93
4600.26
4226.33
3822.07
3387.39
1956.03
1921.95
1888.98
1857.05
)


20
(
7667.99
7650.26
7597.06
7508.38
7384.19
7224.46
7029.16
6798.23
6531.63
6229.28
5891.12
5517.07
5107.07
4661.02
4178.84
3660.46
1953.55
1912.9
1873.58
1835.5
)


20
(
8485.76
8465.43
8404.44
8302.78
8160.41
7977.32
7753.45
7488.75
7183.18
6836.66
6449.11
6020.48
5550.67
5039.59
4487.17
3893.31
1937.98
1891.41
1846.36
1802.74
)


20
(
9186.84
9164.24
9096.43
8983.4
8825.13
8621.58
8372.7
8078.46
7738.77
7353.58
6922.82
6446.4
5924.25
5356.27
4742.37
4082.47
1909.74
1858
1807.94
1759.47
)


20
(
9760.34
9735.82
9662.28
9539.69
9368.02
9147.25
8877.32
8558.19
8189.79
7772.06
7304.92
6788.29
6222.08
5606.2
4940.57
4225.09
1869.44
1813.33
1759.06
1706.5
)


20
(
10197.3
10171.3
10093.2
9962.97
9780.64
9546.15
9259.46
8920.52
8529.26
8085.61
7589.5
7040.85
6439.57
5785.56
5078.75
4319.03
1817.79
1758.22
1700.59
1644.78
)


20
(
10491
10463.9
10382.5
10246.7
10056.6
9812.1
9513.19
9159.81
8751.9
8289.37
7772.17
7200.19
6573.37
5891.61
5154.82
4362.91
1755.71
1693.61
1633.54
1575.36
)


20
(
10636.9
10609.1
10525.6
10386.4
10191.6
9940.98
9634.6
9272.39
8854.28
8380.22
7850.11
7263.89
6621.46
5922.75
5167.65
4356.08
1684.22
1620.58
1559.02
1499.4
)


20
(
10632.7
10604.7
10520.4
10380.1
10183.6
9930.83
9621.83
9256.54
8834.87
8356.78
7822.18
7231
6583.15
5878.55
5117.1
4298.73
1604.5
1540.33
1478.26
1418.14
)


20
(
10478.6
10450.7
10367.2
10227.8
10032.8
9781.89
9475.19
9112.59
8694.05
8219.51
7688.89
7102.11
6459.1
5759.77
5004.04
4191.83
1517.9
1454.21
1392.6
1332.93
)


20
(
10177.1
10149.9
10068.2
9932.17
9741.64
9496.61
9197.05
8842.9
8434.13
7970.65
7452.41
6879.34
6251.36
5568.38
4830.34
4037.14
1425.83
1363.63
1303.46
1245.19
)


20
(
9732.98
9706.85
9628.45
9497.78
9314.81
9079.51
8791.85
8451.77
8059.23
7614.18
7116.54
6566.25
5963.24
5307.43
4598.76
3837.14
1329.8
1270.08
1212.31
1156.36
)


20
(
9153.16
9128.53
9054.62
8931.42
8758.92
8537.08
8265.88
7945.26
7575.19
7155.61
6686.46
6167.68
5599.2
4980.96
4312.88
3594.9
1231.24
1174.94
1120.48
1067.73
)


20
(
8446.35
8423.6
8355.35
8241.59
8082.29
7877.44
7626.99
7330.93
6989.19
6601.74
6168.52
5689.48
5164.54
4593.66
3976.77
3313.8
1131.28
1079.29
1029
980.301
)


20
(
7622.55
7602.05
7540.54
7438.01
7294.45
7109.84
6884.14
6617.33
6309.35
5960.19
5569.77
5138.06
4665.01
4150.55
3594.62
2997.19
1030.39
983.547
938.227
894.337
)


20
(
6692.58
6674.65
6620.86
6531.2
6405.66
6244.21
6046.84
5813.51
5544.19
5238.84
4897.43
4519.91
4106.23
3656.34
3170.2
2647.76
927.865
886.9
847.269
808.889
)


20
(
5666.76
5651.69
5606.47
5531.1
5425.57
5289.85
5123.94
4927.8
4701.41
4444.73
4157.74
3840.39
3492.65
3114.47
2705.82
2266.66
820.921
786.485
753.172
720.91
)


20
(
4554
4542.02
4506.09
4446.2
4362.34
4254.5
4122.66
3966.8
3786.91
3582.95
3354.9
3102.73
2826.42
2525.92
2201.21
1852.25
703.483
676.121
649.651
624.017
)


20
(
3360.45
3351.75
3325.66
3282.18
3221.29
3143
3047.28
2934.13
2803.52
2655.45
2489.89
2306.83
2106.24
1888.1
1652.39
1399.08
565.204
545.342
526.128
507.521
)


20
(
2092.74
2087.46
2071.6
2045.17
2008.16
1960.57
1902.39
1833.62
1754.25
1664.27
1563.67
1452.44
1330.58
1198.07
1054.89
901.051
394.63
382.568
370.899
359.598
)


20
(
770.608
768.805
763.397
754.383
741.764
725.542
705.716
682.289
655.262
624.636
590.414
552.597
511.188
466.188
417.601
365.428
193.748
189.658
185.701
181.869
)


20
(
2356.98
2355.49
2351.03
2343.59
2333.15
2319.7
2303.2
2283.63
2260.95
2235.12
2206.1
2173.84
2138.29
2099.39
2057.09
2011.32
1860.13
1856.54
1853.08
1849.72
)


20
(
3553.13
3548.08
3532.93
3507.68
3472.3
3426.77
3371.06
3305.14
3228.97
3142.5
3045.68
2938.46
2820.78
2692.57
2553.79
2404.35
1911.87
1900.16
1888.82
1877.85
)


20
(
4709.09
4700.56
4674.97
4632.32
4572.57
4495.72
4401.71
4290.53
4162.11
4016.41
3853.38
3672.94
3475.05
3259.63
3026.61
2775.92
1950.16
1930.5
1911.49
1893.08
)


20
(
5807.05
5795.18
5759.57
5700.2
5617.06
5510.12
5379.33
5224.67
5046.08
4843.5
4616.87
4366.13
4091.21
3792.03
3468.52
3120.61
1974.8
1947.53
1921.14
1895.58
)


20
(
6830.05
6815.03
6769.97
6694.84
6589.63
6454.32
6288.85
6093.19
5867.28
5611.06
5324.47
5007.43
4659.88
4281.73
3872.9
3433.31
1985.75
1951.29
1917.94
1885.65
)


20
(
7762.26
7744.33
7690.53
7600.84
7475.25
7313.72
7116.21
6882.68
6613.05
6307.29
5965.3
5587.03
5172.38
4721.28
4233.64
3709.38
1983.11
1942.01
1902.24
1863.73
)


20
(
8589.21
8568.66
8506.98
8404.16
8260.19
8075.02
7848.62
7580.92
7271.89
6921.44
6529.5
6096.01
5620.87
5103.99
4545.3
3944.7
1967.16
1920.06
1874.5
1830.39
)


20
(
9298.07
9275.22
9206.64
9092.34
8932.27
8726.41
8474.71
8177.12
7833.59
7444.03
7008.38
6526.55
5998.46
5424.03
4803.16
4135.75
1938.32
1885.99
1835.36
1786.33
)


20
(
9877.83
9853.03
9778.65
9654.67
9481.05
9257.78
8984.79
8662.03
8289.45
7866.97
7394.52
6872.01
6299.37
5676.49
5003.28
4279.66
1897.2
1840.46
1785.56
1732.41
)


20
(
10319.4
10293.1
10214.1
10082.4
9898.01
9660.86
9370.91
9028.12
8632.41
8183.71
7681.96
7127.07
6518.94
5857.5
5142.64
4374.27
1844.54
1784.29
1726.01
1669.56
)


20
(
10616.1
10588.6
10506.2
10368.9
10176.7
9929.4
9627.1
9269.7
8857.14
8389.35
7866.26
7287.78
6653.82
5964.3
5219.11
4418.17
1781.26
1718.46
1657.7
1598.86
)


20
(
10763.1
10735
10650.5
10509.8
10312.7
10059.2
9749.38
9383.05
8960.19
8480.72
7944.58
7351.68
6701.94
5995.26
5231.56
4410.74
1708.41
1644.04
1581.78
1521.48
)


20
(
10758.3
10729.9
10644.8
10502.8
10304
10048.4
9735.91
9366.45
8939.98
8456.44
7915.75
7317.83
6662.6
5949.97
5179.84
4352.14
1627.18
1562.28
1499.49
1438.69
)


20
(
10601.8
10573.6
10489.1
10348.2
10150.9
9897.16
9586.96
9220.23
8796.93
8316.97
7780.3
7186.84
6536.49
5829.19
5064.85
4243.37
1538.93
1474.51
1412.2
1351.85
)


20
(
10296.2
10268.7
10186.1
10048.5
9855.76
9607.94
9304.97
8946.79
8533.35
8064.59
7540.45
6960.84
6325.69
5634.93
4888.46
4086.21
1445.1
1382.2
1321.34
1262.4
)


20
(
9846.3
9819.87
9740.58
9608.42
9423.36
9185.38
8894.44
8550.48
8153.47
7703.34
7200.02
6643.46
6033.57
5370.28
4653.52
3883.2
1347.24
1286.84
1228.41
1171.82
)


20
(
9259.16
9234.25
9159.49
9034.89
8860.42
8636.05
8361.76
8037.48
7663.19
7238.82
6764.32
6239.62
5664.65
5039.35
4363.65
3637.47
1246.82
1189.88
1134.8
1081.45
)


20
(
8543.62
8520.61
8451.58
8336.52
8175.4
7968.21
7714.91
7415.47
7069.84
6677.96
6239.8
5755.28
5224.36
4646.96
4023.03
3352.49
1145.03
1092.45
1041.59
992.329
)


20
(
7709.84
7689.11
7626.9
7523.2
7378
7191.28
6963.01
6693.14
6381.66
6028.5
5633.63
5197
4718.54
4198.2
3635.93
3031.67
1042.4
995.022
949.184
904.794
)


20
(
6768.82
6750.68
6696.28
6605.59
6478.62
6315.33
6115.7
5879.71
5607.32
5298.48
4953.17
4571.34
4152.94
3697.91
3206.22
2677.81
938.261
896.827
856.744
817.926
)


20
(
5731.01
5715.76
5670.03
5593.8
5487.06
5349.8
5181.99
4983.61
4754.63
4495.03
4204.76
3883.79
3532.07
3149.58
2736.26
2292.08
829.827
794.998
761.304
728.674
)


20
(
4605.41
4593.29
4556.95
4496.38
4411.56
4302.49
4169.15
4011.51
3829.57
3623.28
3392.63
3137.59
2858.12
2554.19
2225.77
1872.83
710.944
683.27
656.497
630.57
)


20
(
3398.15
3389.35
3362.97
3318.99
3257.41
3178.22
3081.42
2966.97
2834.88
2685.13
2517.68
2332.54
2129.66
1909.03
1670.63
1414.44
571.051
550.964
531.53
512.711
)


20
(
2115.81
2110.47
2094.43
2067.7
2030.27
1982.14
1923.3
1853.75
1773.48
1682.48
1580.74
1468.25
1345
1210.98
1066.18
910.59
398.409
386.21
374.408
362.979
)


20
(
778.35
776.527
771.058
761.944
749.184
732.781
712.734
689.046
661.717
630.749
596.145
557.905
516.032
470.527
421.394
368.635
195.025
190.889
186.887
183.012
)


20
(
2318.85
2317.38
2312.97
2305.6
2295.28
2281.97
2265.65
2246.29
2223.85
2198.31
2169.61
2137.7
2102.54
2064.08
2022.26
1977.01
1827.55
1824
1820.58
1817.26
)


20
(
3499.09
3494.1
3479.14
3454.2
3419.26
3374.29
3319.28
3254.18
3178.96
3093.57
2997.96
2892.08
2775.87
2649.28
2512.23
2364.68
1878.41
1866.85
1855.66
1844.82
)


20
(
4639.74
4631.32
4606.06
4563.95
4504.97
4429.09
4336.28
4226.51
4099.73
3955.88
3794.93
3616.8
3421.44
3208.77
2978.74
2731.26
1916.09
1896.69
1877.92
1859.74
)


20
(
5723.25
5711.53
5676.38
5617.78
5535.7
5430.13
5301.03
5148.35
4972.05
4772.08
4548.37
4300.86
4029.48
3734.16
3414.82
3071.4
1940.4
1913.47
1887.42
1862.2
)


20
(
6732.87
6718.05
6673.56
6599.41
6495.56
6361.99
6198.65
6005.52
5782.53
5529.62
5246.73
4933.8
4590.74
4217.49
3813.95
3380.06
1951.28
1917.26
1884.35
1852.48
)


20
(
7652.98
7635.28
7582.17
7493.65
7369.68
7210.24
7015.29
6784.78
6518.65
6216.85
5879.3
5505.93
5096.66
4651.42
4170.12
3652.67
1948.84
1908.27
1869.02
1831.01
)


20
(
8469.29
8449
8388.12
8286.64
8144.54
7961.77
7738.31
7474.09
7169.07
6823.17
6436.33
6008.46
5539.5
5029.35
4477.93
3885.14
1933.35
1886.87
1841.9
1798.36
)


20
(
9169.15
9146.59
9078.91
8966.08
8808.1
8604.91
8356.49
8062.77
7723.7
7339.21
6909.23
6433.67
5912.46
5345.51
4732.72
4074.01
1905.23
1853.58
1803.61
1755.22
)


20
(
9741.67
9717.2
9643.79
9521.41
9350.06
9129.69
8860.25
8541.7
8173.97
7756.99
7290.69
6775
6209.81
5595.05
4930.63
4216.44
1865.06
1809.06
1754.89
1702.42
)


20
(
10177.9
10152
10074
9944
9762
9527.94
9241.77
8903.43
8512.88
8070.04
7574.83
7027.17
6426.98
5774.16
5068.63
4310.29
1813.59
1754.13
1696.6
1640.9
)


20
(
10471.2
10444.1
10362.8
10227.3
10037.5
9793.48
9495.12
9142.38
8735.2
8273.51
7757.24
7186.31
6560.63
5880.1
5144.65
4354.17
1751.71
1689.72
1629.76
1571.69
)


20
(
10616.9
10589.1
10505.8
10366.9
10172.4
9922.21
9616.39
9254.84
8837.49
8364.28
7835.14
7249.98
6608.72
5911.28
5157.55
4347.46
1680.44
1616.92
1555.47
1495.96
)


20
(
10612.8
10584.8
10500.7
10360.6
10164.5
9912.18
9603.75
9239.11
8818.21
8340.99
7807.36
7217.25
6570.57
5867.25
5107.19
4290.31
1600.98
1536.92
1474.96
1414.95
)


20
(
10459.1
10431.3
10347.8
10208.8
10014
9763.62
9457.47
9095.53
8677.75
8204.07
7674.41
7088.7
6446.86
5748.8
4994.45
4183.71
1514.64
1451.06
1389.56
1330
)


20
(
10158.2
10131
10049.6
9913.73
9723.54
9478.96
9179.94
8826.44
8418.41
7955.77
7438.48
6866.45
6239.6
5557.87
4821.17
4029.41
1422.85
1360.77
1300.71
1242.54
)


20
(
9715.01
9688.93
9610.68
9480.24
9297.61
9062.73
8775.59
8436.13
8044.31
7600.06
7103.33
6554.04
5952.12
5297.51
4590.13
3829.89
1327.11
1267.5
1209.83
1153.98
)


20
(
9136.36
9111.77
9038
8915.02
8742.84
8521.4
8250.69
7930.66
7561.26
7142.44
6674.14
6156.3
5588.86
4971.74
4304.88
3588.2
1228.85
1172.65
1118.28
1065.64
)


20
(
8430.94
8408.23
8340.1
8226.54
8067.54
7863.06
7613.07
7317.54
6976.43
6589.68
6157.25
5679.07
5155.1
4585.25
3969.49
3307.72
1129.17
1077.28
1027.08
978.466
)


20
(
7608.72
7588.26
7526.86
7424.52
7281.22
7096.94
6871.65
6605.32
6297.91
5949.38
5559.68
5128.75
4656.56
4143.03
3588.12
2991.77
1028.56
981.795
936.558
892.748
)


20
(
6680.51
6662.61
6608.92
6519.42
6394.1
6232.95
6035.94
5803.03
5534.2
5229.41
4888.62
4511.79
4098.86
3649.79
3164.54
2643.05
926.281
885.39
845.832
807.522
)


20
(
5656.6
5641.55
5596.42
5521.18
5415.84
5280.37
5114.76
4918.98
4693
4436.79
4150.31
3833.54
3486.43
3108.95
2701.04
2262.68
819.572
785.199
751.946
719.743
)


20
(
4545.88
4533.92
4498.06
4438.28
4354.57
4246.92
4115.32
3959.75
3780.18
3576.59
3348.96
3097.25
2821.43
2521.48
2197.37
1849.04
702.364
675.052
648.63
623.043
)


20
(
3354.5
3345.82
3319.78
3276.38
3215.6
3137.45
3041.9
2928.96
2798.59
2650.79
2485.53
2302.8
2102.57
1884.83
1649.55
1396.7
564.338
544.513
525.334
506.76
)


20
(
2089.11
2083.84
2068.01
2041.62
2004.68
1957.18
1899.1
1830.46
1751.23
1661.41
1561
1449.97
1328.33
1196.06
1053.14
899.578
394.076
382.035
370.387
359.107
)


20
(
769.384
767.584
762.185
753.187
740.591
724.397
704.606
681.221
654.242
623.671
589.51
551.76
510.425
465.506
417.005
364.925
193.553
189.47
185.52
181.695
)


20
(
2349.56
2348.08
2343.63
2336.21
2325.79
2312.36
2295.9
2276.37
2253.74
2227.97
2199.02
2166.83
2131.35
2092.54
2050.33
2004.68
1853.83
1850.25
1846.79
1843.44
)


20
(
3542.54
3537.5
3522.39
3497.2
3461.91
3416.49
3360.92
3295.16
3219.18
3132.93
3036.35
2929.39
2812.01
2684.12
2545.68
2396.61
1905.38
1893.69
1882.39
1871.44
)


20
(
4695.44
4686.93
4661.41
4618.87
4559.27
4482.61
4388.85
4277.94
4149.85
4004.52
3841.9
3661.92
3464.53
3249.66
3017.23
2767.18
1943.52
1923.92
1904.95
1886.59
)


20
(
5790.52
5778.68
5743.16
5683.94
5601.01
5494.34
5363.89
5209.62
5031.48
4829.42
4603.37
4353.28
4079.06
3780.65
3457.97
3110.95
1968.08
1940.88
1914.55
1889.06
)


20
(
6810.85
6795.86
6750.91
6675.98
6571.04
6436.07
6271.03
6075.87
5850.54
5594.98
5309.12
4992.9
4646.24
4269.06
3861.29
3422.83
1979
1944.62
1911.36
1879.16
)


20
(
7740.63
7722.75
7669.08
7579.63
7454.36
7293.25
7096.25
6863.31
6594.38
6289.4
5948.3
5571
5157.42
4707.48
4221.1
3698.19
1976.38
1935.38
1895.72
1857.31
)


20
(
8565.46
8544.95
8483.43
8380.88
8237.28
8052.59
7826.77
7559.77
7251.53
6901.98
6511.06
6078.68
5604.77
5089.23
4531.98
3932.93
1960.5
1913.53
1868.09
1824.08
)


20
(
9272.52
9249.72
9181.32
9067.31
8907.65
8702.33
8451.28
8154.46
7811.81
7423.26
6988.73
6508.15
5981.43
5408.48
4789.21
4123.53
1931.79
1879.6
1829.1
1780.2
)


20
(
9850.82
9826.09
9751.9
9628.24
9455.07
9232.37
8960.09
8638.16
8266.55
7845.16
7373.93
6852.78
6281.61
5660.35
4988.88
4267.13
1890.85
1834.25
1779.5
1726.48
)


20
(
10291.4
10265.1
10186.3
10055
9871.02
9634.48
9345.28
9003.37
8608.69
8161.16
7660.71
7107.25
6500.7
5840.97
5127.96
4361.58
1838.41
1778.32
1720.18
1663.88
)


20
(
10587.3
10559.9
10477.8
10340.8
10149
9902.42
9600.9
9244.42
8832.93
8366.36
7844.62
7267.64
6635.32
5947.58
5204.33
4405.47
1775.4
1712.76
1652.16
1593.47
)


20
(
10734.1
10706
10621.8
10481.4
10284.8
10032
9722.97
9357.59
8935.82
8457.6
7922.84
7331.48
6683.42
5978.58
5216.86
4398.17
1702.85
1638.65
1576.55
1516.41
)


20
(
10729.4
10701.1
10616.1
10474.6
10276.3
10021.4
9709.65
9341.15
8915.79
8433.5
7894.21
7297.85
6644.31
5933.53
5165.4
4339.85
1621.96
1557.23
1494.61
1433.96
)


20
(
10573.4
10545.3
10461
10320.5
10123.7
9870.63
9561.23
9195.45
8773.24
8294.54
7759.26
7167.33
6518.68
5813.21
5050.85
4231.5
1534.08
1469.84
1407.68
1347.49
)


20
(
10268.8
10241.3
10159
10021.7
9829.49
9582.31
9280.12
8922.87
8510.5
8042.96
7520.18
6942.07
6308.57
5619.6
4875.07
4074.91
1440.66
1377.92
1317.22
1258.44
)


20
(
9820.2
9793.84
9714.76
9582.94
9398.37
9161
8870.81
8527.75
8131.77
7682.8
7180.8
6625.68
6017.37
5355.8
4640.9
3872.59
1343.22
1282.97
1224.69
1168.25
)


20
(
9234.75
9209.9
9135.34
9011.06
8837.05
8613.26
8339.68
8016.25
7642.92
7219.66
6746.39
6223.05
5649.58
5025.9
4351.95
3627.66
1243.23
1186.43
1131.49
1078.28
)


20
(
8521.22
8498.27
8429.42
8314.65
8153.96
7947.31
7694.66
7396
7051.26
6660.41
6223.38
5740.12
5210.58
4634.68
4012.37
3343.57
1141.85
1089.41
1038.68
989.548
)


20
(
7689.74
7669.06
7607.01
7503.58
7358.76
7172.52
6944.84
6675.68
6365
6012.77
5618.92
5183.42
4706.2
4187.22
3626.41
3023.72
1039.63
992.369
946.651
902.376
)


20
(
6751.26
6733.17
6678.91
6588.46
6461.81
6298.95
6099.84
5864.46
5592.77
5284.75
4940.33
4559.49
4142.17
3688.33
3197.92
2670.88
935.858
894.532
854.552
815.835
)


20
(
5716.21
5701.01
5655.39
5579.36
5472.9
5335.99
5168.62
4970.75
4742.37
4483.44
4193.92
3873.79
3522.99
3141.49
2729.25
2286.22
827.767
793.029
759.423
726.877
)


20
(
4593.56
4581.48
4545.24
4484.82
4400.22
4291.43
4158.44
4001.21
3819.74
3613.99
3383.94
3129.55
2850.81
2547.67
2220.11
1868.09
709.217
681.615
654.912
629.052
)


20
(
3389.46
3380.69
3354.37
3310.51
3249.09
3170.11
3073.55
2959.41
2827.66
2678.29
2511.28
2326.61
2124.26
1904.21
1666.43
1410.9
569.697
549.661
530.278
511.507
)


20
(
2110.5
2105.16
2089.17
2062.5
2025.17
1977.17
1918.48
1849.11
1769.05
1678.28
1576.8
1464.6
1341.67
1208
1063.58
908.388
397.532
385.365
373.593
362.194
)


20
(
776.567
774.748
769.293
760.202
747.475
731.113
711.118
687.489
660.23
629.341
594.824
556.682
514.915
469.527
420.52
367.896
194.73
190.604
186.613
182.748
)


20
(
2349.56
2348.08
2343.63
2336.21
2325.79
2312.36
2295.9
2276.37
2253.74
2227.97
2199.02
2166.83
2131.35
2092.54
2050.33
2004.68
1853.83
1850.25
1846.79
1843.44
)


20
(
3542.54
3537.5
3522.39
3497.2
3461.91
3416.49
3360.92
3295.16
3219.18
3132.93
3036.35
2929.39
2812.01
2684.12
2545.68
2396.61
1905.38
1893.69
1882.39
1871.44
)


20
(
4695.44
4686.93
4661.41
4618.87
4559.27
4482.61
4388.85
4277.94
4149.85
4004.52
3841.9
3661.92
3464.53
3249.66
3017.23
2767.18
1943.52
1923.92
1904.95
1886.59
)


20
(
5790.52
5778.68
5743.16
5683.94
5601.01
5494.34
5363.89
5209.62
5031.49
4829.42
4603.38
4353.28
4079.06
3780.65
3457.97
3110.95
1968.08
1940.88
1914.55
1889.06
)


20
(
6810.85
6795.86
6750.91
6675.98
6571.04
6436.07
6271.03
6075.87
5850.54
5594.98
5309.12
4992.9
4646.24
4269.06
3861.29
3422.83
1979
1944.62
1911.36
1879.16
)


20
(
7740.63
7722.75
7669.08
7579.63
7454.36
7293.25
7096.25
6863.31
6594.38
6289.4
5948.3
5571
5157.42
4707.48
4221.1
3698.19
1976.38
1935.38
1895.72
1857.31
)


20
(
8565.46
8544.95
8483.43
8380.88
8237.28
8052.59
7826.77
7559.77
7251.53
6901.98
6511.06
6078.68
5604.77
5089.23
4531.98
3932.93
1960.5
1913.53
1868.09
1824.08
)


20
(
9272.52
9249.72
9181.32
9067.31
8907.65
8702.33
8451.28
8154.46
7811.81
7423.26
6988.73
6508.15
5981.43
5408.48
4789.21
4123.53
1931.79
1879.6
1829.1
1780.2
)


20
(
9850.82
9826.09
9751.9
9628.24
9455.07
9232.37
8960.09
8638.16
8266.55
7845.16
7373.93
6852.78
6281.61
5660.35
4988.88
4267.13
1890.85
1834.25
1779.5
1726.48
)


20
(
10291.4
10265.1
10186.3
10055
9871.02
9634.48
9345.28
9003.37
8608.69
8161.16
7660.71
7107.25
6500.7
5840.97
5127.96
4361.58
1838.41
1778.32
1720.18
1663.88
)


20
(
10587.3
10559.9
10477.8
10340.8
10149
9902.42
9600.9
9244.42
8832.93
8366.36
7844.62
7267.64
6635.32
5947.58
5204.33
4405.47
1775.4
1712.76
1652.16
1593.47
)


20
(
10734.1
10706
10621.8
10481.4
10284.8
10032
9722.97
9357.59
8935.82
8457.6
7922.84
7331.48
6683.42
5978.58
5216.86
4398.17
1702.85
1638.65
1576.55
1516.41
)


20
(
10729.4
10701.1
10616.1
10474.6
10276.3
10021.4
9709.65
9341.15
8915.79
8433.5
7894.21
7297.85
6644.31
5933.53
5165.4
4339.85
1621.96
1557.23
1494.61
1433.96
)


20
(
10573.4
10545.3
10461
10320.5
10123.7
9870.62
9561.23
9195.45
8773.24
8294.53
7759.26
7167.33
6518.68
5813.21
5050.85
4231.5
1534.08
1469.84
1407.68
1347.49
)


20
(
10268.8
10241.3
10159
10021.7
9829.49
9582.31
9280.12
8922.87
8510.5
8042.96
7520.18
6942.07
6308.57
5619.6
4875.07
4074.91
1440.66
1377.92
1317.22
1258.44
)


20
(
9820.2
9793.84
9714.76
9582.94
9398.37
9161
8870.81
8527.75
8131.77
7682.8
7180.8
6625.68
6017.37
5355.8
4640.9
3872.59
1343.22
1282.97
1224.69
1168.25
)


20
(
9234.75
9209.9
9135.34
9011.06
8837.05
8613.26
8339.67
8016.25
7642.92
7219.66
6746.39
6223.05
5649.58
5025.9
4351.95
3627.66
1243.23
1186.43
1131.49
1078.28
)


20
(
8521.22
8498.27
8429.42
8314.65
8153.96
7947.3
7694.66
7396
7051.26
6660.41
6223.38
5740.12
5210.58
4634.68
4012.37
3343.57
1141.85
1089.41
1038.68
989.548
)


20
(
7689.74
7669.06
7607.01
7503.58
7358.76
7172.52
6944.84
6675.68
6365
6012.77
5618.92
5183.42
4706.2
4187.22
3626.41
3023.72
1039.63
992.369
946.651
902.376
)


20
(
6751.26
6733.17
6678.91
6588.46
6461.81
6298.95
6099.84
5864.46
5592.77
5284.74
4940.33
4559.49
4142.17
3688.33
3197.92
2670.88
935.858
894.532
854.552
815.835
)


20
(
5716.21
5701.01
5655.39
5579.36
5472.9
5335.99
5168.62
4970.75
4742.37
4483.44
4193.92
3873.79
3522.99
3141.49
2729.25
2286.22
827.767
793.029
759.423
726.877
)


20
(
4593.57
4581.48
4545.24
4484.82
4400.22
4291.43
4158.44
4001.21
3819.74
3613.99
3383.94
3129.55
2850.81
2547.67
2220.11
1868.09
709.217
681.615
654.912
629.053
)


20
(
3389.46
3380.69
3354.37
3310.51
3249.09
3170.11
3073.55
2959.41
2827.66
2678.29
2511.28
2326.61
2124.26
1904.21
1666.43
1410.9
569.697
549.661
530.278
511.507
)


20
(
2110.5
2105.16
2089.17
2062.5
2025.17
1977.17
1918.48
1849.11
1769.05
1678.28
1576.8
1464.6
1341.67
1208
1063.58
908.388
397.532
385.365
373.593
362.194
)


20
(
776.567
774.748
769.293
760.202
747.475
731.113
711.118
687.489
660.23
629.341
594.824
556.682
514.915
469.527
420.52
367.896
194.73
190.604
186.613
182.748
)


20
(
2318.85
2317.38
2312.97
2305.61
2295.28
2281.97
2265.65
2246.29
2223.85
2198.31
2169.61
2137.7
2102.54
2064.08
2022.26
1977.02
1827.55
1824.01
1820.58
1817.26
)


20
(
3499.09
3494.1
3479.14
3454.2
3419.26
3374.29
3319.28
3254.18
3178.96
3093.57
2997.96
2892.08
2775.87
2649.28
2512.23
2364.68
1878.42
1866.85
1855.66
1844.82
)


20
(
4639.74
4631.33
4606.06
4563.95
4504.97
4429.09
4336.28
4226.51
4099.73
3955.89
3794.93
3616.8
3421.44
3208.77
2978.74
2731.26
1916.1
1896.69
1877.92
1859.75
)


20
(
5723.25
5711.54
5676.38
5617.78
5535.7
5430.13
5301.03
5148.35
4972.05
4772.08
4548.37
4300.86
4029.48
3734.16
3414.83
3071.4
1940.4
1913.47
1887.43
1862.2
)


20
(
6732.87
6718.05
6673.56
6599.41
6495.56
6361.99
6198.66
6005.52
5782.53
5529.62
5246.73
4933.8
4590.74
4217.49
3813.96
3380.07
1951.28
1917.26
1884.35
1852.48
)


20
(
7652.98
7635.28
7582.17
7493.65
7369.68
7210.24
7015.29
6784.78
6518.66
6216.85
5879.3
5505.93
5096.66
4651.42
4170.12
3652.67
1948.84
1908.27
1869.02
1831.01
)


20
(
8469.29
8449
8388.12
8286.64
8144.54
7961.77
7738.31
7474.09
7169.07
6823.17
6436.33
6008.47
5539.5
5029.35
4477.93
3885.14
1933.35
1886.87
1841.9
1798.36
)


20
(
9169.15
9146.59
9078.91
8966.08
8808.1
8604.91
8356.49
8062.77
7723.7
7339.21
6909.23
6433.67
5912.46
5345.51
4732.72
4074.01
1905.23
1853.58
1803.61
1755.22
)


20
(
9741.67
9717.2
9643.79
9521.42
9350.06
9129.69
8860.25
8541.7
8173.97
7756.99
7290.69
6775
6209.81
5595.05
4930.63
4216.44
1865.06
1809.06
1754.89
1702.42
)


20
(
10177.9
10152
10074
9944
9762
9527.94
9241.77
8903.44
8512.88
8070.04
7574.83
7027.17
6426.98
5774.17
5068.63
4310.29
1813.59
1754.13
1696.61
1640.9
)


20
(
10471.2
10444.1
10362.8
10227.3
10037.5
9793.48
9495.12
9142.38
8735.2
8273.51
7757.25
7186.31
6560.63
5880.11
5144.65
4354.17
1751.71
1689.72
1629.76
1571.69
)


20
(
10616.9
10589.1
10505.8
10366.9
10172.4
9922.21
9616.39
9254.84
8837.49
8364.28
7835.14
7249.98
6608.72
5911.28
5157.55
4347.46
1680.44
1616.92
1555.47
1495.96
)


20
(
10612.8
10584.8
10500.7
10360.6
10164.5
9912.18
9603.75
9239.11
8818.21
8340.99
7807.36
7217.25
6570.57
5867.25
5107.19
4290.31
1600.98
1536.92
1474.96
1414.95
)


20
(
10459.1
10431.3
10347.8
10208.8
10014
9763.62
9457.47
9095.53
8677.75
8204.07
7674.41
7088.7
6446.86
5748.8
4994.45
4183.71
1514.64
1451.06
1389.56
1330.01
)


20
(
10158.2
10131
10049.6
9913.73
9723.54
9478.96
9179.94
8826.44
8418.41
7955.78
7438.48
6866.45
6239.6
5557.87
4821.17
4029.41
1422.85
1360.77
1300.71
1242.54
)


20
(
9715.02
9688.93
9610.68
9480.25
9297.61
9062.74
8775.59
8436.14
8044.31
7600.06
7103.33
6554.04
5952.13
5297.51
4590.13
3829.89
1327.12
1267.5
1209.83
1153.99
)


20
(
9136.37
9111.77
9038
8915.03
8742.84
8521.4
8250.69
7930.66
7561.26
7142.44
6674.14
6156.3
5588.86
4971.74
4304.88
3588.2
1228.85
1172.65
1118.29
1065.64
)


20
(
8430.94
8408.23
8340.1
8226.54
8067.54
7863.06
7613.07
7317.54
6976.43
6589.68
6157.25
5679.07
5155.1
4585.26
3969.49
3307.73
1129.17
1077.28
1027.08
978.467
)


20
(
7608.72
7588.26
7526.86
7424.52
7281.22
7096.94
6871.65
6605.32
6297.91
5949.38
5559.68
5128.75
4656.56
4143.03
3588.12
2991.77
1028.56
981.796
936.558
892.749
)


20
(
6680.51
6662.61
6608.92
6519.42
6394.1
6232.95
6035.94
5803.03
5534.2
5229.41
4888.62
4511.79
4098.86
3649.79
3164.54
2643.05
926.282
885.391
845.832
807.523
)


20
(
5656.6
5641.55
5596.42
5521.18
5415.84
5280.37
5114.76
4918.98
4693
4436.79
4150.31
3833.54
3486.43
3108.95
2701.04
2262.68
819.573
785.2
751.947
719.744
)


20
(
4545.88
4533.93
4498.06
4438.28
4354.57
4246.92
4115.32
3959.75
3780.18
3576.59
3348.96
3097.25
2821.44
2521.49
2197.37
1849.05
702.365
675.053
648.631
623.043
)


20
(
3354.5
3345.82
3319.78
3276.38
3215.6
3137.45
3041.91
2928.96
2798.59
2650.79
2485.53
2302.8
2102.57
1884.83
1649.55
1396.7
564.339
544.514
525.335
506.761
)


20
(
2089.11
2083.84
2068.01
2041.62
2004.68
1957.18
1899.1
1830.46
1751.23
1661.41
1561
1449.97
1328.33
1196.06
1053.14
899.579
394.076
382.036
370.388
359.108
)


20
(
769.384
767.584
762.185
753.187
740.591
724.397
704.607
681.221
654.242
623.671
589.51
551.761
510.425
465.506
417.005
364.925
193.553
189.47
185.52
181.695
)


20
(
2356.98
2355.49
2351.03
2343.59
2333.15
2319.7
2303.2
2283.63
2260.95
2235.12
2206.1
2173.84
2138.29
2099.39
2057.09
2011.32
1860.13
1856.54
1853.08
1849.72
)


20
(
3553.13
3548.08
3532.93
3507.68
3472.3
3426.77
3371.06
3305.14
3228.97
3142.5
3045.68
2938.46
2820.78
2692.57
2553.79
2404.35
1911.87
1900.16
1888.82
1877.85
)


20
(
4709.09
4700.56
4674.97
4632.32
4572.58
4495.72
4401.72
4290.53
4162.11
4016.41
3853.38
3672.94
3475.05
3259.63
3026.61
2775.92
1950.16
1930.5
1911.49
1893.08
)


20
(
5807.05
5795.18
5759.57
5700.2
5617.06
5510.12
5379.33
5224.67
5046.08
4843.5
4616.87
4366.13
4091.21
3792.03
3468.52
3120.61
1974.8
1947.53
1921.14
1895.58
)


20
(
6830.05
6815.03
6769.97
6694.84
6589.63
6454.32
6288.85
6093.19
5867.28
5611.06
5324.47
5007.43
4659.88
4281.73
3872.9
3433.31
1985.75
1951.29
1917.94
1885.65
)


20
(
7762.26
7744.33
7690.53
7600.84
7475.25
7313.72
7116.21
6882.68
6613.05
6307.29
5965.3
5587.03
5172.38
4721.28
4233.64
3709.38
1983.11
1942.01
1902.24
1863.73
)


20
(
8589.21
8568.66
8506.98
8404.16
8260.19
8075.02
7848.62
7580.92
7271.89
6921.44
6529.5
6096.01
5620.87
5103.99
4545.3
3944.7
1967.16
1920.06
1874.5
1830.39
)


20
(
9298.07
9275.22
9206.64
9092.33
8932.27
8726.41
8474.71
8177.12
7833.59
7444.03
7008.38
6526.55
5998.46
5424.03
4803.15
4135.75
1938.32
1885.99
1835.36
1786.33
)


20
(
9877.83
9853.03
9778.65
9654.67
9481.05
9257.78
8984.79
8662.03
8289.45
7866.97
7394.52
6872.01
6299.37
5676.49
5003.28
4279.66
1897.2
1840.46
1785.56
1732.41
)


20
(
10319.4
10293.1
10214.1
10082.4
9898.01
9660.86
9370.91
9028.12
8632.41
8183.71
7681.96
7127.07
6518.94
5857.5
5142.64
4374.27
1844.54
1784.29
1726.01
1669.56
)


20
(
10616.1
10588.6
10506.2
10368.9
10176.7
9929.4
9627.1
9269.7
8857.14
8389.35
7866.26
7287.78
6653.82
5964.3
5219.11
4418.17
1781.26
1718.46
1657.7
1598.86
)


20
(
10763.1
10735
10650.5
10509.8
10312.7
10059.2
9749.38
9383.05
8960.19
8480.72
7944.58
7351.68
6701.94
5995.26
5231.56
4410.74
1708.41
1644.04
1581.78
1521.48
)


20
(
10758.3
10729.9
10644.8
10502.8
10304
10048.4
9735.91
9366.45
8939.98
8456.44
7915.75
7317.83
6662.6
5949.96
5179.84
4352.14
1627.18
1562.28
1499.49
1438.69
)


20
(
10601.8
10573.6
10489.1
10348.2
10150.9
9897.16
9586.96
9220.23
8796.93
8316.97
7780.3
7186.84
6536.49
5829.19
5064.85
4243.37
1538.93
1474.51
1412.2
1351.85
)


20
(
10296.2
10268.7
10186.1
10048.5
9855.76
9607.94
9304.97
8946.79
8533.35
8064.59
7540.45
6960.84
6325.69
5634.93
4888.46
4086.21
1445.1
1382.2
1321.34
1262.4
)


20
(
9846.3
9819.87
9740.58
9608.42
9423.36
9185.38
8894.44
8550.48
8153.47
7703.34
7200.02
6643.46
6033.57
5370.28
4653.52
3883.2
1347.24
1286.84
1228.41
1171.82
)


20
(
9259.16
9234.25
9159.49
9034.89
8860.42
8636.05
8361.76
8037.48
7663.19
7238.82
6764.32
6239.62
5664.65
5039.35
4363.65
3637.47
1246.82
1189.88
1134.8
1081.45
)


20
(
8543.62
8520.61
8451.58
8336.52
8175.4
7968.21
7714.91
7415.47
7069.84
6677.96
6239.8
5755.28
5224.36
4646.96
4023.02
3352.49
1145.03
1092.45
1041.59
992.329
)


20
(
7709.84
7689.11
7626.9
7523.2
7378
7191.28
6963.01
6693.14
6381.66
6028.5
5633.63
5197
4718.54
4198.2
3635.93
3031.67
1042.4
995.022
949.184
904.794
)


20
(
6768.82
6750.68
6696.28
6605.59
6478.62
6315.33
6115.7
5879.71
5607.32
5298.48
4953.17
4571.34
4152.94
3697.91
3206.22
2677.81
938.261
896.827
856.744
817.926
)


20
(
5731.01
5715.76
5670.03
5593.8
5487.06
5349.8
5181.99
4983.61
4754.63
4495.03
4204.76
3883.78
3532.07
3149.58
2736.26
2292.08
829.827
794.998
761.304
728.674
)


20
(
4605.41
4593.29
4556.95
4496.38
4411.56
4302.49
4169.15
4011.51
3829.57
3623.28
3392.63
3137.59
2858.12
2554.19
2225.77
1872.83
710.944
683.27
656.497
630.57
)


20
(
3398.15
3389.35
3362.97
3318.99
3257.41
3178.23
3081.42
2966.98
2834.88
2685.13
2517.68
2332.54
2129.66
1909.03
1670.64
1414.44
571.052
550.964
531.53
512.711
)


20
(
2115.81
2110.47
2094.43
2067.7
2030.27
1982.14
1923.3
1853.75
1773.48
1682.48
1580.74
1468.25
1345
1210.98
1066.18
910.59
398.409
386.21
374.408
362.978
)


20
(
778.35
776.527