/*--------------------------------*- C++ -*----------------------------------*\
| =========                 |                                                 |
| \\      /  F ield         | OpenFOAM: The Open Source CFD Toolbox           |
|  \\    /   O peration     | Version:  2212                                  |
|   \\  /    A nd           | Website:  www.openfoam.com                      |
|    \\/     M anipulation  |                                                 |
\*---------------------------------------------------------------------------*/
FoamFile
{
    version     2.0;
    format      ascii;
    arch        "LSB;label=32;scalar=64";
    class       volVectorField;
    location    "36/fluidRegion";
    object      U;
}
// * * * * * * * * * * * * * * * * * * * * * * * * * * * * * * * * * * * * * //

dimensions      [0 1 -1 0 0 0 0];

internalField   nonuniform List<vector> 
350
(
(1.39755e-08 8.06874e-09 -14.9681)
(2.08973e-08 1.2065e-08 -14.9667)
(1.92326e-08 1.11039e-08 -14.9654)
(1.44727e-08 8.35577e-09 -14.964)
(6.97632e-09 4.02777e-09 -14.9627)
(-2.96542e-09 -1.71208e-09 -14.9614)
(-1.34244e-08 -7.75057e-09 -14.9601)
(-2.19385e-08 -1.26662e-08 -14.9589)
(-2.69444e-08 -1.55563e-08 -14.9576)
(-2.83222e-08 -1.63518e-08 -14.9564)
(-2.69271e-08 -1.55463e-08 -14.9551)
(-2.3776e-08 -1.3727e-08 -14.9539)
(-1.95971e-08 -1.13144e-08 -14.9527)
(-1.45744e-08 -8.41449e-09 -14.9514)
(-8.39032e-09 -4.84414e-09 -14.9501)
(-5.7037e-10 -3.29302e-10 -14.9489)
(9.20465e-09 5.31429e-09 -14.9475)
(2.05749e-08 1.18789e-08 -14.9462)
(3.22302e-08 1.86081e-08 -14.9448)
(4.22944e-08 2.44186e-08 -14.9435)
(4.9557e-08 2.86117e-08 -14.9422)
(5.43873e-08 3.14005e-08 -14.941)
(5.20881e-08 3.0073e-08 -14.9398)
(6.96986e-09 4.02404e-09 -14.9388)
(-8.7191e-08 -5.03396e-08 -14.9691)
(1.39755e-08 8.06874e-09 -14.9681)
(2.08973e-08 1.2065e-08 -14.9667)
(1.92326e-08 1.11039e-08 -14.9654)
(1.44727e-08 8.35577e-09 -14.964)
(6.97632e-09 4.02777e-09 -14.9627)
(-2.96542e-09 -1.71208e-09 -14.9614)
(-1.34244e-08 -7.75057e-09 -14.9601)
(-2.19385e-08 -1.26662e-08 -14.9589)
(-2.69444e-08 -1.55563e-08 -14.9576)
(-2.83222e-08 -1.63518e-08 -14.9564)
(-2.69271e-08 -1.55463e-08 -14.9551)
(-2.3776e-08 -1.3727e-08 -14.9539)
(-1.95971e-08 -1.13144e-08 -14.9527)
(-1.45744e-08 -8.41449e-09 -14.9514)
(-8.39032e-09 -4.84414e-09 -14.9501)
(-5.7037e-10 -3.29302e-10 -14.9489)
(9.20465e-09 5.31429e-09 -14.9475)
(2.05749e-08 1.18789e-08 -14.9462)
(3.22302e-08 1.86081e-08 -14.9448)
(4.22944e-08 2.44186e-08 -14.9435)
(4.9557e-08 2.86117e-08 -14.9422)
(5.43873e-08 3.14005e-08 -14.941)
(5.20881e-08 3.0073e-08 -14.9398)
(6.96986e-09 4.02404e-09 -14.9388)
(-8.7191e-08 -5.03396e-08 -14.9691)
(-0.00194027 -0.00112022 -419.291)
(-0.00094906 -0.00054794 -411.584)
(-0.00103417 -0.000597078 -401.794)
(-0.000930246 -0.000537077 -389.669)
(-0.000841739 -0.000485978 -375.401)
(-0.00075943 -0.000438457 -359.192)
(-0.000682862 -0.00039425 -341.252)
(-0.000608129 -0.000351103 -321.794)
(-0.000527217 -0.000304389 -301.04)
(-0.000426965 -0.000246508 -279.218)
(-0.000291332 -0.0001682 -256.567)
(-0.000104525 -6.03476e-05 -233.346)
(0.000136984 7.90874e-05 -209.835)
(0.000413811 0.000238913 -186.347)
(0.000694482 0.000400959 -163.219)
(0.00093248 0.000538367 -140.803)
(0.0010919 0.000630406 -119.444)
(0.00116377 0.0006719 -99.4565)
(0.00116725 0.000673909 -81.1057)
(0.00113567 0.000655679 -64.6129)
(0.00109847 0.000634199 -50.1702)
(0.00106206 0.000613183 -37.9658)
(0.00101096 0.000583679 -28.207)
(0.000876073 0.000505801 -21.1161)
(0.000830995 0.000479775 -16.6328)
(-0.00187409 -0.00109856 -421.979)
(-0.000696126 -0.00040208 -414.231)
(-0.000794319 -0.000462361 -404.412)
(-0.000721939 -0.000421833 -392.236)
(-0.000660734 -0.000387424 -377.9)
(-0.000604074 -0.000354277 -361.607)
(-0.000551373 -0.000322856 -343.566)
(-0.000499569 -0.000291554 -323.995)
(-0.000442871 -0.000257103 -303.114)
(-0.00037181 -0.000213793 -281.153)
(-0.000275435 -0.0001556 -258.352)
(-0.000142266 -7.59614e-05 -234.969)
(3.01378e-05 2.71156e-05 -211.288)
(0.00022164 0.000141826 -187.622)
(0.000414565 0.000257938 -164.312)
(0.000575954 0.000356458 -141.717)
(0.000682027 0.00042363 -120.185)
(0.000727846 0.000456418 -100.036)
(0.00072694 0.000463048 -81.5399)
(0.000702757 0.000456026 -64.9201)
(0.000674957 0.000448327 -50.3708)
(0.000651194 0.000440947 -38.0816)
(0.000623565 0.000434207 -28.2614)
(0.000564375 0.000398445 -21.1329)
(0.000593304 0.00039475 -16.6348)
(-0.000865098 -0.000666743 -418.861)
(-0.00051329 -0.000977714 -411.152)
(-0.000501962 -0.00093353 -401.37)
(-0.000455759 -0.000821026 -389.255)
(-0.000412708 -0.000721992 -374.999)
(-0.000373359 -0.000630458 -358.805)
(-0.000336403 -0.000545478 -340.881)
(-0.000298986 -0.000463026 -321.443)
(-0.000255624 -0.000373898 -300.71)
(-0.000198283 -0.000263662 -278.911)
(-0.000118084 -0.000113288 -256.285)
(-8.35843e-06 9.27423e-05 -233.089)
(0.000132417 0.000357848 -209.606)
(0.000283632 0.000672278 -186.146)
(0.000431119 0.000990692 -163.046)
(0.000548362 0.00126123 -140.659)
(0.000619107 0.00144184 -119.327)
(0.000642718 0.00152144 -99.3643)
(0.000632309 0.00152248 -81.0358)
(0.000606528 0.00148305 -64.5623)
(0.000578611 0.00143603 -50.1356)
(0.000553303 0.00138314 -37.9438)
(0.000513026 0.0012905 -28.1942)
(0.000446344 0.0010491 -21.1093)
(0.000388265 0.000829771 -16.6306)
(-0.000973377 -0.000561978 -421.38)
(-0.000934985 -0.000539813 -413.642)
(-0.000900778 -0.000520063 -403.827)
(-0.000801433 -0.000462706 -391.662)
(-0.000712609 -0.000411424 -377.339)
(-0.000630755 -0.000364166 -361.064)
(-0.000554375 -0.000320067 -343.045)
(-0.000479326 -0.000276738 -323.499)
(-0.000396249 -0.000228774 -302.646)
(-0.000291026 -0.000168023 -280.715)
(-0.000146311 -8.44726e-05 -257.948)
(5.18604e-05 2.99415e-05 -234.601)
(0.000306639 0.000177037 -210.958)
(0.000598768 0.000345698 -187.332)
(0.000891154 0.000514507 -164.063)
(0.00113465 0.000655091 -141.508)
(0.00129269 0.000746334 -120.016)
(0.00135791 0.000783985 -99.904)
(0.00135273 0.000780998 -81.4408)
(0.00131256 0.000757803 -64.8501)
(0.00126619 0.000731033 -50.3252)
(0.00121774 0.000703062 -38.0555)
(0.00113515 0.000655375 -28.2494)
(0.000942321 0.000544048 -21.1296)
(0.000768476 0.000443679 -16.6346)
(0.000953511 0.000550509 -421.38)
(0.000934206 0.000539363 -413.642)
(0.000897978 0.000518447 -403.827)
(0.000798777 0.000461173 -391.662)
(0.000709501 0.00040963 -377.339)
(0.000627401 0.000362229 -361.064)
(0.000551145 0.000318203 -343.045)
(0.000476009 0.000274823 -323.499)
(0.000393125 0.00022697 -302.646)
(0.000288433 0.000166526 -280.715)
(0.000144169 8.32356e-05 -257.948)
(-5.35023e-05 -3.08895e-05 -234.601)
(-0.000307246 -0.000177388 -210.958)
(-0.000597907 -0.000345201 -187.332)
(-0.000888105 -0.000512746 -164.063)
(-0.00112877 -0.000651696 -141.508)
(-0.0012837 -0.000741144 -120.016)
(-0.0013458 -0.000776994 -99.904)
(-0.00133698 -0.000771906 -81.4408)
(-0.00129317 -0.000746611 -64.8501)
(-0.00124314 -0.000717726 -50.3252)
(-0.00119115 -0.000687711 -38.0555)
(-0.00110429 -0.000637562 -28.2494)
(-0.000912916 -0.000527071 -21.1296)
(-0.000741501 -0.000428105 -16.6346)
(0.000995875 0.00042316 -418.862)
(0.00110337 -4.58037e-05 -411.153)
(0.00105807 -3.36474e-05 -401.37)
(0.000937777 -1.80518e-05 -389.255)
(0.000830514 -6.82519e-06 -374.999)
(0.000731543 4.47764e-06 -358.805)
(0.000639644 1.44133e-05 -340.881)
(0.000549575 2.28022e-05 -321.443)
(0.000450955 2.91858e-05 -300.71)
(0.000327147 3.42747e-05 -278.911)
(0.000157286 3.90924e-05 -256.285)
(-7.56023e-05 4.6216e-05 -233.089)
(-0.000374684 5.56104e-05 -209.606)
(-0.000721514 8.06884e-05 -186.146)
(-0.00106953 0.000110999 -163.046)
(-0.00136069 0.000143801 -140.659)
(-0.00155049 0.00017179 -119.327)
(-0.00162921 0.000190325 -99.3643)
(-0.00162266 0.000199691 -81.0358)
(-0.00157345 0.000203103 -64.5623)
(-0.00151643 0.000205077 -50.1356)
(-0.00145587 0.000203209 -37.9438)
(-0.00135327 0.00019642 -28.1942)
(-0.00111196 0.000136496 -21.1093)
(-0.000894104 7.79359e-05 -16.6305)
(0.00187461 0.00109749 -421.979)
(0.000696552 0.000400446 -414.231)
(0.000795554 0.000456961 -404.412)
(0.000723997 0.000413699 -392.236)
(0.00066307 0.000377047 -377.9)
(0.000606091 0.00034422 -361.606)
(0.000552707 0.000313523 -343.566)
(0.000500069 0.000283776 -323.995)
(0.000442426 0.00025088 -303.114)
(0.000370386 0.000209987 -281.153)
(0.000272854 0.000153878 -258.352)
(0.000138389 7.69459e-05 -234.969)
(-3.48406e-05 -2.36831e-05 -211.288)
(-0.000227112 -0.000135328 -187.622)
(-0.000420167 -0.000248353 -164.312)
(-0.00058071 -0.000343536 -141.717)
(-0.000684685 -0.000407644 -120.185)
(-0.000726349 -0.000437612 -100.036)
(-0.000718095 -0.000441569 -81.5399)
(-0.000681885 -0.000433062 -64.9201)
(-0.000636808 -0.000423932 -50.3708)
(-0.000590741 -0.000417545 -38.0816)
(-0.000536986 -0.000406395 -28.2614)
(-0.000461695 -0.000373042 -21.1329)
(-0.000478913 -0.000391979 -16.6348)
(0.00194035 0.00112026 -419.291)
(0.000948933 0.000547866 -411.584)
(0.00103332 0.000596585 -401.794)
(0.000928989 0.000536351 -389.669)
(0.000839998 0.000484972 -375.401)
(0.000757658 0.000437434 -359.192)
(0.000680971 0.000393158 -341.252)
(0.000606317 0.000350057 -321.794)
(0.000525409 0.000303345 -301.04)
(0.000425383 0.000245595 -279.218)
(0.000289789 0.000167309 -256.567)
(0.000103208 5.95874e-05 -233.346)
(-0.000137977 -7.9661e-05 -209.835)
(-0.000414271 -0.000239179 -186.347)
(-0.00069412 -0.00040075 -163.219)
(-0.00093077 -0.00053738 -140.803)
(-0.00108833 -0.000628346 -119.444)
(-0.0011574 -0.000668223 -99.4566)
(-0.00115661 -0.000667769 -81.1057)
(-0.00111879 -0.000645935 -64.6129)
(-0.00107268 -0.000619312 -50.1702)
(-0.00102544 -0.00059204 -37.9658)
(-0.000959487 -0.000553959 -28.2071)
(-0.000816502 -0.000471407 -21.1161)
(-0.000770867 -0.00044506 -16.6328)
(0.00097229 0.00056135 -421.38)
(0.000933529 0.000538972 -413.642)
(0.000899306 0.000519213 -403.827)
(0.000799842 0.000461788 -391.662)
(0.000710427 0.000410164 -377.339)
(0.000628053 0.000362606 -361.064)
(0.000551267 0.000318273 -343.045)
(0.000475571 0.00027457 -323.499)
(0.000391846 0.000226231 -302.646)
(0.000286074 0.000165164 -280.715)
(0.000140357 8.10348e-05 -257.948)
(-5.8646e-05 -3.38592e-05 -234.601)
(-0.000314853 -0.00018178 -210.958)
(-0.000608413 -0.000351266 -187.332)
(-0.00090237 -0.000520982 -164.063)
(-0.00114784 -0.000662706 -141.508)
(-0.00130907 -0.000755788 -120.016)
(-0.00137933 -0.000796354 -99.904)
(-0.00138191 -0.000797845 -81.4408)
(-0.00135325 -0.000781295 -64.8501)
(-0.00132483 -0.000764892 -50.3252)
(-0.00129815 -0.000749485 -38.0555)
(-0.00124186 -0.000716987 -28.2494)
(-0.00106663 -0.000615815 -21.1296)
(-0.00089227 -0.000515151 -16.6346)
(0.000864894 0.000666339 -418.861)
(0.000512913 0.000977258 -411.152)
(0.000502297 0.000932174 -401.37)
(0.000456708 0.000818857 -389.255)
(0.000413591 0.000719332 -374.999)
(0.000373693 0.000627923 -358.805)
(0.000335937 0.000543256 -340.881)
(0.000297471 0.000461301 -321.443)
(0.000252963 0.000372667 -300.71)
(0.000194464 0.000263021 -278.911)
(0.000112833 0.000113207 -256.285)
(1.41818e-06 -9.19987e-05 -233.089)
(-0.000140834 -0.000356812 -209.606)
(-0.000293534 -0.000670931 -186.146)
(-0.000442147 -0.000989537 -163.046)
(-0.000560062 -0.00126101 -140.659)
(-0.00063127 -0.00144377 -119.327)
(-0.000654997 -0.00152737 -99.3643)
(-0.000644203 -0.00153544 -81.0358)
(-0.00061732 -0.00150732 -64.5623)
(-0.000589075 -0.00147696 -50.1356)
(-0.000563314 -0.00144546 -37.9438)
(-0.0005246 -0.00137698 -28.1942)
(-0.000461317 -0.00115131 -21.1093)
(-0.000396299 -0.000938429 -16.6306)
(-0.000996459 -0.000424578 -418.862)
(-0.00110414 4.37219e-05 -411.153)
(-0.001059 2.85491e-05 -401.37)
(-0.000938746 1.08879e-05 -389.255)
(-0.000831734 -2.43595e-06 -374.999)
(-0.000732874 -1.37403e-05 -358.805)
(-0.000641214 -2.34694e-05 -340.881)
(-0.000551333 -3.10322e-05 -321.443)
(-0.000453024 -3.66507e-05 -300.71)
(-0.000329422 -4.01371e-05 -278.911)
(-0.000159974 -4.38268e-05 -256.285)
(7.26279e-05 -4.94605e-05 -233.089)
(0.000371137 -5.74061e-05 -209.606)
(0.000717525 -8.03982e-05 -186.146)
(0.00106505 -0.000108291 -163.046)
(0.00135583 -0.000137917 -140.659)
(0.00154518 -0.000162432 -119.327)
(0.0016237 -0.000176732 -99.3643)
(0.00161746 -0.000180231 -81.0358)
(0.0015698 -0.000176258 -64.5623)
(0.00151607 -0.000168026 -50.1356)
(0.0014617 -0.000154795 -37.9438)
(0.00136796 -0.000130321 -28.1942)
(0.00113575 -6.30802e-05 -21.1093)
(0.000926233 -1.86397e-05 -16.6305)
(-0.000955068 -0.000551408 -421.38)
(-0.000936306 -0.000540576 -413.642)
(-0.000900884 -0.000520124 -403.827)
(-0.000802239 -0.000463172 -391.662)
(-0.000713943 -0.000412194 -377.339)
(-0.000632183 -0.00036499 -361.064)
(-0.000556166 -0.000321102 -343.045)
(-0.000481266 -0.000277859 -323.499)
(-0.000398676 -0.000230175 -302.646)
(-0.000293934 -0.000169703 -280.715)
(-0.000150172 -8.67017e-05 -257.948)
(4.7366e-05 2.73467e-05 -234.601)
(0.000300318 0.000173388 -210.958)
(0.000590447 0.000340894 -187.332)
(0.000880091 0.00050812 -164.063)
(0.00112026 0.00064678 -141.508)
(0.0012741 0.000735601 -120.016)
(0.00133457 0.000770512 -99.904)
(0.00132382 0.000764307 -81.4408)
(0.00127794 0.00073782 -64.8501)
(0.0012254 0.000707484 -50.3252)
(0.00117272 0.000677067 -38.0555)
(0.00108745 0.00062784 -28.2494)
(0.000900013 0.000519621 -21.1296)
(0.000732298 0.000422791 -16.6346)
)
;

boundaryField
{
    outletCentralUnloaded
    {
        type            zeroGradient;
    }
    inletCentralUnloaded
    {
        type            fixedValue;
        value           uniform (0 0 -15);
    }
    outletFuelElement
    {
        type            zeroGradient;
    }
    inletFuelElement
    {
        type            fixedValue;
        value           uniform (0 0 -15);
    }
    defaultFaces
    {
        type            slip;
    }
    baffle_master
    {
        type            slip;
    }
    baffle_slave
    {
        type            slip;
    }
}


// ************************************************************************* //
