/*--------------------------------*- C++ -*----------------------------------*\
|       ______          _   __           ______                               |
|      / ____/  ___    / | / /          / ____/  ____   ____ _   ____ ___     |
|     / / __   / _ \  /  |/ /  ______  / /_     / __ \ / __ `/  / __ `__ \    |
|    / /_/ /  /  __/ / /|  /  /_____/ / __/    / /_/ // /_/ /  / / / / / /    |
|    \____/   \___/ /_/ |_/          /_/       \____/ \__,_/  /_/ /_/ /_/     |
|    Copyright (C) 2015 - 2022 EPFL                                           |
\*---------------------------------------------------------------------------*/
FoamFile
{
    version     2.0;
    format      ascii;
    class       volScalarField;
    object      alphat;
}
// * * * * * * * * * * * * * * * * * * * * * * * * * * * * * * * * * * * * * //

dimensions      [1 -1 -1 0 0 0 0];

internalField   nonuniform List<scalar> 
640
(
13.3296
13.3202
13.3108
13.3015
13.2921
13.2828
13.2735
13.2642
13.2549
13.2456
13.2364
13.2271
13.2179
13.2086
13.1994
13.1902
13.1811
13.1719
13.1627
13.1536
13.1445
13.1353
13.1262
13.1171
13.1081
13.099
13.0899
13.0809
13.0719
13.0629
13.0539
13.0449
13.0359
13.0269
13.018
13.009
13.0001
12.9912
12.9823
12.9734
12.9645
12.9557
12.9468
12.938
12.9291
12.9203
12.9115
12.9027
12.8939
12.8852
12.8764
12.8677
12.859
12.8502
12.8415
12.8328
12.8242
12.8155
12.8068
12.7982
12.7895
12.7809
12.7723
12.7637
12.7551
12.7466
12.738
12.7294
12.7209
12.7124
12.7039
12.6954
12.6869
12.6784
12.6699
12.6614
12.653
12.6446
12.6361
12.6277
12.6193
12.6109
12.6026
12.5942
12.5858
12.5775
12.5691
12.5608
12.5525
12.5442
12.5359
12.5276
12.5194
12.5111
12.5029
12.4946
12.4864
12.4782
12.47
12.4618
12.4536
12.4454
12.4373
12.4291
12.421
12.4129
12.4047
12.3966
12.3885
12.3805
12.3724
12.3643
12.3563
12.3482
12.3402
12.3322
12.3241
12.3161
12.3081
12.3002
12.2922
12.2842
12.2763
12.2683
12.2604
12.2525
12.2446
12.2367
12.2288
12.2209
12.213
12.2052
12.1973
12.1895
12.1816
12.1738
12.166
12.1582
12.1504
12.1426
12.1348
12.1271
12.1193
12.1116
12.1038
12.0961
12.0884
12.0807
12.073
12.0653
12.0576
12.05
12.0423
12.0347
12.027
12.0194
12.0118
12.0042
11.9965
11.989
11.9814
11.9738
11.9662
11.9587
11.9511
11.9436
11.9361
11.9285
11.921
11.9135
11.906
11.8986
11.8911
11.8836
11.8762
11.8687
11.8613
11.8539
11.8464
11.839
11.8316
11.8242
11.8169
11.8095
11.8021
11.7948
11.7874
11.7801
11.7727
11.7654
11.7581
11.7508
11.7435
11.7362
11.729
11.7217
11.7144
11.7072
11.6999
11.6927
11.6855
11.6783
11.6711
11.6639
11.6567
11.6495
11.6423
11.6351
11.628
11.6208
11.6137
11.6066
11.5994
11.5923
11.5852
11.5781
11.571
11.564
11.5569
11.5498
11.5428
11.5357
11.5287
11.5217
11.5146
11.5076
11.5006
11.4936
11.4866
11.4797
11.4727
11.4657
11.4588
11.4518
11.4449
11.4379
11.431
11.4241
11.4172
11.4103
11.4034
11.3965
11.3897
11.3828
11.3759
11.3691
11.3622
11.3554
11.3486
11.3418
11.3349
11.3281
11.3213
11.3146
11.3078
11.301
11.2942
11.2875
11.2807
11.274
11.2673
11.2605
11.2538
11.2471
11.2404
11.2337
11.227
11.2204
11.2137
11.207
11.2004
11.1937
11.1871
11.1805
11.1738
11.1672
11.1606
11.154
11.1474
11.1408
11.1342
11.1277
11.1211
11.1145
11.108
11.1015
11.0949
11.0884
11.0819
11.0754
11.0689
11.0624
11.0559
11.0494
11.0429
11.0364
11.03
11.0235
11.0171
11.0106
11.0042
10.9978
10.9914
10.9849
10.9785
10.9721
10.9658
10.9594
10.953
10.9466
10.9403
10.9339
10.9276
10.9212
10.9149
10.9086
10.9023
10.8959
10.8896
10.8833
10.877
10.8708
10.8645
10.8582
10.852
10.8457
10.8394
10.8332
10.827
10.8207
10.8145
10.8083
10.8021
10.7959
10.7897
10.7835
10.7773
10.7712
10.765
10.7588
10.7527
10.7465
10.7404
10.7342
10.7281
10.722
10.7159
10.7098
10.7037
10.6976
10.6915
10.6854
10.6793
10.6733
10.6672
10.6611
10.6551
10.649
10.643
10.637
10.631
10.6249
10.6189
10.6129
10.6069
10.6009
10.5949
10.589
10.583
10.577
10.5711
10.5651
10.5592
10.5532
10.5473
10.5414
10.5354
10.5295
10.5236
10.5177
10.5118
10.5059
10.5
10.4941
10.4883
10.4824
10.4765
10.4707
10.4648
10.459
10.4531
10.4473
10.4415
10.4357
10.4299
10.4241
10.4182
10.4125
10.4067
10.4009
10.3951
10.3893
10.3836
10.3778
10.3721
10.3663
10.3606
10.3548
10.3491
10.3434
10.3376
10.3319
10.3262
10.3205
10.3148
10.3091
10.3035
10.2978
10.2921
10.2864
10.2808
10.2751
10.2695
10.2638
10.2582
10.2526
10.2469
10.2413
10.2357
10.2301
10.2245
10.2189
10.2133
10.2077
10.2021
10.1965
10.191
10.1854
10.1798
10.1743
10.1687
10.1632
10.1576
10.1521
10.1466
10.141
10.1355
10.13
10.1245
10.119
10.1135
10.108
10.1025
10.0971
10.0916
10.0861
10.0806
10.0752
10.0697
10.0643
10.0588
10.0534
10.048
10.0425
10.0371
10.0315
10.0256
10.0186
10.0076
9.98347
9.91416
9.68566
8.82386
8.85305
8.93735
9.01945
9.09943
9.17736
9.25333
9.3274
9.39965
9.47013
9.5389
9.60602
9.67155
9.73554
9.79803
9.85907
9.91871
9.97699
10.034
10.0896
10.1441
10.1973
10.2494
10.3003
10.3501
10.3988
10.4465
10.4932
10.5388
10.5836
10.6273
10.6702
10.7121
10.7532
10.7934
10.8329
10.8715
10.9093
10.9463
10.9826
11.0182
11.053
11.0872
11.1207
11.1535
11.1857
11.2172
11.2481
11.2784
11.3081
11.3373
11.3658
11.3938
11.4213
11.4483
11.4747
11.5006
11.5261
11.551
11.5755
11.5995
11.623
11.6461
11.6688
11.6911
11.7129
11.7343
11.7553
11.776
11.7962
11.8161
11.8356
11.8547
11.8735
11.892
11.9101
11.9279
11.9453
11.9625
11.9798
11.9988
12.03
12.1353
12.6603
14.1681
14.1575
14.1469
14.1363
14.1258
14.1152
14.1047
14.0942
14.0837
14.0732
14.0628
14.0523
14.0419
14.0315
14.0211
14.0107
14.0003
13.99
13.9797
13.9693
13.959
13.9487
13.9385
13.9282
13.9179
13.9077
13.8975
13.8873
13.8771
13.8669
13.8568
13.8466
13.8365
13.8264
13.8163
13.8062
13.7961
13.7861
13.776
13.766
13.756
13.746
13.736
13.7261
13.7161
13.7062
13.6963
13.6863
13.6764
13.6666
13.6567
13.6468
13.637
13.6272
13.6174
13.6076
13.5978
13.588
13.5783
13.5685
13.5588
13.5491
13.5394
13.5297
13.5201
13.5104
13.5008
13.4911
13.4815
13.4719
13.4623
13.4528
13.4432
13.4337
13.4241
13.4146
13.4051
13.3956
13.3861
13.3767
13.3672
13.3578
13.3484
13.339
)
;

boundaryField
{
    top
    {
        type            cyclic;
    }
    bottom
    {
        type            cyclic;
    }
    walls
    {
        type            zeroGradient;
    }
    defaultFaces
    {
        type            empty;
    }
}

// ************************************************************************* //
