/*--------------------------------*- C++ -*----------------------------------*\
|       ______          _   __           ______                               |
|      / ____/  ___    / | / /          / ____/  ____   ____ _   ____ ___     |
|     / / __   / _ \  /  |/ /  ______  / /_     / __ \ / __ `/  / __ `__ \    |
|    / /_/ /  /  __/ / /|  /  /_____/ / __/    / /_/ // /_/ /  / / / / / /    |
|    \____/   \___/ /_/ |_/          /_/       \____/ \__,_/  /_/ /_/ /_/     |
|    Copyright (C) 2015 - 2022 EPFL                                           |
\*---------------------------------------------------------------------------*/
FoamFile
{
    version     2.0;
    format      ascii;
    class       volScalarField;
    object      dgdt;
}
// * * * * * * * * * * * * * * * * * * * * * * * * * * * * * * * * * * * * * //

dimensions      [0 0 -1 0 0 0 0];

internalField   nonuniform List<scalar> 
640
(
2.90798e-15
-1.17124e-14
1.41453e-14
-5.24893e-15
-4.74319e-15
-4.50565e-15
8.27952e-15
-6.03052e-15
1.86203e-15
4.48266e-16
5.77766e-15
-2.567e-16
6.55159e-16
-3.54782e-15
3.92329e-15
-2.3103e-15
-8.02282e-15
1.29806e-14
-4.01524e-15
4.84664e-15
-1.39844e-14
6.26424e-15
-5.429e-15
8.93085e-15
-7.54007e-15
6.15313e-15
-9.65114e-15
2.93097e-15
2.93097e-15
1.37545e-15
-4.0229e-16
-2.18003e-15
-1.95781e-15
1.18465e-14
-4.51331e-15
-5.73551e-15
8.84656e-15
-6.95771e-15
6.06884e-15
-9.84654e-15
3.84666e-15
3.62444e-15
1.62449e-15
4.0229e-16
-1.53253e-16
-1.70878e-15
-2.0421e-15
-2.37543e-15
-4.70871e-15
1.03178e-14
-6.15313e-15
7.54007e-15
-9.48639e-15
7.20674e-15
-1.04864e-14
4.31792e-15
3.20683e-15
1.76241e-15
7.62436e-16
5.40218e-16
-1.0153e-15
-3.01526e-15
-3.57081e-15
-3.01526e-15
1.01224e-14
-7.2374e-15
8.9002e-15
-7.90405e-15
6.78913e-15
-9.90401e-15
5.34471e-15
3.9003e-15
3.67808e-15
1.67813e-15
-1.52372e-14
1.4038e-14
-1.2107e-15
-1.98846e-15
-2.98844e-15
-4.54397e-15
1.13714e-14
-6.32171e-15
-7.5439e-15
8.37147e-15
-8.7661e-15
5.48264e-15
5.37153e-15
3.59379e-15
-1.2766e-14
1.37162e-15
2.14938e-15
-6.28339e-16
-1.18388e-15
-1.96164e-15
1.30649e-14
-4.85047e-15
-4.07271e-15
-5.85045e-15
8.73162e-15
-8.18374e-15
6.50944e-15
5.62057e-15
-1.07392e-14
4.39837e-15
3.84283e-15
1.39844e-15
1.84287e-15
1.28733e-15
6.51327e-17
-2.15704e-15
-1.26817e-15
-3.26813e-15
-3.37924e-15
-5.15698e-15
1.00917e-14
-6.26807e-15
7.75846e-15
-8.37913e-15
6.09183e-15
5.20296e-15
-1.09346e-14
3.31411e-15
4.09187e-15
2.20302e-15
1.20304e-15
3.1417e-16
-5.747e-16
-1.13024e-15
-2.13022e-15
-3.24131e-15
-3.57464e-15
1.01186e-14
-6.01903e-15
-6.24125e-15
9.22969e-15
-8.68564e-15
6.89641e-15
5.5631e-15
-9.24118e-15
5.34088e-15
3.67425e-15
-1.29078e-14
4.52098e-16
7.85424e-16
-6.5899e-16
-1.65897e-15
1.39231e-14
-2.54784e-15
-2.32562e-15
-4.32558e-15
-4.88112e-15
1.01454e-14
-6.65886e-15
7.9232e-15
-8.65882e-15
6.36768e-15
5.92325e-15
-1.02143e-14
3.81218e-15
4.36772e-15
-1.29921e-14
2.70109e-15
1.36779e-15
5.90026e-16
-1.40993e-15
-1.63215e-15
-2.07658e-15
1.29499e-14
-4.29876e-15
-4.63209e-15
1.00611e-14
-6.18761e-15
-6.63204e-15
8.72779e-15
-8.52089e-15
5.95007e-15
5.83896e-15
-1.09653e-14
3.50567e-15
2.72791e-15
1.95015e-15
2.50569e-15
8.39063e-16
-4.94242e-16
-3.83134e-16
-6.05351e-16
-1.93866e-15
-2.38309e-15
-3.38307e-15
-4.27194e-15
1.13101e-14
-5.0497e-15
8.08795e-15
-7.71631e-15
7.53241e-15
-8.71629e-15
6.97686e-15
-1.01607e-14
4.42136e-15
2.97695e-15
1.42143e-15
2.53251e-15
1.53253e-15
-3.56314e-16
4.21447e-16
-9.11858e-16
-1.35629e-15
-1.57851e-15
-3.68958e-15
-3.91179e-15
-3.91179e-15
1.10036e-14
-5.57843e-15
9.22586e-15
-7.35617e-15
8.00366e-15
-8.68947e-15
5.8926e-15
-1.14672e-14
5.67038e-15
3.78153e-15
3.4482e-15
-1.35783e-14
3.00377e-15
3.11488e-15
4.48266e-16
2.26049e-16
-1.21837e-15
-1.32947e-15
-2.32945e-15
1.24748e-14
-3.88498e-15
-4.10719e-15
-4.44052e-15
8.91935e-15
-6.21826e-15
8.14159e-15
-7.55156e-15
6.58607e-15
-9.99596e-15
6.03052e-15
5.03055e-15
-1.13293e-14
3.58613e-15
2.47504e-15
2.47504e-15
2.36393e-15
6.97303e-16
5.86195e-16
-9.69328e-16
-1.19155e-15
-2.85818e-15
-1.19155e-15
-2.74707e-15
-2.96929e-15
1.1835e-14
-4.30259e-15
-5.30257e-15
8.83506e-15
-7.41364e-15
7.94619e-15
-8.08029e-15
6.39067e-15
-9.41359e-15
6.39067e-15
4.39071e-15
-1.14136e-14
2.83519e-15
2.9463e-15
2.16854e-15
2.27965e-15
1.39078e-15
6.13014e-16
-1.27584e-15
1.68579e-16
-2.16471e-15
-1.94249e-15
-4.27577e-15
-4.49799e-15
1.08618e-14
-5.16464e-15
-5.9424e-15
8.75077e-15
-6.27573e-15
7.75079e-15
-7.72014e-15
5.63973e-15
6.97303e-15
-1.01645e-14
4.75086e-15
4.52864e-15
-1.08312e-14
3.19533e-15
2.19536e-15
1.97314e-15
8.62051e-16
8.42894e-17
1.95398e-16
-2.68194e-17
-9.1569e-16
-2.24899e-15
-2.13789e-15
-1.69345e-15
-3.80452e-15
1.17775e-14
-4.69339e-15
-5.13782e-15
1.04442e-14
-6.80445e-15
-6.91556e-15
7.44429e-15
-7.13778e-15
7.66651e-15
6.11098e-15
-9.35995e-15
5.44433e-15
-1.02488e-14
4.88879e-15
3.11105e-15
3.22215e-15
2.44439e-15
1.88885e-15
-1.32488e-14
1.11109e-16
-4.44435e-16
-4.44435e-16
-7.77761e-16
1.3471e-14
-2.33328e-15
-2.77772e-15
-3.44437e-15
-4.22213e-15
1.05822e-14
-5.55544e-15
-5.22211e-15
1.02488e-14
-5.77766e-15
9.35996e-15
-8.77759e-15
7.58222e-15
-7.88872e-15
5.02671e-15
-9.33314e-15
4.69339e-15
4.36006e-15
4.02674e-15
-1.16664e-14
2.69343e-15
1.13791e-15
1.0268e-15
-7.50942e-16
6.93472e-16
-1.95398e-16
4.71254e-16
-1.97314e-15
-6.39833e-16
-2.7509e-15
-1.86203e-15
1.11645e-14
-3.86199e-15
-5.08418e-15
1.14978e-14
-5.97305e-15
-5.63973e-15
9.16456e-15
-7.08414e-15
8.05347e-15
-9.19521e-15
7.49793e-15
-9.63964e-15
5.27575e-15
4.49799e-15
-1.04174e-14
4.72021e-15
3.83134e-15
3.49801e-15
-1.3084e-14
2.60914e-15
1.49805e-15
1.16473e-15
6.09183e-16
2.75856e-16
3.86965e-16
-2.79688e-16
-1.61299e-15
-1.39078e-15
-2.50186e-15
1.25246e-14
-3.50184e-15
-2.61297e-15
-4.83515e-15
1.05247e-14
-3.83517e-15
-6.724e-15
1.01914e-14
-6.94621e-15
7.85807e-15
-8.0573e-15
7.19142e-15
-9.72393e-15
6.74698e-15
5.747e-15
-1.05017e-14
4.74703e-15
4.63592e-15
-1.10572e-14
2.52485e-15
3.08039e-15
2.41374e-15
2.52485e-15
1.41376e-15
-1.48349e-14
8.58219e-16
-5.86194e-16
8.04581e-17
1.48847e-14
-1.47506e-15
-2.25283e-15
-3.58613e-15
-2.36393e-15
-3.03059e-15
1.22181e-14
-3.80835e-15
-5.36387e-15
-5.47498e-15
9.44041e-15
-5.80831e-15
8.10711e-15
-7.0305e-15
7.21824e-15
-6.91939e-15
6.32937e-15
-9.91933e-15
7.44046e-15
5.4405e-15
-9.91933e-15
4.66274e-15
3.77387e-15
-1.24748e-14
3.55165e-15
3.10721e-15
2.44056e-15
2.55167e-15
1.55169e-15
-1.3697e-14
7.7393e-16
-3.37158e-16
-6.70484e-16
1.48005e-14
-1.78157e-15
-1.67046e-15
-1.33714e-15
-2.22601e-15
-2.33712e-15
-3.4482e-15
1.20227e-14
-4.11486e-15
-3.55931e-15
-4.00375e-15
1.01339e-14
-5.55927e-15
-6.55925e-15
1.00228e-14
-3.11488e-15
1.21837e-15
3.1915e-15
-3.55548e-15
1.45208e-15
-2.93097e-15
1.58617e-15
-4.2298e-15
8.64733e-15
1.19155e-15
-1.31951e-14
6.73549e-15
3.10338e-16
1.17622e-15
1.23369e-15
3.13786e-15
-1.3153e-14
1.16588e-14
-1.07277e-15
2.99994e-15
-1.60916e-16
7.27954e-17
-4.22213e-15
-2.00762e-15
-4.17616e-16
-5.86961e-15
1.18503e-14
-1.15936e-14
3.67808e-16
1.03829e-15
8.52472e-15
1.21836e-15
-2.9348e-15
-8.1799e-15
3.73555e-15
9.7316e-15
-9.9155e-15
-7.47111e-16
1.5287e-15
-2.86201e-15
8.21439e-15
-9.16456e-15
-2.95013e-16
8.78142e-15
-1.06128e-15
1.29882e-15
4.01907e-15
-9.68179e-15
8.66648e-15
2.45206e-16
1.40227e-15
-1.0835e-14
5.90026e-16
7.68949e-15
1.61682e-15
-6.8351e-15
7.042e-15
-5.67804e-15
-3.12637e-15
-5.51713e-15
7.59371e-15
2.59382e-15
-6.02669e-15
1.01339e-14
-4.60144e-15
3.83134e-15
-5.93857e-15
2.16087e-15
-4.5363e-15
-5.52479e-15
1.19346e-14
-1.07622e-14
3.53249e-15
-1.9808e-15
5.23744e-15
4.27194e-15
-1.08657e-14
1.07584e-14
-6.93089e-15
-4.73553e-15
1.0858e-14
8.96533e-16
-9.29865e-15
9.73543e-15
-5.43667e-15
-7.00368e-15
1.08887e-14
-5.03054e-15
-2.1034e-15
5.09185e-15
6.39833e-15
-1.52985e-14
6.7738e-15
-5.52862e-15
9.83887e-15
-7.6052e-15
1.62832e-15
-5.08802e-15
2.67044e-15
8.59752e-15
-1.03293e-14
-1.06511e-15
2.13022e-15
-1.90034e-15
-2.567e-16
1.02105e-14
1.4789e-15
3.69724e-15
-6.93855e-15
1.21837e-15
-3.1915e-15
7.41364e-15
-8.24887e-15
-3.56697e-15
-1.83138e-15
1.32526e-14
-1.11224e-14
4.28343e-15
4.33324e-15
-3.36391e-15
-5.19912e-15
7.40981e-15
-3.47885e-15
6.21443e-15
2.32562e-15
-1.49231e-14
1.42411e-14
-2.67427e-15
-3.34093e-15
-4.3409e-15
1.16856e-14
-6.7853e-15
-7.56306e-15
7.57455e-15
6.68568e-15
-1.07852e-14
3.01909e-15
2.13022e-15
1.7969e-15
3.52483e-16
-7.58605e-16
-2.86967e-15
-3.09189e-15
-3.98076e-15
9.49022e-15
-8.314e-15
7.9347e-15
-9.75841e-15
5.49031e-15
3.60146e-15
2.82369e-15
1.93483e-15
4.5976e-17
-1.50955e-15
-3.17618e-15
-4.39837e-15
-5.28724e-15
8.73928e-15
-7.06499e-15
6.96154e-15
-8.73162e-15
4.85047e-15
3.85049e-15
3.07273e-15
2.73941e-15
-1.06205e-14
-2.8735e-16
-7.66267e-18
1.00534e-14
-4.50948e-15
-4.61293e-15
7.61287e-15
-6.29872e-15
3.33709e-15
3.69724e-15
2.0421e-15
-4.85047e-15
)
;

boundaryField
{
    top
    {
        type            cyclic;
    }
    bottom
    {
        type            cyclic;
    }
    walls
    {
        type            calculated;
        value           nonuniform List<scalar> 
1280
(
2.90798e-15
-1.17124e-14
1.41453e-14
-5.24893e-15
-4.74319e-15
-4.50565e-15
8.27952e-15
-6.03052e-15
1.86203e-15
4.48266e-16
5.77766e-15
-2.567e-16
6.55159e-16
-3.54782e-15
3.92329e-15
-2.3103e-15
-8.02282e-15
1.29806e-14
-4.01524e-15
4.84664e-15
-1.39844e-14
6.26424e-15
-5.429e-15
8.93085e-15
-7.54007e-15
6.15313e-15
-9.65114e-15
2.93097e-15
2.93097e-15
1.37545e-15
-4.0229e-16
-2.18003e-15
-1.95781e-15
1.18465e-14
-4.51331e-15
-5.73551e-15
8.84656e-15
-6.95771e-15
6.06884e-15
-9.84654e-15
3.84666e-15
3.62444e-15
1.62449e-15
4.0229e-16
-1.53253e-16
-1.70878e-15
-2.0421e-15
-2.37543e-15
-4.70871e-15
1.03178e-14
-6.15313e-15
7.54007e-15
-9.48639e-15
7.20674e-15
-1.04864e-14
4.31792e-15
3.20683e-15
1.76241e-15
7.62436e-16
5.40218e-16
-1.0153e-15
-3.01526e-15
-3.57081e-15
-3.01526e-15
1.01224e-14
-7.2374e-15
8.9002e-15
-7.90405e-15
6.78913e-15
-9.90401e-15
5.34471e-15
3.9003e-15
3.67808e-15
1.67813e-15
-1.52372e-14
1.4038e-14
-1.2107e-15
-1.98846e-15
-2.98844e-15
-4.54397e-15
1.13714e-14
-6.32171e-15
-7.5439e-15
8.37147e-15
-8.7661e-15
5.48264e-15
5.37153e-15
3.59379e-15
-1.2766e-14
1.37162e-15
2.14938e-15
-6.28339e-16
-1.18388e-15
-1.96164e-15
1.30649e-14
-4.85047e-15
-4.07271e-15
-5.85045e-15
8.73162e-15
-8.18374e-15
6.50944e-15
5.62057e-15
-1.07392e-14
4.39837e-15
3.84283e-15
1.39844e-15
1.84287e-15
1.28733e-15
6.51327e-17
-2.15704e-15
-1.26817e-15
-3.26813e-15
-3.37924e-15
-5.15698e-15
1.00917e-14
-6.26807e-15
7.75846e-15
-8.37913e-15
6.09183e-15
5.20296e-15
-1.09346e-14
3.31411e-15
4.09187e-15
2.20302e-15
1.20304e-15
3.1417e-16
-5.747e-16
-1.13024e-15
-2.13022e-15
-3.24131e-15
-3.57464e-15
1.01186e-14
-6.01903e-15
-6.24125e-15
9.22969e-15
-8.68564e-15
6.89641e-15
5.5631e-15
-9.24118e-15
5.34088e-15
3.67425e-15
-1.29078e-14
4.52098e-16
7.85424e-16
-6.5899e-16
-1.65897e-15
1.39231e-14
-2.54784e-15
-2.32562e-15
-4.32558e-15
-4.88112e-15
1.01454e-14
-6.65886e-15
7.9232e-15
-8.65882e-15
6.36768e-15
5.92325e-15
-1.02143e-14
3.81218e-15
4.36772e-15
-1.29921e-14
2.70109e-15
1.36779e-15
5.90026e-16
-1.40993e-15
-1.63215e-15
-2.07658e-15
1.29499e-14
-4.29876e-15
-4.63209e-15
1.00611e-14
-6.18761e-15
-6.63204e-15
8.72779e-15
-8.52089e-15
5.95007e-15
5.83896e-15
-1.09653e-14
3.50567e-15
2.72791e-15
1.95015e-15
2.50569e-15
8.39063e-16
-4.94242e-16
-3.83134e-16
-6.05351e-16
-1.93866e-15
-2.38309e-15
-3.38307e-15
-4.27194e-15
1.13101e-14
-5.0497e-15
8.08795e-15
-7.71631e-15
7.53241e-15
-8.71629e-15
6.97686e-15
-1.01607e-14
4.42136e-15
2.97695e-15
1.42143e-15
2.53251e-15
1.53253e-15
-3.56314e-16
4.21447e-16
-9.11858e-16
-1.35629e-15
-1.57851e-15
-3.68958e-15
-3.91179e-15
-3.91179e-15
1.10036e-14
-5.57843e-15
9.22586e-15
-7.35617e-15
8.00366e-15
-8.68947e-15
5.8926e-15
-1.14672e-14
5.67038e-15
3.78153e-15
3.4482e-15
-1.35783e-14
3.00377e-15
3.11488e-15
4.48266e-16
2.26049e-16
-1.21837e-15
-1.32947e-15
-2.32945e-15
1.24748e-14
-3.88498e-15
-4.10719e-15
-4.44052e-15
8.91935e-15
-6.21826e-15
8.14159e-15
-7.55156e-15
6.58607e-15
-9.99596e-15
6.03052e-15
5.03055e-15
-1.13293e-14
3.58613e-15
2.47504e-15
2.47504e-15
2.36393e-15
6.97303e-16
5.86195e-16
-9.69328e-16
-1.19155e-15
-2.85818e-15
-1.19155e-15
-2.74707e-15
-2.96929e-15
1.1835e-14
-4.30259e-15
-5.30257e-15
8.83506e-15
-7.41364e-15
7.94619e-15
-8.08029e-15
6.39067e-15
-9.41359e-15
6.39067e-15
4.39071e-15
-1.14136e-14
2.83519e-15
2.9463e-15
2.16854e-15
2.27965e-15
1.39078e-15
6.13014e-16
-1.27584e-15
1.68579e-16
-2.16471e-15
-1.94249e-15
-4.27577e-15
-4.49799e-15
1.08618e-14
-5.16464e-15
-5.9424e-15
8.75077e-15
-6.27573e-15
7.75079e-15
-7.72014e-15
5.63973e-15
6.97303e-15
-1.01645e-14
4.75086e-15
4.52864e-15
-1.08312e-14
3.19533e-15
2.19536e-15
1.97314e-15
8.62051e-16
8.42894e-17
1.95398e-16
-2.68194e-17
-9.1569e-16
-2.24899e-15
-2.13789e-15
-1.69345e-15
-3.80452e-15
1.17775e-14
-4.69339e-15
-5.13782e-15
1.04442e-14
-6.80445e-15
-6.91556e-15
7.44429e-15
-7.13778e-15
7.66651e-15
6.11098e-15
-9.35995e-15
5.44433e-15
-1.02488e-14
4.88879e-15
3.11105e-15
3.22215e-15
2.44439e-15
1.88885e-15
-1.32488e-14
1.11109e-16
-4.44435e-16
-4.44435e-16
-7.77761e-16
1.3471e-14
-2.33328e-15
-2.77772e-15
-3.44437e-15
-4.22213e-15
1.05822e-14
-5.55544e-15
-5.22211e-15
1.02488e-14
-5.77766e-15
9.35996e-15
-8.77759e-15
7.58222e-15
-7.88872e-15
5.02671e-15
-9.33314e-15
4.69339e-15
4.36006e-15
4.02674e-15
-1.16664e-14
2.69343e-15
1.13791e-15
1.0268e-15
-7.50942e-16
6.93472e-16
-1.95398e-16
4.71254e-16
-1.97314e-15
-6.39833e-16
-2.7509e-15
-1.86203e-15
1.11645e-14
-3.86199e-15
-5.08418e-15
1.14978e-14
-5.97305e-15
-5.63973e-15
9.16456e-15
-7.08414e-15
8.05347e-15
-9.19521e-15
7.49793e-15
-9.63964e-15
5.27575e-15
4.49799e-15
-1.04174e-14
4.72021e-15
3.83134e-15
3.49801e-15
-1.3084e-14
2.60914e-15
1.49805e-15
1.16473e-15
6.09183e-16
2.75856e-16
3.86965e-16
-2.79688e-16
-1.61299e-15
-1.39078e-15
-2.50186e-15
1.25246e-14
-3.50184e-15
-2.61297e-15
-4.83515e-15
1.05247e-14
-3.83517e-15
-6.724e-15
1.01914e-14
-6.94621e-15
7.85807e-15
-8.0573e-15
7.19142e-15
-9.72393e-15
6.74698e-15
5.747e-15
-1.05017e-14
4.74703e-15
4.63592e-15
-1.10572e-14
2.52485e-15
3.08039e-15
2.41374e-15
2.52485e-15
1.41376e-15
-1.48349e-14
8.58219e-16
-5.86194e-16
8.04581e-17
1.48847e-14
-1.47506e-15
-2.25283e-15
-3.58613e-15
-2.36393e-15
-3.03059e-15
1.22181e-14
-3.80835e-15
-5.36387e-15
-5.47498e-15
9.44041e-15
-5.80831e-15
8.10711e-15
-7.0305e-15
7.21824e-15
-6.91939e-15
6.32937e-15
-9.91933e-15
7.44046e-15
5.4405e-15
-9.91933e-15
4.66274e-15
3.77387e-15
-1.24748e-14
3.55165e-15
3.10721e-15
2.44056e-15
2.55167e-15
1.55169e-15
-1.3697e-14
7.7393e-16
-3.37158e-16
-6.70484e-16
1.48005e-14
-1.78157e-15
-1.67046e-15
-1.33714e-15
-2.22601e-15
-2.33712e-15
-3.4482e-15
1.20227e-14
-4.11486e-15
-3.55931e-15
-4.00375e-15
1.01339e-14
-5.55927e-15
-6.55925e-15
1.00228e-14
-3.11488e-15
1.21837e-15
3.1915e-15
-3.55548e-15
1.45208e-15
-2.93097e-15
1.58617e-15
-4.2298e-15
8.64733e-15
1.19155e-15
-1.31951e-14
6.73549e-15
3.10338e-16
1.17622e-15
1.23369e-15
3.13786e-15
-1.3153e-14
1.16588e-14
-1.07277e-15
2.99994e-15
-1.60916e-16
7.27954e-17
-4.22213e-15
-2.00762e-15
-4.17616e-16
-5.86961e-15
1.18503e-14
-1.15936e-14
3.67808e-16
1.03829e-15
8.52472e-15
1.21836e-15
-2.9348e-15
-8.1799e-15
3.73555e-15
9.7316e-15
-9.9155e-15
-7.47111e-16
1.5287e-15
-2.86201e-15
8.21439e-15
-9.16456e-15
-2.95013e-16
8.78142e-15
-1.06128e-15
1.29882e-15
4.01907e-15
-9.68179e-15
8.66648e-15
2.45206e-16
1.40227e-15
-1.0835e-14
5.90026e-16
7.68949e-15
1.61682e-15
-6.8351e-15
7.042e-15
-5.67804e-15
-3.12637e-15
-5.51713e-15
7.59371e-15
2.59382e-15
-6.02669e-15
1.01339e-14
-4.60144e-15
3.83134e-15
-5.93857e-15
2.16087e-15
-4.5363e-15
-5.52479e-15
1.19346e-14
-1.07622e-14
3.53249e-15
-1.9808e-15
5.23744e-15
4.27194e-15
-1.08657e-14
1.07584e-14
-6.93089e-15
-4.73553e-15
1.0858e-14
8.96533e-16
-9.29865e-15
9.73543e-15
-5.43667e-15
-7.00368e-15
1.08887e-14
-5.03054e-15
-2.1034e-15
5.09185e-15
6.39833e-15
-1.52985e-14
6.7738e-15
-5.52862e-15
9.83887e-15
-7.6052e-15
1.62832e-15
-5.08802e-15
2.67044e-15
8.59752e-15
-1.03293e-14
-1.06511e-15
2.13022e-15
-1.90034e-15
-2.567e-16
1.02105e-14
1.4789e-15
3.69724e-15
-6.93855e-15
1.21837e-15
-3.1915e-15
7.41364e-15
-8.24887e-15
-3.56697e-15
-1.83138e-15
1.32526e-14
-1.11224e-14
4.28343e-15
4.33324e-15
-3.36391e-15
-5.19912e-15
7.40981e-15
-3.47885e-15
6.21443e-15
2.32562e-15
-1.49231e-14
1.42411e-14
-2.67427e-15
-3.34093e-15
-4.3409e-15
1.16856e-14
-6.7853e-15
-7.56306e-15
7.57455e-15
6.68568e-15
-1.07852e-14
3.01909e-15
2.13022e-15
1.7969e-15
3.52483e-16
-7.58605e-16
-2.86967e-15
-3.09189e-15
-3.98076e-15
9.49022e-15
-8.314e-15
7.9347e-15
-9.75841e-15
5.49031e-15
3.60146e-15
2.82369e-15
1.93483e-15
4.5976e-17
-1.50955e-15
-3.17618e-15
-4.39837e-15
-5.28724e-15
8.73928e-15
-7.06499e-15
6.96154e-15
-8.73162e-15
4.85047e-15
3.85049e-15
3.07273e-15
2.73941e-15
-1.06205e-14
-2.8735e-16
-7.66267e-18
1.00534e-14
-4.50948e-15
-4.61293e-15
7.61287e-15
-6.29872e-15
3.33709e-15
3.69724e-15
2.0421e-15
-4.85047e-15
2.90798e-15
-1.17124e-14
1.41453e-14
-5.24893e-15
-4.74319e-15
-4.50565e-15
8.27952e-15
-6.03052e-15
1.86203e-15
4.48266e-16
5.77766e-15
-2.567e-16
6.55159e-16
-3.54782e-15
3.92329e-15
-2.3103e-15
-8.02282e-15
1.29806e-14
-4.01524e-15
4.84664e-15
-1.39844e-14
6.26424e-15
-5.429e-15
8.93085e-15
-7.54007e-15
6.15313e-15
-9.65114e-15
2.93097e-15
2.93097e-15
1.37545e-15
-4.0229e-16
-2.18003e-15
-1.95781e-15
1.18465e-14
-4.51331e-15
-5.73551e-15
8.84656e-15
-6.95771e-15
6.06884e-15
-9.84654e-15
3.84666e-15
3.62444e-15
1.62449e-15
4.0229e-16
-1.53253e-16
-1.70878e-15
-2.0421e-15
-2.37543e-15
-4.70871e-15
1.03178e-14
-6.15313e-15
7.54007e-15
-9.48639e-15
7.20674e-15
-1.04864e-14
4.31792e-15
3.20683e-15
1.76241e-15
7.62436e-16
5.40218e-16
-1.0153e-15
-3.01526e-15
-3.57081e-15
-3.01526e-15
1.01224e-14
-7.2374e-15
8.9002e-15
-7.90405e-15
6.78913e-15
-9.90401e-15
5.34471e-15
3.9003e-15
3.67808e-15
1.67813e-15
-1.52372e-14
1.4038e-14
-1.2107e-15
-1.98846e-15
-2.98844e-15
-4.54397e-15
1.13714e-14
-6.32171e-15
-7.5439e-15
8.37147e-15
-8.7661e-15
5.48264e-15
5.37153e-15
3.59379e-15
-1.2766e-14
1.37162e-15
2.14938e-15
-6.28339e-16
-1.18388e-15
-1.96164e-15
1.30649e-14
-4.85047e-15
-4.07271e-15
-5.85045e-15
8.73162e-15
-8.18374e-15
6.50944e-15
5.62057e-15
-1.07392e-14
4.39837e-15
3.84283e-15
1.39844e-15
1.84287e-15
1.28733e-15
6.51327e-17
-2.15704e-15
-1.26817e-15
-3.26813e-15
-3.37924e-15
-5.15698e-15
1.00917e-14
-6.26807e-15
7.75846e-15
-8.37913e-15
6.09183e-15
5.20296e-15
-1.09346e-14
3.31411e-15
4.09187e-15
2.20302e-15
1.20304e-15
3.1417e-16
-5.747e-16
-1.13024e-15
-2.13022e-15
-3.24131e-15
-3.57464e-15
1.01186e-14
-6.01903e-15
-6.24125e-15
9.22969e-15
-8.68564e-15
6.89641e-15
5.5631e-15
-9.24118e-15
5.34088e-15
3.67425e-15
-1.29078e-14
4.52098e-16
7.85424e-16
-6.5899e-16
-1.65897e-15
1.39231e-14
-2.54784e-15
-2.32562e-15
-4.32558e-15
-4.88112e-15
1.01454e-14
-6.65886e-15
7.9232e-15
-8.65882e-15
6.36768e-15
5.92325e-15
-1.02143e-14
3.81218e-15
4.36772e-15
-1.29921e-14
2.70109e-15
1.36779e-15
5.90026e-16
-1.40993e-15
-1.63215e-15
-2.07658e-15
1.29499e-14
-4.29876e-15
-4.63209e-15
1.00611e-14
-6.18761e-15
-6.63204e-15
8.72779e-15
-8.52089e-15
5.95007e-15
5.83896e-15
-1.09653e-14
3.50567e-15
2.72791e-15
1.95015e-15
2.50569e-15
8.39063e-16
-4.94242e-16
-3.83134e-16
-6.05351e-16
-1.93866e-15
-2.38309e-15
-3.38307e-15
-4.27194e-15
1.13101e-14
-5.0497e-15
8.08795e-15
-7.71631e-15
7.53241e-15
-8.71629e-15
6.97686e-15
-1.01607e-14
4.42136e-15
2.97695e-15
1.42143e-15
2.53251e-15
1.53253e-15
-3.56314e-16
4.21447e-16
-9.11858e-16
-1.35629e-15
-1.57851e-15
-3.68958e-15
-3.91179e-15
-3.91179e-15
1.10036e-14
-5.57843e-15
9.22586e-15
-7.35617e-15
8.00366e-15
-8.68947e-15
5.8926e-15
-1.14672e-14
5.67038e-15
3.78153e-15
3.4482e-15
-1.35783e-14
3.00377e-15
3.11488e-15
4.48266e-16
2.26049e-16
-1.21837e-15
-1.32947e-15
-2.32945e-15
1.24748e-14
-3.88498e-15
-4.10719e-15
-4.44052e-15
8.91935e-15
-6.21826e-15
8.14159e-15
-7.55156e-15
6.58607e-15
-9.99596e-15
6.03052e-15
5.03055e-15
-1.13293e-14
3.58613e-15
2.47504e-15
2.47504e-15
2.36393e-15
6.97303e-16
5.86195e-16
-9.69328e-16
-1.19155e-15
-2.85818e-15
-1.19155e-15
-2.74707e-15
-2.96929e-15
1.1835e-14
-4.30259e-15
-5.30257e-15
8.83506e-15
-7.41364e-15
7.94619e-15
-8.08029e-15
6.39067e-15
-9.41359e-15
6.39067e-15
4.39071e-15
-1.14136e-14
2.83519e-15
2.9463e-15
2.16854e-15
2.27965e-15
1.39078e-15
6.13014e-16
-1.27584e-15
1.68579e-16
-2.16471e-15
-1.94249e-15
-4.27577e-15
-4.49799e-15
1.08618e-14
-5.16464e-15
-5.9424e-15
8.75077e-15
-6.27573e-15
7.75079e-15
-7.72014e-15
5.63973e-15
6.97303e-15
-1.01645e-14
4.75086e-15
4.52864e-15
-1.08312e-14
3.19533e-15
2.19536e-15
1.97314e-15
8.62051e-16
8.42894e-17
1.95398e-16
-2.68194e-17
-9.1569e-16
-2.24899e-15
-2.13789e-15
-1.69345e-15
-3.80452e-15
1.17775e-14
-4.69339e-15
-5.13782e-15
1.04442e-14
-6.80445e-15
-6.91556e-15
7.44429e-15
-7.13778e-15
7.66651e-15
6.11098e-15
-9.35995e-15
5.44433e-15
-1.02488e-14
4.88879e-15
3.11105e-15
3.22215e-15
2.44439e-15
1.88885e-15
-1.32488e-14
1.11109e-16
-4.44435e-16
-4.44435e-16
-7.77761e-16
1.3471e-14
-2.33328e-15
-2.77772e-15
-3.44437e-15
-4.22213e-15
1.05822e-14
-5.55544e-15
-5.22211e-15
1.02488e-14
-5.77766e-15
9.35996e-15
-8.77759e-15
7.58222e-15
-7.88872e-15
5.02671e-15
-9.33314e-15
4.69339e-15
4.36006e-15
4.02674e-15
-1.16664e-14
2.69343e-15
1.13791e-15
1.0268e-15
-7.50942e-16
6.93472e-16
-1.95398e-16
4.71254e-16
-1.97314e-15
-6.39833e-16
-2.7509e-15
-1.86203e-15
1.11645e-14
-3.86199e-15
-5.08418e-15
1.14978e-14
-5.97305e-15
-5.63973e-15
9.16456e-15
-7.08414e-15
8.05347e-15
-9.19521e-15
7.49793e-15
-9.63964e-15
5.27575e-15
4.49799e-15
-1.04174e-14
4.72021e-15
3.83134e-15
3.49801e-15
-1.3084e-14
2.60914e-15
1.49805e-15
1.16473e-15
6.09183e-16
2.75856e-16
3.86965e-16
-2.79688e-16
-1.61299e-15
-1.39078e-15
-2.50186e-15
1.25246e-14
-3.50184e-15
-2.61297e-15
-4.83515e-15
1.05247e-14
-3.83517e-15
-6.724e-15
1.01914e-14
-6.94621e-15
7.85807e-15
-8.0573e-15
7.19142e-15
-9.72393e-15
6.74698e-15
5.747e-15
-1.05017e-14
4.74703e-15
4.63592e-15
-1.10572e-14
2.52485e-15
3.08039e-15
2.41374e-15
2.52485e-15
1.41376e-15
-1.48349e-14
8.58219e-16
-5.86194e-16
8.04581e-17
1.48847e-14
-1.47506e-15
-2.25283e-15
-3.58613e-15
-2.36393e-15
-3.03059e-15
1.22181e-14
-3.80835e-15
-5.36387e-15
-5.47498e-15
9.44041e-15
-5.80831e-15
8.10711e-15
-7.0305e-15
7.21824e-15
-6.91939e-15
6.32937e-15
-9.91933e-15
7.44046e-15
5.4405e-15
-9.91933e-15
4.66274e-15
3.77387e-15
-1.24748e-14
3.55165e-15
3.10721e-15
2.44056e-15
2.55167e-15
1.55169e-15
-1.3697e-14
7.7393e-16
-3.37158e-16
-6.70484e-16
1.48005e-14
-1.78157e-15
-1.67046e-15
-1.33714e-15
-2.22601e-15
-2.33712e-15
-3.4482e-15
1.20227e-14
-4.11486e-15
-3.55931e-15
-4.00375e-15
1.01339e-14
-5.55927e-15
-6.55925e-15
1.00228e-14
-3.11488e-15
1.21837e-15
3.1915e-15
-3.55548e-15
1.45208e-15
-2.93097e-15
1.58617e-15
-4.2298e-15
8.64733e-15
1.19155e-15
-1.31951e-14
6.73549e-15
3.10338e-16
1.17622e-15
1.23369e-15
3.13786e-15
-1.3153e-14
1.16588e-14
-1.07277e-15
2.99994e-15
-1.60916e-16
7.27954e-17
-4.22213e-15
-2.00762e-15
-4.17616e-16
-5.86961e-15
1.18503e-14
-1.15936e-14
3.67808e-16
1.03829e-15
8.52472e-15
1.21836e-15
-2.9348e-15
-8.1799e-15
3.73555e-15
9.7316e-15
-9.9155e-15
-7.47111e-16
1.5287e-15
-2.86201e-15
8.21439e-15
-9.16456e-15
-2.95013e-16
8.78142e-15
-1.06128e-15
1.29882e-15
4.01907e-15
-9.68179e-15
8.66648e-15
2.45206e-16
1.40227e-15
-1.0835e-14
5.90026e-16
7.68949e-15
1.61682e-15
-6.8351e-15
7.042e-15
-5.67804e-15
-3.12637e-15
-5.51713e-15
7.59371e-15
2.59382e-15
-6.02669e-15
1.01339e-14
-4.60144e-15
3.83134e-15
-5.93857e-15
2.16087e-15
-4.5363e-15
-5.52479e-15
1.19346e-14
-1.07622e-14
3.53249e-15
-1.9808e-15
5.23744e-15
4.27194e-15
-1.08657e-14
1.07584e-14
-6.93089e-15
-4.73553e-15
1.0858e-14
8.96533e-16
-9.29865e-15
9.73543e-15
-5.43667e-15
-7.00368e-15
1.08887e-14
-5.03054e-15
-2.1034e-15
5.09185e-15
6.39833e-15
-1.52985e-14
6.7738e-15
-5.52862e-15
9.83887e-15
-7.6052e-15
1.62832e-15
-5.08802e-15
2.67044e-15
8.59752e-15
-1.03293e-14
-1.06511e-15
2.13022e-15
-1.90034e-15
-2.567e-16
1.02105e-14
1.4789e-15
3.69724e-15
-6.93855e-15
1.21837e-15
-3.1915e-15
7.41364e-15
-8.24887e-15
-3.56697e-15
-1.83138e-15
1.32526e-14
-1.11224e-14
4.28343e-15
4.33324e-15
-3.36391e-15
-5.19912e-15
7.40981e-15
-3.47885e-15
6.21443e-15
2.32562e-15
-1.49231e-14
1.42411e-14
-2.67427e-15
-3.34093e-15
-4.3409e-15
1.16856e-14
-6.7853e-15
-7.56306e-15
7.57455e-15
6.68568e-15
-1.07852e-14
3.01909e-15
2.13022e-15
1.7969e-15
3.52483e-16
-7.58605e-16
-2.86967e-15
-3.09189e-15
-3.98076e-15
9.49022e-15
-8.314e-15
7.9347e-15
-9.75841e-15
5.49031e-15
3.60146e-15
2.82369e-15
1.93483e-15
4.5976e-17
-1.50955e-15
-3.17618e-15
-4.39837e-15
-5.28724e-15
8.73928e-15
-7.06499e-15
6.96154e-15
-8.73162e-15
4.85047e-15
3.85049e-15
3.07273e-15
2.73941e-15
-1.06205e-14
-2.8735e-16
-7.66267e-18
1.00534e-14
-4.50948e-15
-4.61293e-15
7.61287e-15
-6.29872e-15
3.33709e-15
3.69724e-15
2.0421e-15
-4.85047e-15
)
;
    }
    defaultFaces
    {
        type            empty;
    }
}

// ************************************************************************* //
