/*--------------------------------*- C++ -*----------------------------------*\
|       ______          _   __           ______                               |
|      / ____/  ___    / | / /          / ____/  ____   ____ _   ____ ___     |
|     / / __   / _ \  /  |/ /  ______  / /_     / __ \ / __ `/  / __ `__ \    |
|    / /_/ /  /  __/ / /|  /  /_____/ / __/    / /_/ // /_/ /  / / / / / /    |
|    \____/   \___/ /_/ |_/          /_/       \____/ \__,_/  /_/ /_/ /_/     |
|    Copyright (C) 2015 - 2022 EPFL                                           |
\*---------------------------------------------------------------------------*/
FoamFile
{
    version     2.0;
    format      ascii;
    class       volScalarField;
    object      epsilon;
}
// * * * * * * * * * * * * * * * * * * * * * * * * * * * * * * * * * * * * * //

dimensions      [0 2 -3 0 0 0 0];

internalField   nonuniform List<scalar> 
640
(
0.000449153
0.000448205
0.00044726
0.000446318
0.000445378
0.000444441
0.000443507
0.000442575
0.000441646
0.00044072
0.000439796
0.000438875
0.000437956
0.00043704
0.000436126
0.000435215
0.000434307
0.000433401
0.000432498
0.000431597
0.000430699
0.000429803
0.00042891
0.00042802
0.000427131
0.000426246
0.000425362
0.000424482
0.000423603
0.000422727
0.000421854
0.000420983
0.000420115
0.000419248
0.000418385
0.000417523
0.000416664
0.000415808
0.000414954
0.000414102
0.000413252
0.000412405
0.00041156
0.000410718
0.000409878
0.00040904
0.000408205
0.000407371
0.00040654
0.000405712
0.000404885
0.000404061
0.000403239
0.00040242
0.000401603
0.000400787
0.000399975
0.000399164
0.000398356
0.000397549
0.000396745
0.000395943
0.000395144
0.000394346
0.000393551
0.000392758
0.000391967
0.000391178
0.000390391
0.000389606
0.000388824
0.000388043
0.000387265
0.000386489
0.000385715
0.000384943
0.000384173
0.000383405
0.000382639
0.000381875
0.000381113
0.000380354
0.000379596
0.00037884
0.000378087
0.000377335
0.000376585
0.000375838
0.000375092
0.000374348
0.000373607
0.000372867
0.000372129
0.000371393
0.000370659
0.000369927
0.000369197
0.000368469
0.000367743
0.000367018
0.000366296
0.000365575
0.000364857
0.00036414
0.000363425
0.000362712
0.000362001
0.000361291
0.000360584
0.000359878
0.000359175
0.000358473
0.000357772
0.000357074
0.000356377
0.000355683
0.00035499
0.000354299
0.000353609
0.000352922
0.000352236
0.000351552
0.000350869
0.000350189
0.00034951
0.000348833
0.000348158
0.000347484
0.000346812
0.000346142
0.000345473
0.000344807
0.000344142
0.000343478
0.000342817
0.000342157
0.000341498
0.000340842
0.000340186
0.000339533
0.000338881
0.000338231
0.000337583
0.000336936
0.000336291
0.000335648
0.000335006
0.000334365
0.000333727
0.00033309
0.000332454
0.00033182
0.000331188
0.000330557
0.000329928
0.000329301
0.000328675
0.00032805
0.000327427
0.000326806
0.000326186
0.000325568
0.000324951
0.000324336
0.000323723
0.000323111
0.0003225
0.000321891
0.000321283
0.000320677
0.000320073
0.00031947
0.000318868
0.000318268
0.000317669
0.000317072
0.000316477
0.000315882
0.00031529
0.000314699
0.000314109
0.00031352
0.000312933
0.000312348
0.000311764
0.000311181
0.0003106
0.00031002
0.000309442
0.000308865
0.00030829
0.000307716
0.000307143
0.000306572
0.000306002
0.000305433
0.000304866
0.0003043
0.000303736
0.000303173
0.000302611
0.000302051
0.000301492
0.000300935
0.000300378
0.000299823
0.00029927
0.000298718
0.000298167
0.000297617
0.000297069
0.000296522
0.000295977
0.000295433
0.00029489
0.000294348
0.000293808
0.000293269
0.000292731
0.000292195
0.00029166
0.000291126
0.000290593
0.000290062
0.000289532
0.000289003
0.000288476
0.00028795
0.000287425
0.000286901
0.000286379
0.000285858
0.000285338
0.000284819
0.000284302
0.000283785
0.00028327
0.000282757
0.000282244
0.000281733
0.000281223
0.000280714
0.000280206
0.0002797
0.000279194
0.00027869
0.000278187
0.000277686
0.000277185
0.000276686
0.000276188
0.000275691
0.000275195
0.0002747
0.000274207
0.000273714
0.000273223
0.000272733
0.000272244
0.000271757
0.00027127
0.000270785
0.000270301
0.000269817
0.000269335
0.000268855
0.000268375
0.000267896
0.000267419
0.000266942
0.000266467
0.000265993
0.00026552
0.000265048
0.000264577
0.000264107
0.000263638
0.000263171
0.000262704
0.000262239
0.000261775
0.000261311
0.000260849
0.000260388
0.000259928
0.000259469
0.000259011
0.000258554
0.000258098
0.000257644
0.00025719
0.000256737
0.000256286
0.000255835
0.000255385
0.000254937
0.000254489
0.000254043
0.000253597
0.000253153
0.00025271
0.000252267
0.000251826
0.000251385
0.000250946
0.000250508
0.00025007
0.000249634
0.000249198
0.000248764
0.000248331
0.000247898
0.000247467
0.000247036
0.000246607
0.000246178
0.000245751
0.000245324
0.000244898
0.000244474
0.00024405
0.000243627
0.000243206
0.000242785
0.000242365
0.000241946
0.000241528
0.000241111
0.000240695
0.00024028
0.000239865
0.000239452
0.00023904
0.000238628
0.000238217
0.000237808
0.000237399
0.000236991
0.000236584
0.000236178
0.000235773
0.000235369
0.000234966
0.000234563
0.000234162
0.000233761
0.000233361
0.000232963
0.000232565
0.000232168
0.000231771
0.000231376
0.000230982
0.000230588
0.000230195
0.000229803
0.000229412
0.000229022
0.000228633
0.000228245
0.000227857
0.00022747
0.000227084
0.000226699
0.000226315
0.000225932
0.000225549
0.000225168
0.000224787
0.000224407
0.000224028
0.000223649
0.000223272
0.000222895
0.000222519
0.000222144
0.00022177
0.000221396
0.000221024
0.000220652
0.000220281
0.000219911
0.000219541
0.000219173
0.000218805
0.000218438
0.000218072
0.000217706
0.000217341
0.000216978
0.000216614
0.000216252
0.000215891
0.00021553
0.00021517
0.000214811
0.000214452
0.000214094
0.000213737
0.000213381
0.000213026
0.000212671
0.000212317
0.000211964
0.000211612
0.00021126
0.000210909
0.000210559
0.00021021
0.000209861
0.000209513
0.000209166
0.00020882
0.000208474
0.000208129
0.000207785
0.000207441
0.000207098
0.000206756
0.000206415
0.000206074
0.000205734
0.000205395
0.000205056
0.000204719
0.000204382
0.000204045
0.00020371
0.000203375
0.00020304
0.000202707
0.000202374
0.000202042
0.00020171
0.000201379
0.000201049
0.00020072
0.000200391
0.000200063
0.000199736
0.000199409
0.000199083
0.000198758
0.000198433
0.000198109
0.000197786
0.000197463
0.000197141
0.00019682
0.000196499
0.000196179
0.00019586
0.000195541
0.000195223
0.000194905
0.000194589
0.000194273
0.000193957
0.000193642
0.000193328
0.000193015
0.000192702
0.000192389
0.000192077
0.000191764
0.000191445
0.000191108
0.000190705
0.000190081
0.000188708
0.000184805
0.000172319
0.000130293
0.000131591
0.000135386
0.000139151
0.000142885
0.000146588
0.000150259
0.000153896
0.0001575
0.00016107
0.000164604
0.000168104
0.000171567
0.000174995
0.000178387
0.000181742
0.00018506
0.000188341
0.000191585
0.000194793
0.000197963
0.000201095
0.000204191
0.000207249
0.00021027
0.000213255
0.000216202
0.000219112
0.000221986
0.000224823
0.000227623
0.000230388
0.000233116
0.000235809
0.000238466
0.000241087
0.000243674
0.000246226
0.000248743
0.000251226
0.000253674
0.000256089
0.000258471
0.000260819
0.000263135
0.000265418
0.000267669
0.000269888
0.000272075
0.000274231
0.000276357
0.000278451
0.000280515
0.00028255
0.000284554
0.00028653
0.000288476
0.000290394
0.000292284
0.000294145
0.000295979
0.000297786
0.000299566
0.000301319
0.000303046
0.000304747
0.000306422
0.000308072
0.000309697
0.000311297
0.000312873
0.000314425
0.000315953
0.000317458
0.00031894
0.000320399
0.000321836
0.000323251
0.000324649
0.000326054
0.000327609
0.000330173
0.000338921
0.000384837
0.000539362
0.000538152
0.000536946
0.000535743
0.000534544
0.000533349
0.000532157
0.000530968
0.000529784
0.000528602
0.000527424
0.00052625
0.000525079
0.000523912
0.000522748
0.000521587
0.00052043
0.000519277
0.000518126
0.000516979
0.000515836
0.000514696
0.000513559
0.000512425
0.000511295
0.000510168
0.000509045
0.000507925
0.000506808
0.000505694
0.000504583
0.000503476
0.000502372
0.000501271
0.000500174
0.00049908
0.000497988
0.0004969
0.000495816
0.000494734
0.000493655
0.00049258
0.000491508
0.000490438
0.000489372
0.000488309
0.00048725
0.000486193
0.000485139
0.000484088
0.00048304
0.000481996
0.000480954
0.000479916
0.00047888
0.000477847
0.000476817
0.000475791
0.000474767
0.000473746
0.000472728
0.000471713
0.000470701
0.000469692
0.000468686
0.000467682
0.000466682
0.000465684
0.000464689
0.000463697
0.000462708
0.000461722
0.000460739
0.000459758
0.00045878
0.000457805
0.000456833
0.000455863
0.000454896
0.000453932
0.000452971
0.000452013
0.000451057
0.000450104
)
;

boundaryField
{
    top
    {
        type            cyclic;
    }
    bottom
    {
        type            cyclic;
    }
    walls
    {
        lowReCorrection 0;
        blending        stepwise;
        n               2;
        type            epsilonWallFunction;
        value           nonuniform List<scalar> 
1280
(
0.000449153
0.000448205
0.00044726
0.000446318
0.000445378
0.000444441
0.000443507
0.000442575
0.000441646
0.00044072
0.000439796
0.000438875
0.000437956
0.00043704
0.000436126
0.000435215
0.000434307
0.000433401
0.000432498
0.000431597
0.000430699
0.000429803
0.00042891
0.00042802
0.000427131
0.000426246
0.000425362
0.000424482
0.000423603
0.000422727
0.000421854
0.000420983
0.000420115
0.000419248
0.000418385
0.000417523
0.000416664
0.000415808
0.000414954
0.000414102
0.000413252
0.000412405
0.00041156
0.000410718
0.000409878
0.00040904
0.000408205
0.000407371
0.00040654
0.000405712
0.000404885
0.000404061
0.000403239
0.00040242
0.000401603
0.000400787
0.000399975
0.000399164
0.000398356
0.000397549
0.000396745
0.000395943
0.000395144
0.000394346
0.000393551
0.000392758
0.000391967
0.000391178
0.000390391
0.000389606
0.000388824
0.000388043
0.000387265
0.000386489
0.000385715
0.000384943
0.000384173
0.000383405
0.000382639
0.000381875
0.000381113
0.000380354
0.000379596
0.00037884
0.000378087
0.000377335
0.000376585
0.000375838
0.000375092
0.000374348
0.000373607
0.000372867
0.000372129
0.000371393
0.000370659
0.000369927
0.000369197
0.000368469
0.000367743
0.000367018
0.000366296
0.000365575
0.000364857
0.00036414
0.000363425
0.000362712
0.000362001
0.000361291
0.000360584
0.000359878
0.000359175
0.000358473
0.000357772
0.000357074
0.000356377
0.000355683
0.00035499
0.000354299
0.000353609
0.000352922
0.000352236
0.000351552
0.000350869
0.000350189
0.00034951
0.000348833
0.000348158
0.000347484
0.000346812
0.000346142
0.000345473
0.000344807
0.000344142
0.000343478
0.000342817
0.000342157
0.000341498
0.000340842
0.000340186
0.000339533
0.000338881
0.000338231
0.000337583
0.000336936
0.000336291
0.000335648
0.000335006
0.000334365
0.000333727
0.00033309
0.000332454
0.00033182
0.000331188
0.000330557
0.000329928
0.000329301
0.000328675
0.00032805
0.000327427
0.000326806
0.000326186
0.000325568
0.000324951
0.000324336
0.000323723
0.000323111
0.0003225
0.000321891
0.000321283
0.000320677
0.000320073
0.00031947
0.000318868
0.000318268
0.000317669
0.000317072
0.000316477
0.000315882
0.00031529
0.000314699
0.000314109
0.00031352
0.000312933
0.000312348
0.000311764
0.000311181
0.0003106
0.00031002
0.000309442
0.000308865
0.00030829
0.000307716
0.000307143
0.000306572
0.000306002
0.000305433
0.000304866
0.0003043
0.000303736
0.000303173
0.000302611
0.000302051
0.000301492
0.000300935
0.000300378
0.000299823
0.00029927
0.000298718
0.000298167
0.000297617
0.000297069
0.000296522
0.000295977
0.000295433
0.00029489
0.000294348
0.000293808
0.000293269
0.000292731
0.000292195
0.00029166
0.000291126
0.000290593
0.000290062
0.000289532
0.000289003
0.000288476
0.00028795
0.000287425
0.000286901
0.000286379
0.000285858
0.000285338
0.000284819
0.000284302
0.000283785
0.00028327
0.000282757
0.000282244
0.000281733
0.000281223
0.000280714
0.000280206
0.0002797
0.000279194
0.00027869
0.000278187
0.000277686
0.000277185
0.000276686
0.000276188
0.000275691
0.000275195
0.0002747
0.000274207
0.000273714
0.000273223
0.000272733
0.000272244
0.000271757
0.00027127
0.000270785
0.000270301
0.000269817
0.000269335
0.000268855
0.000268375
0.000267896
0.000267419
0.000266942
0.000266467
0.000265993
0.00026552
0.000265048
0.000264577
0.000264107
0.000263638
0.000263171
0.000262704
0.000262239
0.000261775
0.000261311
0.000260849
0.000260388
0.000259928
0.000259469
0.000259011
0.000258554
0.000258098
0.000257644
0.00025719
0.000256737
0.000256286
0.000255835
0.000255385
0.000254937
0.000254489
0.000254043
0.000253597
0.000253153
0.00025271
0.000252267
0.000251826
0.000251385
0.000250946
0.000250508
0.00025007
0.000249634
0.000249198
0.000248764
0.000248331
0.000247898
0.000247467
0.000247036
0.000246607
0.000246178
0.000245751
0.000245324
0.000244898
0.000244474
0.00024405
0.000243627
0.000243206
0.000242785
0.000242365
0.000241946
0.000241528
0.000241111
0.000240695
0.00024028
0.000239865
0.000239452
0.00023904
0.000238628
0.000238217
0.000237808
0.000237399
0.000236991
0.000236584
0.000236178
0.000235773
0.000235369
0.000234966
0.000234563
0.000234162
0.000233761
0.000233361
0.000232963
0.000232565
0.000232168
0.000231771
0.000231376
0.000230982
0.000230588
0.000230195
0.000229803
0.000229412
0.000229022
0.000228633
0.000228245
0.000227857
0.00022747
0.000227084
0.000226699
0.000226315
0.000225932
0.000225549
0.000225168
0.000224787
0.000224407
0.000224028
0.000223649
0.000223272
0.000222895
0.000222519
0.000222144
0.00022177
0.000221396
0.000221024
0.000220652
0.000220281
0.000219911
0.000219541
0.000219173
0.000218805
0.000218438
0.000218072
0.000217706
0.000217341
0.000216978
0.000216614
0.000216252
0.000215891
0.00021553
0.00021517
0.000214811
0.000214452
0.000214094
0.000213737
0.000213381
0.000213026
0.000212671
0.000212317
0.000211964
0.000211612
0.00021126
0.000210909
0.000210559
0.00021021
0.000209861
0.000209513
0.000209166
0.00020882
0.000208474
0.000208129
0.000207785
0.000207441
0.000207098
0.000206756
0.000206415
0.000206074
0.000205734
0.000205395
0.000205056
0.000204719
0.000204382
0.000204045
0.00020371
0.000203375
0.00020304
0.000202707
0.000202374
0.000202042
0.00020171
0.000201379
0.000201049
0.00020072
0.000200391
0.000200063
0.000199736
0.000199409
0.000199083
0.000198758
0.000198433
0.000198109
0.000197786
0.000197463
0.000197141
0.00019682
0.000196499
0.000196179
0.00019586
0.000195541
0.000195223
0.000194905
0.000194589
0.000194273
0.000193957
0.000193642
0.000193328
0.000193015
0.000192702
0.000192389
0.000192077
0.000191764
0.000191445
0.000191108
0.000190705
0.000190081
0.000188708
0.000184805
0.000172319
0.000130293
0.000131591
0.000135386
0.000139151
0.000142885
0.000146588
0.000150259
0.000153896
0.0001575
0.00016107
0.000164604
0.000168104
0.000171567
0.000174995
0.000178387
0.000181742
0.00018506
0.000188341
0.000191585
0.000194793
0.000197963
0.000201095
0.000204191
0.000207249
0.00021027
0.000213255
0.000216202
0.000219112
0.000221986
0.000224823
0.000227623
0.000230388
0.000233116
0.000235809
0.000238466
0.000241087
0.000243674
0.000246226
0.000248743
0.000251226
0.000253674
0.000256089
0.000258471
0.000260819
0.000263135
0.000265418
0.000267669
0.000269888
0.000272075
0.000274231
0.000276357
0.000278451
0.000280515
0.00028255
0.000284554
0.00028653
0.000288476
0.000290394
0.000292284
0.000294145
0.000295979
0.000297786
0.000299566
0.000301319
0.000303046
0.000304747
0.000306422
0.000308072
0.000309697
0.000311297
0.000312873
0.000314425
0.000315953
0.000317458
0.00031894
0.000320399
0.000321836
0.000323251
0.000324649
0.000326054
0.000327609
0.000330173
0.000338921
0.000384837
0.000539362
0.000538152
0.000536946
0.000535743
0.000534544
0.000533349
0.000532157
0.000530968
0.000529784
0.000528602
0.000527424
0.00052625
0.000525079
0.000523912
0.000522748
0.000521587
0.00052043
0.000519277
0.000518126
0.000516979
0.000515836
0.000514696
0.000513559
0.000512425
0.000511295
0.000510168
0.000509045
0.000507925
0.000506808
0.000505694
0.000504583
0.000503476
0.000502372
0.000501271
0.000500174
0.00049908
0.000497988
0.0004969
0.000495816
0.000494734
0.000493655
0.00049258
0.000491508
0.000490438
0.000489372
0.000488309
0.00048725
0.000486193
0.000485139
0.000484088
0.00048304
0.000481996
0.000480954
0.000479916
0.00047888
0.000477847
0.000476817
0.000475791
0.000474767
0.000473746
0.000472728
0.000471713
0.000470701
0.000469692
0.000468686
0.000467682
0.000466682
0.000465684
0.000464689
0.000463697
0.000462708
0.000461722
0.000460739
0.000459758
0.00045878
0.000457805
0.000456833
0.000455863
0.000454896
0.000453932
0.000452971
0.000452013
0.000451057
0.000450104
0.000449153
0.000448205
0.00044726
0.000446318
0.000445378
0.000444441
0.000443507
0.000442575
0.000441646
0.00044072
0.000439796
0.000438875
0.000437956
0.00043704
0.000436126
0.000435215
0.000434307
0.000433401
0.000432498
0.000431597
0.000430699
0.000429803
0.00042891
0.00042802
0.000427131
0.000426246
0.000425362
0.000424482
0.000423603
0.000422727
0.000421854
0.000420983
0.000420115
0.000419248
0.000418385
0.000417523
0.000416664
0.000415808
0.000414954
0.000414102
0.000413252
0.000412405
0.00041156
0.000410718
0.000409878
0.00040904
0.000408205
0.000407371
0.00040654
0.000405712
0.000404885
0.000404061
0.000403239
0.00040242
0.000401603
0.000400787
0.000399975
0.000399164
0.000398356
0.000397549
0.000396745
0.000395943
0.000395144
0.000394346
0.000393551
0.000392758
0.000391967
0.000391178
0.000390391
0.000389606
0.000388824
0.000388043
0.000387265
0.000386489
0.000385715
0.000384943
0.000384173
0.000383405
0.000382639
0.000381875
0.000381113
0.000380354
0.000379596
0.00037884
0.000378087
0.000377335
0.000376585
0.000375838
0.000375092
0.000374348
0.000373607
0.000372867
0.000372129
0.000371393
0.000370659
0.000369927
0.000369197
0.000368469
0.000367743
0.000367018
0.000366296
0.000365575
0.000364857
0.00036414
0.000363425
0.000362712
0.000362001
0.000361291
0.000360584
0.000359878
0.000359175
0.000358473
0.000357772
0.000357074
0.000356377
0.000355683
0.00035499
0.000354299
0.000353609
0.000352922
0.000352236
0.000351552
0.000350869
0.000350189
0.00034951
0.000348833
0.000348158
0.000347484
0.000346812
0.000346142
0.000345473
0.000344807
0.000344142
0.000343478
0.000342817
0.000342157
0.000341498
0.000340842
0.000340186
0.000339533
0.000338881
0.000338231
0.000337583
0.000336936
0.000336291
0.000335648
0.000335006
0.000334365
0.000333727
0.00033309
0.000332454
0.00033182
0.000331188
0.000330557
0.000329928
0.000329301
0.000328675
0.00032805
0.000327427
0.000326806
0.000326186
0.000325568
0.000324951
0.000324336
0.000323723
0.000323111
0.0003225
0.000321891
0.000321283
0.000320677
0.000320073
0.00031947
0.000318868
0.000318268
0.000317669
0.000317072
0.000316477
0.000315882
0.00031529
0.000314699
0.000314109
0.00031352
0.000312933
0.000312348
0.000311764
0.000311181
0.0003106
0.00031002
0.000309442
0.000308865
0.00030829
0.000307716
0.000307143
0.000306572
0.000306002
0.000305433
0.000304866
0.0003043
0.000303736
0.000303173
0.000302611
0.000302051
0.000301492
0.000300935
0.000300378
0.000299823
0.00029927
0.000298718
0.000298167
0.000297617
0.000297069
0.000296522
0.000295977
0.000295433
0.00029489
0.000294348
0.000293808
0.000293269
0.000292731
0.000292195
0.00029166
0.000291126
0.000290593
0.000290062
0.000289532
0.000289003
0.000288476
0.00028795
0.000287425
0.000286901
0.000286379
0.000285858
0.000285338
0.000284819
0.000284302
0.000283785
0.00028327
0.000282757
0.000282244
0.000281733
0.000281223
0.000280714
0.000280206
0.0002797
0.000279194
0.00027869
0.000278187
0.000277686
0.000277185
0.000276686
0.000276188
0.000275691
0.000275195
0.0002747
0.000274207
0.000273714
0.000273223
0.000272733
0.000272244
0.000271757
0.00027127
0.000270785
0.000270301
0.000269817
0.000269335
0.000268855
0.000268375
0.000267896
0.000267419
0.000266942
0.000266467
0.000265993
0.00026552
0.000265048
0.000264577
0.000264107
0.000263638
0.000263171
0.000262704
0.000262239
0.000261775
0.000261311
0.000260849
0.000260388
0.000259928
0.000259469
0.000259011
0.000258554
0.000258098
0.000257644
0.00025719
0.000256737
0.000256286
0.000255835
0.000255385
0.000254937
0.000254489
0.000254043
0.000253597
0.000253153
0.00025271
0.000252267
0.000251826
0.000251385
0.000250946
0.000250508
0.00025007
0.000249634
0.000249198
0.000248764
0.000248331
0.000247898
0.000247467
0.000247036
0.000246607
0.000246178
0.000245751
0.000245324
0.000244898
0.000244474
0.00024405
0.000243627
0.000243206
0.000242785
0.000242365
0.000241946
0.000241528
0.000241111
0.000240695
0.00024028
0.000239865
0.000239452
0.00023904
0.000238628
0.000238217
0.000237808
0.000237399
0.000236991
0.000236584
0.000236178
0.000235773
0.000235369
0.000234966
0.000234563
0.000234162
0.000233761
0.000233361
0.000232963
0.000232565
0.000232168
0.000231771
0.000231376
0.000230982
0.000230588
0.000230195
0.000229803
0.000229412
0.000229022
0.000228633
0.000228245
0.000227857
0.00022747
0.000227084
0.000226699
0.000226315
0.000225932
0.000225549
0.000225168
0.000224787
0.000224407
0.000224028
0.000223649
0.000223272
0.000222895
0.000222519
0.000222144
0.00022177
0.000221396
0.000221024
0.000220652
0.000220281
0.000219911
0.000219541
0.000219173
0.000218805
0.000218438
0.000218072
0.000217706
0.000217341
0.000216978
0.000216614
0.000216252
0.000215891
0.00021553
0.00021517
0.000214811
0.000214452
0.000214094
0.000213737
0.000213381
0.000213026
0.000212671
0.000212317
0.000211964
0.000211612
0.00021126
0.000210909
0.000210559
0.00021021
0.000209861
0.000209513
0.000209166
0.00020882
0.000208474
0.000208129
0.000207785
0.000207441
0.000207098
0.000206756
0.000206415
0.000206074
0.000205734
0.000205395
0.000205056
0.000204719
0.000204382
0.000204045
0.00020371
0.000203375
0.00020304
0.000202707
0.000202374
0.000202042
0.00020171
0.000201379
0.000201049
0.00020072
0.000200391
0.000200063
0.000199736
0.000199409
0.000199083
0.000198758
0.000198433
0.000198109
0.000197786
0.000197463
0.000197141
0.00019682
0.000196499
0.000196179
0.00019586
0.000195541
0.000195223
0.000194905
0.000194589
0.000194273
0.000193957
0.000193642
0.000193328
0.000193015
0.000192702
0.000192389
0.000192077
0.000191764
0.000191445
0.000191108
0.000190705
0.000190081
0.000188708
0.000184805
0.000172319
0.000130293
0.000131591
0.000135386
0.000139151
0.000142885
0.000146588
0.000150259
0.000153896
0.0001575
0.00016107
0.000164604
0.000168104
0.000171567
0.000174995
0.000178387
0.000181742
0.00018506
0.000188341
0.000191585
0.000194793
0.000197963
0.000201095
0.000204191
0.000207249
0.00021027
0.000213255
0.000216202
0.000219112
0.000221986
0.000224823
0.000227623
0.000230388
0.000233116
0.000235809
0.000238466
0.000241087
0.000243674
0.000246226
0.000248743
0.000251226
0.000253674
0.000256089
0.000258471
0.000260819
0.000263135
0.000265418
0.000267669
0.000269888
0.000272075
0.000274231
0.000276357
0.000278451
0.000280515
0.00028255
0.000284554
0.00028653
0.000288476
0.000290394
0.000292284
0.000294145
0.000295979
0.000297786
0.000299566
0.000301319
0.000303046
0.000304747
0.000306422
0.000308072
0.000309697
0.000311297
0.000312873
0.000314425
0.000315953
0.000317458
0.00031894
0.000320399
0.000321836
0.000323251
0.000324649
0.000326054
0.000327609
0.000330173
0.000338921
0.000384837
0.000539362
0.000538152
0.000536946
0.000535743
0.000534544
0.000533349
0.000532157
0.000530968
0.000529784
0.000528602
0.000527424
0.00052625
0.000525079
0.000523912
0.000522748
0.000521587
0.00052043
0.000519277
0.000518126
0.000516979
0.000515836
0.000514696
0.000513559
0.000512425
0.000511295
0.000510168
0.000509045
0.000507925
0.000506808
0.000505694
0.000504583
0.000503476
0.000502372
0.000501271
0.000500174
0.00049908
0.000497988
0.0004969
0.000495816
0.000494734
0.000493655
0.00049258
0.000491508
0.000490438
0.000489372
0.000488309
0.00048725
0.000486193
0.000485139
0.000484088
0.00048304
0.000481996
0.000480954
0.000479916
0.00047888
0.000477847
0.000476817
0.000475791
0.000474767
0.000473746
0.000472728
0.000471713
0.000470701
0.000469692
0.000468686
0.000467682
0.000466682
0.000465684
0.000464689
0.000463697
0.000462708
0.000461722
0.000460739
0.000459758
0.00045878
0.000457805
0.000456833
0.000455863
0.000454896
0.000453932
0.000452971
0.000452013
0.000451057
0.000450104
)
;
    }
    defaultFaces
    {
        type            empty;
    }
}

// ************************************************************************* //
