/*--------------------------------*- C++ -*----------------------------------*\
|       ______          _   __           ______                               |
|      / ____/  ___    / | / /          / ____/  ____   ____ _   ____ ___     |
|     / / __   / _ \  /  |/ /  ______  / /_     / __ \ / __ `/  / __ `__ \    |
|    / /_/ /  /  __/ / /|  /  /_____/ / __/    / /_/ // /_/ /  / / / / / /    |
|    \____/   \___/ /_/ |_/          /_/       \____/ \__,_/  /_/ /_/ /_/     |
|    Copyright (C) 2015 - 2022 EPFL                                           |
\*---------------------------------------------------------------------------*/
FoamFile
{
    version     2.0;
    format      ascii;
    class       volScalarField;
    object      k;
}
// * * * * * * * * * * * * * * * * * * * * * * * * * * * * * * * * * * * * * //

dimensions      [0 2 -2 0 0 0 0];

internalField   nonuniform List<scalar> 
640
(
0.0040158
0.00401015
0.00400451
0.00399888
0.00399327
0.00398767
0.00398208
0.0039765
0.00397093
0.00396537
0.00395983
0.0039543
0.00394878
0.00394327
0.00393777
0.00393229
0.00392681
0.00392135
0.0039159
0.00391046
0.00390504
0.00389962
0.00389422
0.00388882
0.00388344
0.00387807
0.00387271
0.00386736
0.00386203
0.0038567
0.00385139
0.00384608
0.00384079
0.00383551
0.00383024
0.00382498
0.00381974
0.0038145
0.00380927
0.00380406
0.00379885
0.00379366
0.00378848
0.00378331
0.00377815
0.003773
0.00376786
0.00376273
0.00375761
0.0037525
0.0037474
0.00374232
0.00373724
0.00373218
0.00372712
0.00372208
0.00371704
0.00371202
0.003707
0.003702
0.00369701
0.00369202
0.00368705
0.00368209
0.00367714
0.00367219
0.00366726
0.00366234
0.00365743
0.00365252
0.00364763
0.00364275
0.00363788
0.00363301
0.00362816
0.00362332
0.00361849
0.00361366
0.00360885
0.00360404
0.00359925
0.00359446
0.00358969
0.00358492
0.00358017
0.00357542
0.00357068
0.00356596
0.00356124
0.00355653
0.00355183
0.00354714
0.00354246
0.00353779
0.00353312
0.00352847
0.00352383
0.00351919
0.00351457
0.00350995
0.00350534
0.00350074
0.00349615
0.00349157
0.003487
0.00348244
0.00347789
0.00347334
0.00346881
0.00346428
0.00345976
0.00345525
0.00345075
0.00344626
0.00344178
0.0034373
0.00343284
0.00342838
0.00342393
0.00341949
0.00341506
0.00341064
0.00340622
0.00340181
0.00339742
0.00339303
0.00338865
0.00338427
0.00337991
0.00337556
0.00337121
0.00336687
0.00336254
0.00335822
0.0033539
0.0033496
0.0033453
0.00334101
0.00333673
0.00333245
0.00332819
0.00332393
0.00331968
0.00331544
0.0033112
0.00330698
0.00330276
0.00329855
0.00329435
0.00329016
0.00328597
0.00328179
0.00327762
0.00327346
0.0032693
0.00326516
0.00326102
0.00325689
0.00325276
0.00324865
0.00324454
0.00324044
0.00323634
0.00323226
0.00322818
0.00322411
0.00322005
0.00321599
0.00321194
0.0032079
0.00320387
0.00319984
0.00319583
0.00319182
0.00318781
0.00318382
0.00317983
0.00317585
0.00317187
0.00316791
0.00316395
0.00315999
0.00315605
0.00315211
0.00314818
0.00314426
0.00314034
0.00313643
0.00313253
0.00312864
0.00312475
0.00312087
0.00311699
0.00311313
0.00310927
0.00310542
0.00310157
0.00309773
0.0030939
0.00309008
0.00308626
0.00308245
0.00307865
0.00307485
0.00307106
0.00306728
0.0030635
0.00305973
0.00305597
0.00305221
0.00304846
0.00304472
0.00304099
0.00303726
0.00303353
0.00302982
0.00302611
0.00302241
0.00301871
0.00301502
0.00301134
0.00300767
0.003004
0.00300034
0.00299668
0.00299303
0.00298939
0.00298575
0.00298212
0.0029785
0.00297488
0.00297127
0.00296767
0.00296407
0.00296048
0.00295689
0.00295332
0.00294974
0.00294618
0.00294262
0.00293907
0.00293552
0.00293198
0.00292844
0.00292492
0.00292139
0.00291788
0.00291437
0.00291087
0.00290737
0.00290388
0.00290039
0.00289692
0.00289344
0.00288998
0.00288652
0.00288306
0.00287962
0.00287617
0.00287274
0.00286931
0.00286588
0.00286247
0.00285905
0.00285565
0.00285225
0.00284885
0.00284547
0.00284208
0.00283871
0.00283534
0.00283197
0.00282861
0.00282526
0.00282191
0.00281857
0.00281524
0.00281191
0.00280858
0.00280527
0.00280195
0.00279865
0.00279534
0.00279205
0.00278876
0.00278548
0.0027822
0.00277892
0.00277566
0.0027724
0.00276914
0.00276589
0.00276265
0.00275941
0.00275617
0.00275294
0.00274972
0.0027465
0.00274329
0.00274009
0.00273689
0.00273369
0.0027305
0.00272732
0.00272414
0.00272097
0.0027178
0.00271463
0.00271148
0.00270833
0.00270518
0.00270204
0.0026989
0.00269577
0.00269264
0.00268952
0.00268641
0.0026833
0.0026802
0.0026771
0.002674
0.00267091
0.00266783
0.00266475
0.00266168
0.00265861
0.00265555
0.00265249
0.00264944
0.00264639
0.00264335
0.00264031
0.00263728
0.00263425
0.00263123
0.00262821
0.0026252
0.00262219
0.00261919
0.00261619
0.0026132
0.00261021
0.00260723
0.00260425
0.00260128
0.00259831
0.00259535
0.00259239
0.00258943
0.00258649
0.00258354
0.0025806
0.00257767
0.00257474
0.00257182
0.0025689
0.00256598
0.00256307
0.00256017
0.00255727
0.00255437
0.00255148
0.00254859
0.00254571
0.00254284
0.00253996
0.0025371
0.00253423
0.00253137
0.00252852
0.00252567
0.00252283
0.00251999
0.00251715
0.00251432
0.00251149
0.00250867
0.00250586
0.00250304
0.00250024
0.00249743
0.00249463
0.00249184
0.00248905
0.00248626
0.00248348
0.0024807
0.00247793
0.00247516
0.0024724
0.00246964
0.00246689
0.00246414
0.00246139
0.00245865
0.00245591
0.00245318
0.00245045
0.00244773
0.00244501
0.00244229
0.00243958
0.00243687
0.00243417
0.00243147
0.00242878
0.00242609
0.0024234
0.00242072
0.00241804
0.00241537
0.0024127
0.00241003
0.00240737
0.00240472
0.00240206
0.00239942
0.00239677
0.00239413
0.0023915
0.00238886
0.00238624
0.00238361
0.00238099
0.00237838
0.00237577
0.00237316
0.00237055
0.00236796
0.00236536
0.00236277
0.00236018
0.0023576
0.00235502
0.00235244
0.00234987
0.0023473
0.00234474
0.00234218
0.00233962
0.00233707
0.00233452
0.00233198
0.00232944
0.0023269
0.00232437
0.00232184
0.00231932
0.0023168
0.00231428
0.00231177
0.00230926
0.00230675
0.00230425
0.00230175
0.00229926
0.00229677
0.00229428
0.0022918
0.00228932
0.00228684
0.00228437
0.0022819
0.00227943
0.00227695
0.00227443
0.00227175
0.00226856
0.00226361
0.0022527
0.00222153
0.0021203
0.00175977
0.00177144
0.00180533
0.00183865
0.0018714
0.0019036
0.00193524
0.00196635
0.00199693
0.00202699
0.00205654
0.00208558
0.00211413
0.0021422
0.00216979
0.00219691
0.00222357
0.00224978
0.00227554
0.00230086
0.00232576
0.00235023
0.00237429
0.00239794
0.00242118
0.00244404
0.0024665
0.00248859
0.0025103
0.00253164
0.00255263
0.00257325
0.00259353
0.00261346
0.00263305
0.00265232
0.00267125
0.00268987
0.00270817
0.00272616
0.00274385
0.00276124
0.00277833
0.00279513
0.00281165
0.00282789
0.00284386
0.00285955
0.00287498
0.00289015
0.00290506
0.00291972
0.00293414
0.0029483
0.00296223
0.00297593
0.00298939
0.00300262
0.00301563
0.00302843
0.003041
0.00305336
0.00306552
0.00307747
0.00308921
0.00310076
0.00311211
0.00312328
0.00313425
0.00314504
0.00315564
0.00316607
0.00317632
0.0031864
0.00319631
0.00320605
0.00321563
0.00322505
0.00323434
0.00324366
0.00325396
0.00327092
0.00332845
0.00362265
0.00453693
0.00453015
0.00452338
0.00451662
0.00450988
0.00450315
0.00449644
0.00448974
0.00448306
0.0044764
0.00446974
0.00446311
0.00445648
0.00444988
0.00444328
0.0044367
0.00443014
0.00442359
0.00441706
0.00441053
0.00440403
0.00439754
0.00439106
0.0043846
0.00437815
0.00437171
0.00436529
0.00435888
0.00435249
0.00434611
0.00433975
0.0043334
0.00432706
0.00432074
0.00431443
0.00430813
0.00430185
0.00429558
0.00428933
0.00428309
0.00427686
0.00427065
0.00426445
0.00425826
0.00425209
0.00424593
0.00423978
0.00423365
0.00422753
0.00422142
0.00421533
0.00420925
0.00420318
0.00419713
0.00419109
0.00418506
0.00417905
0.00417305
0.00416706
0.00416108
0.00415512
0.00414917
0.00414323
0.00413731
0.0041314
0.0041255
0.00411961
0.00411374
0.00410788
0.00410203
0.0040962
0.00409037
0.00408456
0.00407876
0.00407298
0.00406721
0.00406144
0.0040557
0.00404996
0.00404424
0.00403852
0.00403283
0.00402714
0.00402146
)
;

boundaryField
{
    top
    {
        type            cyclic;
    }
    bottom
    {
        type            cyclic;
    }
    walls
    {
        type            kqRWallFunction;
        value           nonuniform List<scalar> 
1280
(
0.0040158
0.00401015
0.00400451
0.00399888
0.00399327
0.00398767
0.00398208
0.0039765
0.00397093
0.00396537
0.00395983
0.0039543
0.00394878
0.00394327
0.00393777
0.00393229
0.00392681
0.00392135
0.0039159
0.00391046
0.00390504
0.00389962
0.00389422
0.00388882
0.00388344
0.00387807
0.00387271
0.00386736
0.00386203
0.0038567
0.00385139
0.00384608
0.00384079
0.00383551
0.00383024
0.00382498
0.00381974
0.0038145
0.00380927
0.00380406
0.00379885
0.00379366
0.00378848
0.00378331
0.00377815
0.003773
0.00376786
0.00376273
0.00375761
0.0037525
0.0037474
0.00374232
0.00373724
0.00373218
0.00372712
0.00372208
0.00371704
0.00371202
0.003707
0.003702
0.00369701
0.00369202
0.00368705
0.00368209
0.00367714
0.00367219
0.00366726
0.00366234
0.00365743
0.00365252
0.00364763
0.00364275
0.00363788
0.00363301
0.00362816
0.00362332
0.00361849
0.00361366
0.00360885
0.00360404
0.00359925
0.00359446
0.00358969
0.00358492
0.00358017
0.00357542
0.00357068
0.00356596
0.00356124
0.00355653
0.00355183
0.00354714
0.00354246
0.00353779
0.00353312
0.00352847
0.00352383
0.00351919
0.00351457
0.00350995
0.00350534
0.00350074
0.00349615
0.00349157
0.003487
0.00348244
0.00347789
0.00347334
0.00346881
0.00346428
0.00345976
0.00345525
0.00345075
0.00344626
0.00344178
0.0034373
0.00343284
0.00342838
0.00342393
0.00341949
0.00341506
0.00341064
0.00340622
0.00340181
0.00339742
0.00339303
0.00338865
0.00338427
0.00337991
0.00337556
0.00337121
0.00336687
0.00336254
0.00335822
0.0033539
0.0033496
0.0033453
0.00334101
0.00333673
0.00333245
0.00332819
0.00332393
0.00331968
0.00331544
0.0033112
0.00330698
0.00330276
0.00329855
0.00329435
0.00329016
0.00328597
0.00328179
0.00327762
0.00327346
0.0032693
0.00326516
0.00326102
0.00325689
0.00325276
0.00324865
0.00324454
0.00324044
0.00323634
0.00323226
0.00322818
0.00322411
0.00322005
0.00321599
0.00321194
0.0032079
0.00320387
0.00319984
0.00319583
0.00319182
0.00318781
0.00318382
0.00317983
0.00317585
0.00317187
0.00316791
0.00316395
0.00315999
0.00315605
0.00315211
0.00314818
0.00314426
0.00314034
0.00313643
0.00313253
0.00312864
0.00312475
0.00312087
0.00311699
0.00311313
0.00310927
0.00310542
0.00310157
0.00309773
0.0030939
0.00309008
0.00308626
0.00308245
0.00307865
0.00307485
0.00307106
0.00306728
0.0030635
0.00305973
0.00305597
0.00305221
0.00304846
0.00304472
0.00304099
0.00303726
0.00303353
0.00302982
0.00302611
0.00302241
0.00301871
0.00301502
0.00301134
0.00300767
0.003004
0.00300034
0.00299668
0.00299303
0.00298939
0.00298575
0.00298212
0.0029785
0.00297488
0.00297127
0.00296767
0.00296407
0.00296048
0.00295689
0.00295332
0.00294974
0.00294618
0.00294262
0.00293907
0.00293552
0.00293198
0.00292844
0.00292492
0.00292139
0.00291788
0.00291437
0.00291087
0.00290737
0.00290388
0.00290039
0.00289692
0.00289344
0.00288998
0.00288652
0.00288306
0.00287962
0.00287617
0.00287274
0.00286931
0.00286588
0.00286247
0.00285905
0.00285565
0.00285225
0.00284885
0.00284547
0.00284208
0.00283871
0.00283534
0.00283197
0.00282861
0.00282526
0.00282191
0.00281857
0.00281524
0.00281191
0.00280858
0.00280527
0.00280195
0.00279865
0.00279534
0.00279205
0.00278876
0.00278548
0.0027822
0.00277892
0.00277566
0.0027724
0.00276914
0.00276589
0.00276265
0.00275941
0.00275617
0.00275294
0.00274972
0.0027465
0.00274329
0.00274009
0.00273689
0.00273369
0.0027305
0.00272732
0.00272414
0.00272097
0.0027178
0.00271463
0.00271148
0.00270833
0.00270518
0.00270204
0.0026989
0.00269577
0.00269264
0.00268952
0.00268641
0.0026833
0.0026802
0.0026771
0.002674
0.00267091
0.00266783
0.00266475
0.00266168
0.00265861
0.00265555
0.00265249
0.00264944
0.00264639
0.00264335
0.00264031
0.00263728
0.00263425
0.00263123
0.00262821
0.0026252
0.00262219
0.00261919
0.00261619
0.0026132
0.00261021
0.00260723
0.00260425
0.00260128
0.00259831
0.00259535
0.00259239
0.00258943
0.00258649
0.00258354
0.0025806
0.00257767
0.00257474
0.00257182
0.0025689
0.00256598
0.00256307
0.00256017
0.00255727
0.00255437
0.00255148
0.00254859
0.00254571
0.00254284
0.00253996
0.0025371
0.00253423
0.00253137
0.00252852
0.00252567
0.00252283
0.00251999
0.00251715
0.00251432
0.00251149
0.00250867
0.00250586
0.00250304
0.00250024
0.00249743
0.00249463
0.00249184
0.00248905
0.00248626
0.00248348
0.0024807
0.00247793
0.00247516
0.0024724
0.00246964
0.00246689
0.00246414
0.00246139
0.00245865
0.00245591
0.00245318
0.00245045
0.00244773
0.00244501
0.00244229
0.00243958
0.00243687
0.00243417
0.00243147
0.00242878
0.00242609
0.0024234
0.00242072
0.00241804
0.00241537
0.0024127
0.00241003
0.00240737
0.00240472
0.00240206
0.00239942
0.00239677
0.00239413
0.0023915
0.00238886
0.00238624
0.00238361
0.00238099
0.00237838
0.00237577
0.00237316
0.00237055
0.00236796
0.00236536
0.00236277
0.00236018
0.0023576
0.00235502
0.00235244
0.00234987
0.0023473
0.00234474
0.00234218
0.00233962
0.00233707
0.00233452
0.00233198
0.00232944
0.0023269
0.00232437
0.00232184
0.00231932
0.0023168
0.00231428
0.00231177
0.00230926
0.00230675
0.00230425
0.00230175
0.00229926
0.00229677
0.00229428
0.0022918
0.00228932
0.00228684
0.00228437
0.0022819
0.00227943
0.00227695
0.00227443
0.00227175
0.00226856
0.00226361
0.0022527
0.00222153
0.0021203
0.00175977
0.00177144
0.00180533
0.00183865
0.0018714
0.0019036
0.00193524
0.00196635
0.00199693
0.00202699
0.00205654
0.00208558
0.00211413
0.0021422
0.00216979
0.00219691
0.00222357
0.00224978
0.00227554
0.00230086
0.00232576
0.00235023
0.00237429
0.00239794
0.00242118
0.00244404
0.0024665
0.00248859
0.0025103
0.00253164
0.00255263
0.00257325
0.00259353
0.00261346
0.00263305
0.00265232
0.00267125
0.00268987
0.00270817
0.00272616
0.00274385
0.00276124
0.00277833
0.00279513
0.00281165
0.00282789
0.00284386
0.00285955
0.00287498
0.00289015
0.00290506
0.00291972
0.00293414
0.0029483
0.00296223
0.00297593
0.00298939
0.00300262
0.00301563
0.00302843
0.003041
0.00305336
0.00306552
0.00307747
0.00308921
0.00310076
0.00311211
0.00312328
0.00313425
0.00314504
0.00315564
0.00316607
0.00317632
0.0031864
0.00319631
0.00320605
0.00321563
0.00322505
0.00323434
0.00324366
0.00325396
0.00327092
0.00332845
0.00362265
0.00453693
0.00453015
0.00452338
0.00451662
0.00450988
0.00450315
0.00449644
0.00448974
0.00448306
0.0044764
0.00446974
0.00446311
0.00445648
0.00444988
0.00444328
0.0044367
0.00443014
0.00442359
0.00441706
0.00441053
0.00440403
0.00439754
0.00439106
0.0043846
0.00437815
0.00437171
0.00436529
0.00435888
0.00435249
0.00434611
0.00433975
0.0043334
0.00432706
0.00432074
0.00431443
0.00430813
0.00430185
0.00429558
0.00428933
0.00428309
0.00427686
0.00427065
0.00426445
0.00425826
0.00425209
0.00424593
0.00423978
0.00423365
0.00422753
0.00422142
0.00421533
0.00420925
0.00420318
0.00419713
0.00419109
0.00418506
0.00417905
0.00417305
0.00416706
0.00416108
0.00415512
0.00414917
0.00414323
0.00413731
0.0041314
0.0041255
0.00411961
0.00411374
0.00410788
0.00410203
0.0040962
0.00409037
0.00408456
0.00407876
0.00407298
0.00406721
0.00406144
0.0040557
0.00404996
0.00404424
0.00403852
0.00403283
0.00402714
0.00402146
0.0040158
0.00401015
0.00400451
0.00399888
0.00399327
0.00398767
0.00398208
0.0039765
0.00397093
0.00396537
0.00395983
0.0039543
0.00394878
0.00394327
0.00393777
0.00393229
0.00392681
0.00392135
0.0039159
0.00391046
0.00390504
0.00389962
0.00389422
0.00388882
0.00388344
0.00387807
0.00387271
0.00386736
0.00386203
0.0038567
0.00385139
0.00384608
0.00384079
0.00383551
0.00383024
0.00382498
0.00381974
0.0038145
0.00380927
0.00380406
0.00379885
0.00379366
0.00378848
0.00378331
0.00377815
0.003773
0.00376786
0.00376273
0.00375761
0.0037525
0.0037474
0.00374232
0.00373724
0.00373218
0.00372712
0.00372208
0.00371704
0.00371202
0.003707
0.003702
0.00369701
0.00369202
0.00368705
0.00368209
0.00367714
0.00367219
0.00366726
0.00366234
0.00365743
0.00365252
0.00364763
0.00364275
0.00363788
0.00363301
0.00362816
0.00362332
0.00361849
0.00361366
0.00360885
0.00360404
0.00359925
0.00359446
0.00358969
0.00358492
0.00358017
0.00357542
0.00357068
0.00356596
0.00356124
0.00355653
0.00355183
0.00354714
0.00354246
0.00353779
0.00353312
0.00352847
0.00352383
0.00351919
0.00351457
0.00350995
0.00350534
0.00350074
0.00349615
0.00349157
0.003487
0.00348244
0.00347789
0.00347334
0.00346881
0.00346428
0.00345976
0.00345525
0.00345075
0.00344626
0.00344178
0.0034373
0.00343284
0.00342838
0.00342393
0.00341949
0.00341506
0.00341064
0.00340622
0.00340181
0.00339742
0.00339303
0.00338865
0.00338427
0.00337991
0.00337556
0.00337121
0.00336687
0.00336254
0.00335822
0.0033539
0.0033496
0.0033453
0.00334101
0.00333673
0.00333245
0.00332819
0.00332393
0.00331968
0.00331544
0.0033112
0.00330698
0.00330276
0.00329855
0.00329435
0.00329016
0.00328597
0.00328179
0.00327762
0.00327346
0.0032693
0.00326516
0.00326102
0.00325689
0.00325276
0.00324865
0.00324454
0.00324044
0.00323634
0.00323226
0.00322818
0.00322411
0.00322005
0.00321599
0.00321194
0.0032079
0.00320387
0.00319984
0.00319583
0.00319182
0.00318781
0.00318382
0.00317983
0.00317585
0.00317187
0.00316791
0.00316395
0.00315999
0.00315605
0.00315211
0.00314818
0.00314426
0.00314034
0.00313643
0.00313253
0.00312864
0.00312475
0.00312087
0.00311699
0.00311313
0.00310927
0.00310542
0.00310157
0.00309773
0.0030939
0.00309008
0.00308626
0.00308245
0.00307865
0.00307485
0.00307106
0.00306728
0.0030635
0.00305973
0.00305597
0.00305221
0.00304846
0.00304472
0.00304099
0.00303726
0.00303353
0.00302982
0.00302611
0.00302241
0.00301871
0.00301502
0.00301134
0.00300767
0.003004
0.00300034
0.00299668
0.00299303
0.00298939
0.00298575
0.00298212
0.0029785
0.00297488
0.00297127
0.00296767
0.00296407
0.00296048
0.00295689
0.00295332
0.00294974
0.00294618
0.00294262
0.00293907
0.00293552
0.00293198
0.00292844
0.00292492
0.00292139
0.00291788
0.00291437
0.00291087
0.00290737
0.00290388
0.00290039
0.00289692
0.00289344
0.00288998
0.00288652
0.00288306
0.00287962
0.00287617
0.00287274
0.00286931
0.00286588
0.00286247
0.00285905
0.00285565
0.00285225
0.00284885
0.00284547
0.00284208
0.00283871
0.00283534
0.00283197
0.00282861
0.00282526
0.00282191
0.00281857
0.00281524
0.00281191
0.00280858
0.00280527
0.00280195
0.00279865
0.00279534
0.00279205
0.00278876
0.00278548
0.0027822
0.00277892
0.00277566
0.0027724
0.00276914
0.00276589
0.00276265
0.00275941
0.00275617
0.00275294
0.00274972
0.0027465
0.00274329
0.00274009
0.00273689
0.00273369
0.0027305
0.00272732
0.00272414
0.00272097
0.0027178
0.00271463
0.00271148
0.00270833
0.00270518
0.00270204
0.0026989
0.00269577
0.00269264
0.00268952
0.00268641
0.0026833
0.0026802
0.0026771
0.002674
0.00267091
0.00266783
0.00266475
0.00266168
0.00265861
0.00265555
0.00265249
0.00264944
0.00264639
0.00264335
0.00264031
0.00263728
0.00263425
0.00263123
0.00262821
0.0026252
0.00262219
0.00261919
0.00261619
0.0026132
0.00261021
0.00260723
0.00260425
0.00260128
0.00259831
0.00259535
0.00259239
0.00258943
0.00258649
0.00258354
0.0025806
0.00257767
0.00257474
0.00257182
0.0025689
0.00256598
0.00256307
0.00256017
0.00255727
0.00255437
0.00255148
0.00254859
0.00254571
0.00254284
0.00253996
0.0025371
0.00253423
0.00253137
0.00252852
0.00252567
0.00252283
0.00251999
0.00251715
0.00251432
0.00251149
0.00250867
0.00250586
0.00250304
0.00250024
0.00249743
0.00249463
0.00249184
0.00248905
0.00248626
0.00248348
0.0024807
0.00247793
0.00247516
0.0024724
0.00246964
0.00246689
0.00246414
0.00246139
0.00245865
0.00245591
0.00245318
0.00245045
0.00244773
0.00244501
0.00244229
0.00243958
0.00243687
0.00243417
0.00243147
0.00242878
0.00242609
0.0024234
0.00242072
0.00241804
0.00241537
0.0024127
0.00241003
0.00240737
0.00240472
0.00240206
0.00239942
0.00239677
0.00239413
0.0023915
0.00238886
0.00238624
0.00238361
0.00238099
0.00237838
0.00237577
0.00237316
0.00237055
0.00236796
0.00236536
0.00236277
0.00236018
0.0023576
0.00235502
0.00235244
0.00234987
0.0023473
0.00234474
0.00234218
0.00233962
0.00233707
0.00233452
0.00233198
0.00232944
0.0023269
0.00232437
0.00232184
0.00231932
0.0023168
0.00231428
0.00231177
0.00230926
0.00230675
0.00230425
0.00230175
0.00229926
0.00229677
0.00229428
0.0022918
0.00228932
0.00228684
0.00228437
0.0022819
0.00227943
0.00227695
0.00227443
0.00227175
0.00226856
0.00226361
0.0022527
0.00222153
0.0021203
0.00175977
0.00177144
0.00180533
0.00183865
0.0018714
0.0019036
0.00193524
0.00196635
0.00199693
0.00202699
0.00205654
0.00208558
0.00211413
0.0021422
0.00216979
0.00219691
0.00222357
0.00224978
0.00227554
0.00230086
0.00232576
0.00235023
0.00237429
0.00239794
0.00242118
0.00244404
0.0024665
0.00248859
0.0025103
0.00253164
0.00255263
0.00257325
0.00259353
0.00261346
0.00263305
0.00265232
0.00267125
0.00268987
0.00270817
0.00272616
0.00274385
0.00276124
0.00277833
0.00279513
0.00281165
0.00282789
0.00284386
0.00285955
0.00287498
0.00289015
0.00290506
0.00291972
0.00293414
0.0029483
0.00296223
0.00297593
0.00298939
0.00300262
0.00301563
0.00302843
0.003041
0.00305336
0.00306552
0.00307747
0.00308921
0.00310076
0.00311211
0.00312328
0.00313425
0.00314504
0.00315564
0.00316607
0.00317632
0.0031864
0.00319631
0.00320605
0.00321563
0.00322505
0.00323434
0.00324366
0.00325396
0.00327092
0.00332845
0.00362265
0.00453693
0.00453015
0.00452338
0.00451662
0.00450988
0.00450315
0.00449644
0.00448974
0.00448306
0.0044764
0.00446974
0.00446311
0.00445648
0.00444988
0.00444328
0.0044367
0.00443014
0.00442359
0.00441706
0.00441053
0.00440403
0.00439754
0.00439106
0.0043846
0.00437815
0.00437171
0.00436529
0.00435888
0.00435249
0.00434611
0.00433975
0.0043334
0.00432706
0.00432074
0.00431443
0.00430813
0.00430185
0.00429558
0.00428933
0.00428309
0.00427686
0.00427065
0.00426445
0.00425826
0.00425209
0.00424593
0.00423978
0.00423365
0.00422753
0.00422142
0.00421533
0.00420925
0.00420318
0.00419713
0.00419109
0.00418506
0.00417905
0.00417305
0.00416706
0.00416108
0.00415512
0.00414917
0.00414323
0.00413731
0.0041314
0.0041255
0.00411961
0.00411374
0.00410788
0.00410203
0.0040962
0.00409037
0.00408456
0.00407876
0.00407298
0.00406721
0.00406144
0.0040557
0.00404996
0.00404424
0.00403852
0.00403283
0.00402714
0.00402146
)
;
    }
    defaultFaces
    {
        type            empty;
    }
}

// ************************************************************************* //
