/*--------------------------------*- C++ -*----------------------------------*\
|       ______          _   __           ______                               |
|      / ____/  ___    / | / /          / ____/  ____   ____ _   ____ ___     |
|     / / __   / _ \  /  |/ /  ______  / /_     / __ \ / __ `/  / __ `__ \    |
|    / /_/ /  /  __/ / /|  /  /_____/ / __/    / /_/ // /_/ /  / / / / / /    |
|    \____/   \___/ /_/ |_/          /_/       \____/ \__,_/  /_/ /_/ /_/     |
|    Copyright (C) 2015 - 2022 EPFL                                           |
\*---------------------------------------------------------------------------*/
FoamFile
{
    version     2.0;
    format      ascii;
    class       volScalarField;
    object      nut;
}
// * * * * * * * * * * * * * * * * * * * * * * * * * * * * * * * * * * * * * //

dimensions      [0 2 -1 0 0 0 0];

internalField   nonuniform List<scalar> 
640
(
0.00323141
0.00322914
0.00322687
0.0032246
0.00322233
0.00322007
0.00321781
0.00321556
0.00321331
0.00321106
0.00320881
0.00320657
0.00320433
0.0032021
0.00319986
0.00319763
0.00319541
0.00319319
0.00319097
0.00318875
0.00318653
0.00318432
0.00318212
0.00317991
0.00317771
0.00317551
0.00317332
0.00317113
0.00316894
0.00316675
0.00316457
0.00316239
0.00316021
0.00315804
0.00315587
0.0031537
0.00315154
0.00314938
0.00314722
0.00314507
0.00314291
0.00314076
0.00313862
0.00313648
0.00313434
0.0031322
0.00313006
0.00312793
0.00312581
0.00312368
0.00312156
0.00311944
0.00311732
0.00311521
0.0031131
0.00311099
0.00310889
0.00310678
0.00310469
0.00310259
0.0031005
0.00309841
0.00309632
0.00309423
0.00309215
0.00309007
0.003088
0.00308593
0.00308386
0.00308179
0.00307972
0.00307766
0.0030756
0.00307355
0.00307149
0.00306944
0.00306739
0.00306535
0.00306331
0.00306127
0.00305923
0.0030572
0.00305516
0.00305314
0.00305111
0.00304909
0.00304707
0.00304505
0.00304303
0.00304102
0.00303901
0.003037
0.003035
0.003033
0.003031
0.003029
0.00302701
0.00302502
0.00302303
0.00302104
0.00301906
0.00301708
0.0030151
0.00301312
0.00301115
0.00300918
0.00300721
0.00300525
0.00300328
0.00300132
0.00299936
0.00299741
0.00299546
0.00299351
0.00299156
0.00298961
0.00298767
0.00298573
0.00298379
0.00298186
0.00297992
0.00297799
0.00297607
0.00297414
0.00297222
0.0029703
0.00296838
0.00296646
0.00296455
0.00296264
0.00296073
0.00295882
0.00295692
0.00295502
0.00295312
0.00295122
0.00294933
0.00294744
0.00294555
0.00294366
0.00294178
0.0029399
0.00293802
0.00293614
0.00293426
0.00293239
0.00293052
0.00292865
0.00292679
0.00292492
0.00292306
0.0029212
0.00291935
0.00291749
0.00291564
0.00291379
0.00291194
0.0029101
0.00290825
0.00290641
0.00290458
0.00290274
0.0029009
0.00289907
0.00289724
0.00289542
0.00289359
0.00289177
0.00288995
0.00288813
0.00288631
0.0028845
0.00288269
0.00288088
0.00287907
0.00287727
0.00287546
0.00287366
0.00287186
0.00287007
0.00286827
0.00286648
0.00286469
0.00286291
0.00286112
0.00285934
0.00285756
0.00285578
0.002854
0.00285222
0.00285045
0.00284868
0.00284691
0.00284515
0.00284338
0.00284162
0.00283986
0.0028381
0.00283635
0.00283459
0.00283284
0.00283109
0.00282935
0.0028276
0.00282586
0.00282412
0.00282238
0.00282064
0.00281891
0.00281717
0.00281544
0.00281371
0.00281199
0.00281026
0.00280854
0.00280682
0.0028051
0.00280339
0.00280167
0.00279996
0.00279825
0.00279654
0.00279483
0.00279313
0.00279143
0.00278973
0.00278803
0.00278633
0.00278464
0.00278295
0.00278126
0.00277957
0.00277788
0.0027762
0.00277452
0.00277284
0.00277116
0.00276948
0.00276781
0.00276613
0.00276446
0.00276279
0.00276113
0.00275946
0.0027578
0.00275614
0.00275448
0.00275282
0.00275117
0.00274952
0.00274787
0.00274622
0.00274457
0.00274292
0.00274128
0.00273964
0.002738
0.00273636
0.00273473
0.00273309
0.00273146
0.00272983
0.0027282
0.00272657
0.00272495
0.00272333
0.00272171
0.00272009
0.00271847
0.00271686
0.00271524
0.00271363
0.00271202
0.00271041
0.00270881
0.0027072
0.0027056
0.002704
0.0027024
0.0027008
0.00269921
0.00269762
0.00269602
0.00269444
0.00269285
0.00269126
0.00268968
0.00268809
0.00268651
0.00268494
0.00268336
0.00268178
0.00268021
0.00267864
0.00267707
0.0026755
0.00267393
0.00267237
0.00267081
0.00266924
0.00266769
0.00266613
0.00266457
0.00266302
0.00266147
0.00265991
0.00265837
0.00265682
0.00265527
0.00265373
0.00265219
0.00265065
0.00264911
0.00264757
0.00264604
0.0026445
0.00264297
0.00264144
0.00263991
0.00263838
0.00263686
0.00263534
0.00263381
0.00263229
0.00263078
0.00262926
0.00262774
0.00262623
0.00262472
0.00262321
0.0026217
0.00262019
0.00261869
0.00261719
0.00261568
0.00261418
0.00261268
0.00261119
0.00260969
0.0026082
0.00260671
0.00260522
0.00260373
0.00260224
0.00260075
0.00259927
0.00259779
0.00259631
0.00259483
0.00259335
0.00259187
0.0025904
0.00258893
0.00258746
0.00258599
0.00258452
0.00258305
0.00258159
0.00258012
0.00257866
0.0025772
0.00257574
0.00257428
0.00257283
0.00257137
0.00256992
0.00256847
0.00256702
0.00256557
0.00256413
0.00256268
0.00256124
0.0025598
0.00255836
0.00255692
0.00255548
0.00255404
0.00255261
0.00255118
0.00254974
0.00254831
0.00254689
0.00254546
0.00254403
0.00254261
0.00254119
0.00253977
0.00253835
0.00253693
0.00253551
0.0025341
0.00253268
0.00253127
0.00252986
0.00252845
0.00252704
0.00252564
0.00252423
0.00252283
0.00252143
0.00252003
0.00251863
0.00251723
0.00251583
0.00251444
0.00251304
0.00251165
0.00251026
0.00250887
0.00250748
0.0025061
0.00250471
0.00250333
0.00250195
0.00250056
0.00249919
0.00249781
0.00249643
0.00249506
0.00249368
0.00249231
0.00249094
0.00248957
0.0024882
0.00248683
0.00248547
0.0024841
0.00248274
0.00248138
0.00248002
0.00247866
0.0024773
0.00247595
0.00247459
0.00247324
0.00247188
0.00247053
0.00246918
0.00246784
0.00246649
0.00246514
0.0024638
0.00246246
0.00246111
0.00245977
0.00245844
0.0024571
0.00245576
0.00245443
0.00245309
0.00245176
0.00245043
0.0024491
0.00244777
0.00244644
0.00244512
0.00244379
0.00244247
0.00244115
0.00243983
0.00243851
0.00243719
0.00243587
0.00243455
0.00243323
0.00243188
0.00243045
0.00242874
0.00242609
0.00242023
0.00240343
0.00234804
0.00213912
0.0021462
0.00216663
0.00218653
0.00220592
0.00222481
0.00224323
0.00226119
0.0022787
0.00229579
0.00231246
0.00232873
0.00234462
0.00236013
0.00237528
0.00239008
0.00240454
0.00241867
0.00243247
0.00244597
0.00245917
0.00247207
0.00248469
0.00249704
0.00250911
0.00252093
0.00253249
0.0025438
0.00255487
0.00256571
0.00257632
0.00258671
0.00259688
0.00260684
0.00261659
0.00262615
0.0026355
0.00264467
0.00265365
0.00266245
0.00267108
0.00267953
0.00268781
0.00269592
0.00270388
0.00271167
0.00271932
0.00272681
0.00273416
0.00274136
0.00274843
0.00275535
0.00276214
0.0027688
0.00277534
0.00278174
0.00278803
0.00279419
0.00280024
0.00280617
0.00281199
0.0028177
0.00282331
0.0028288
0.0028342
0.00283949
0.00284468
0.00284978
0.00285478
0.00285969
0.00286451
0.00286924
0.00287388
0.00287843
0.00288291
0.0028873
0.0028916
0.00289584
0.00290001
0.00290418
0.00290879
0.00291636
0.00294189
0.00306916
0.00343469
0.00343212
0.00342955
0.00342699
0.00342443
0.00342188
0.00341933
0.00341678
0.00341424
0.0034117
0.00340916
0.00340663
0.0034041
0.00340158
0.00339905
0.00339654
0.00339402
0.00339151
0.00338901
0.00338651
0.00338401
0.00338151
0.00337902
0.00337653
0.00337405
0.00337157
0.00336909
0.00336662
0.00336415
0.00336168
0.00335922
0.00335676
0.00335431
0.00335185
0.00334941
0.00334696
0.00334452
0.00334208
0.00333965
0.00333722
0.00333479
0.00333237
0.00332995
0.00332753
0.00332512
0.00332271
0.0033203
0.0033179
0.0033155
0.00331311
0.00331072
0.00330833
0.00330594
0.00330356
0.00330118
0.00329881
0.00329644
0.00329407
0.0032917
0.00328934
0.00328699
0.00328463
0.00328228
0.00327993
0.00327759
0.00327525
0.00327291
0.00327058
0.00326825
0.00326592
0.0032636
0.00326128
0.00325896
0.00325665
0.00325433
0.00325203
0.00324972
0.00324742
0.00324513
0.00324283
0.00324054
0.00323825
0.00323597
0.00323369
)
;

boundaryField
{
    top
    {
        type            cyclic;
    }
    bottom
    {
        type            cyclic;
    }
    walls
    {
        type            nutkWallFunction;
        blending        stepwise;
        Cmu             0.09;
        kappa           0.41;
        E               9.8;
        value           nonuniform List<scalar> 
1280
(
0.000309039
0.00030884
0.000308643
0.000308445
0.000308248
0.000308051
0.000307854
0.000307658
0.000307462
0.000307266
0.00030707
0.000306876
0.000306682
0.000306489
0.000306297
0.000306104
0.000305912
0.00030572
0.000305528
0.000305337
0.000305146
0.000304955
0.000304764
0.000304574
0.000304383
0.000304194
0.000304004
0.000303815
0.000303626
0.000303437
0.000303248
0.00030306
0.000302872
0.000302684
0.000302496
0.000302309
0.000302122
0.000301935
0.000301748
0.000301562
0.000301376
0.00030119
0.000301005
0.000300819
0.000300634
0.000300449
0.000300265
0.000300081
0.000299896
0.000299713
0.000299529
0.000299346
0.000299163
0.00029898
0.000298797
0.000298615
0.000298433
0.000298251
0.000298069
0.000297888
0.000297706
0.000297526
0.000297345
0.000297164
0.000296984
0.000296804
0.000296624
0.000296445
0.000296266
0.000296087
0.000295908
0.000295729
0.000295551
0.000295373
0.000295195
0.000295017
0.00029484
0.000294663
0.000294486
0.000294309
0.000294132
0.000293956
0.00029378
0.000293604
0.000293429
0.000293253
0.000293078
0.000292903
0.000292728
0.000292554
0.00029238
0.000292206
0.000292032
0.000291858
0.000291685
0.000291512
0.000291339
0.000291166
0.000290994
0.000290821
0.000290649
0.000290477
0.000290306
0.000290134
0.000289963
0.000289792
0.000289621
0.000289451
0.00028928
0.00028911
0.00028894
0.000288771
0.000288601
0.000288432
0.000288263
0.000288094
0.000287925
0.000287757
0.000287588
0.00028742
0.000287253
0.000287085
0.000286917
0.00028675
0.000286583
0.000286416
0.00028625
0.000286083
0.000285917
0.000285751
0.000285585
0.00028542
0.000285254
0.000285089
0.000284924
0.000284759
0.000284594
0.00028443
0.000284266
0.000284102
0.000283938
0.000283774
0.000283611
0.000283448
0.000283285
0.000283122
0.000282959
0.000282796
0.000282634
0.000282472
0.00028231
0.000282149
0.000281987
0.000281826
0.000281665
0.000281504
0.000281343
0.000281182
0.000281022
0.000280862
0.000280702
0.000280542
0.000280382
0.000280223
0.000280064
0.000279905
0.000279746
0.000279587
0.000279428
0.00027927
0.000279112
0.000278954
0.000278796
0.000278639
0.000278481
0.000278324
0.000278167
0.00027801
0.000277853
0.000277697
0.000277541
0.000277385
0.000277229
0.000277073
0.000276917
0.000276762
0.000276607
0.000276452
0.000276297
0.000276142
0.000275987
0.000275833
0.000275679
0.000275525
0.000275371
0.000275218
0.000275064
0.000274911
0.000274758
0.000274605
0.000274452
0.000274299
0.000274147
0.000273995
0.000273843
0.000273691
0.000273539
0.000273388
0.000273236
0.000273085
0.000272934
0.000272783
0.000272632
0.000272482
0.000272332
0.000272181
0.000272031
0.000271882
0.000271732
0.000271583
0.000271433
0.000271284
0.000271135
0.000270986
0.000270838
0.000270689
0.000270541
0.000270393
0.000270245
0.000270097
0.000269949
0.000269802
0.000269654
0.000269507
0.00026936
0.000269214
0.000269067
0.00026892
0.000268774
0.000268628
0.000268482
0.000268336
0.00026819
0.000268045
0.0002679
0.000267754
0.000267609
0.000267465
0.00026732
0.000267175
0.000267031
0.000266887
0.000266743
0.000266599
0.000266455
0.000266311
0.000266168
0.000266025
0.000265882
0.000265739
0.000265596
0.000265453
0.000265311
0.000265168
0.000265026
0.000264884
0.000264742
0.000264601
0.000264459
0.000264318
0.000264177
0.000264036
0.000263895
0.000263754
0.000263613
0.000263473
0.000263333
0.000263192
0.000263052
0.000262913
0.000262773
0.000262633
0.000262494
0.000262355
0.000262216
0.000262077
0.000261938
0.000261799
0.000261661
0.000261522
0.000261384
0.000261246
0.000261108
0.000260971
0.000260833
0.000260696
0.000260558
0.000260421
0.000260284
0.000260147
0.000260011
0.000259874
0.000259738
0.000259601
0.000259465
0.000259329
0.000259193
0.000259058
0.000258922
0.000258787
0.000258651
0.000258516
0.000258381
0.000258247
0.000258112
0.000257977
0.000257843
0.000257709
0.000257575
0.000257441
0.000257307
0.000257173
0.000257039
0.000256906
0.000256773
0.00025664
0.000256507
0.000256374
0.000256241
0.000256108
0.000255976
0.000255843
0.000255709
0.000255576
0.000255442
0.000255309
0.000255176
0.000255043
0.00025491
0.000254777
0.000254644
0.000254512
0.000254379
0.000254247
0.000254115
0.000253983
0.000253851
0.000253719
0.000253588
0.000253456
0.000253325
0.000253194
0.000253063
0.000252932
0.000252801
0.000252671
0.00025254
0.00025241
0.00025228
0.000252149
0.00025202
0.00025189
0.00025176
0.00025163
0.000251501
0.000251372
0.000251242
0.000251113
0.000250985
0.000250856
0.000250727
0.000250599
0.00025047
0.000250342
0.000250214
0.000250086
0.000249958
0.00024983
0.000249702
0.000249575
0.000249448
0.00024932
0.000249193
0.000249066
0.000248939
0.000248812
0.000248686
0.000248559
0.000248433
0.000248307
0.000248181
0.000248055
0.000247929
0.000247803
0.000247677
0.000247552
0.000247426
0.000247301
0.000247176
0.000247051
0.000246926
0.000246801
0.000246677
0.000246552
0.000246428
0.000246303
0.000246179
0.000246055
0.000245931
0.000245807
0.000245684
0.00024556
0.000245437
0.000245313
0.00024519
0.000245067
0.000244944
0.000244821
0.000244698
0.000244576
0.000244453
0.000244331
0.000244209
0.000244087
0.000243964
0.000243843
0.000243721
0.000243599
0.000243477
0.000243356
0.000243235
0.000243113
0.000242992
0.000242871
0.00024275
0.00024263
0.000242509
0.000242388
0.000242268
0.000242148
0.000242027
0.000241907
0.000241787
0.000241667
0.000241548
0.000241428
0.000241308
0.000241189
0.00024107
0.00024095
0.000240831
0.000240712
0.000240594
0.000240475
0.000240356
0.000240238
0.000240119
0.000240001
0.000239883
0.000239764
0.000239646
0.000239529
0.000239411
0.000239293
0.000239174
0.000239054
0.000238926
0.000238773
0.000238535
0.000238012
0.000236507
0.000231542
0.000212717
0.000213347
0.000215184
0.000216971
0.00021871
0.000220404
0.000222053
0.00022366
0.000225225
0.000226752
0.00022824
0.000229692
0.000231108
0.000232489
0.000233838
0.000235154
0.00023644
0.000237695
0.000238921
0.000240119
0.00024129
0.000242434
0.000243552
0.000244645
0.000245714
0.000246759
0.000247781
0.000248781
0.000249759
0.000250716
0.000251653
0.00025257
0.000253467
0.000254345
0.000255205
0.000256046
0.000256871
0.000257678
0.000258468
0.000259243
0.000260001
0.000260744
0.000261472
0.000262185
0.000262884
0.000263569
0.00026424
0.000264898
0.000265542
0.000266174
0.000266794
0.000267401
0.000267997
0.000268581
0.000269153
0.000269714
0.000270265
0.000270805
0.000271334
0.000271854
0.000272363
0.000272863
0.000273353
0.000273834
0.000274306
0.000274768
0.000275222
0.000275668
0.000276105
0.000276534
0.000276955
0.000277368
0.000277774
0.000278172
0.000278562
0.000278945
0.000279322
0.000279691
0.000280055
0.00028042
0.000280822
0.000281485
0.000283725
0.000294877
0.000326696
0.000326473
0.000326251
0.000326029
0.000325807
0.000325586
0.000325364
0.000325144
0.000324923
0.000324703
0.000324483
0.000324264
0.000324045
0.000323826
0.000323607
0.000323389
0.000323171
0.000322953
0.000322736
0.000322519
0.000322302
0.000322086
0.000321869
0.000321654
0.000321438
0.000321223
0.000321008
0.000320793
0.000320579
0.000320365
0.000320151
0.000319938
0.000319724
0.000319512
0.000319299
0.000319087
0.000318875
0.000318663
0.000318452
0.000318241
0.00031803
0.000317819
0.000317609
0.000317399
0.00031719
0.00031698
0.000316771
0.000316563
0.000316354
0.000316146
0.000315938
0.000315731
0.000315523
0.000315316
0.00031511
0.000314903
0.000314697
0.000314491
0.000314285
0.00031408
0.000313875
0.00031367
0.000313466
0.000313262
0.000313058
0.000312854
0.000312651
0.000312448
0.000312245
0.000312043
0.00031184
0.000311639
0.000311437
0.000311236
0.000311034
0.000310834
0.000310633
0.000310433
0.000310233
0.000310033
0.000309834
0.000309634
0.000309436
0.000309237
0.000309039
0.00030884
0.000308643
0.000308445
0.000308248
0.000308051
0.000307854
0.000307658
0.000307462
0.000307266
0.00030707
0.000306876
0.000306682
0.000306489
0.000306297
0.000306104
0.000305912
0.00030572
0.000305528
0.000305337
0.000305146
0.000304955
0.000304764
0.000304574
0.000304383
0.000304194
0.000304004
0.000303815
0.000303626
0.000303437
0.000303248
0.00030306
0.000302872
0.000302684
0.000302496
0.000302309
0.000302122
0.000301935
0.000301748
0.000301562
0.000301376
0.00030119
0.000301005
0.000300819
0.000300634
0.000300449
0.000300265
0.000300081
0.000299896
0.000299713
0.000299529
0.000299346
0.000299163
0.00029898
0.000298797
0.000298615
0.000298433
0.000298251
0.000298069
0.000297888
0.000297706
0.000297526
0.000297345
0.000297164
0.000296984
0.000296804
0.000296624
0.000296445
0.000296266
0.000296087
0.000295908
0.000295729
0.000295551
0.000295373
0.000295195
0.000295017
0.00029484
0.000294663
0.000294486
0.000294309
0.000294132
0.000293956
0.00029378
0.000293604
0.000293429
0.000293253
0.000293078
0.000292903
0.000292728
0.000292554
0.00029238
0.000292206
0.000292032
0.000291858
0.000291685
0.000291512
0.000291339
0.000291166
0.000290994
0.000290821
0.000290649
0.000290477
0.000290306
0.000290134
0.000289963
0.000289792
0.000289621
0.000289451
0.00028928
0.00028911
0.00028894
0.000288771
0.000288601
0.000288432
0.000288263
0.000288094
0.000287925
0.000287757
0.000287588
0.00028742
0.000287253
0.000287085
0.000286917
0.00028675
0.000286583
0.000286416
0.00028625
0.000286083
0.000285917
0.000285751
0.000285585
0.00028542
0.000285254
0.000285089
0.000284924
0.000284759
0.000284594
0.00028443
0.000284266
0.000284102
0.000283938
0.000283774
0.000283611
0.000283448
0.000283285
0.000283122
0.000282959
0.000282796
0.000282634
0.000282472
0.00028231
0.000282149
0.000281987
0.000281826
0.000281665
0.000281504
0.000281343
0.000281182
0.000281022
0.000280862
0.000280702
0.000280542
0.000280382
0.000280223
0.000280064
0.000279905
0.000279746
0.000279587
0.000279428
0.00027927
0.000279112
0.000278954
0.000278796
0.000278639
0.000278481
0.000278324
0.000278167
0.00027801
0.000277853
0.000277697
0.000277541
0.000277385
0.000277229
0.000277073
0.000276917
0.000276762
0.000276607
0.000276452
0.000276297
0.000276142
0.000275987
0.000275833
0.000275679
0.000275525
0.000275371
0.000275218
0.000275064
0.000274911
0.000274758
0.000274605
0.000274452
0.000274299
0.000274147
0.000273995
0.000273843
0.000273691
0.000273539
0.000273388
0.000273236
0.000273085
0.000272934
0.000272783
0.000272632
0.000272482
0.000272332
0.000272181
0.000272031
0.000271882
0.000271732
0.000271583
0.000271433
0.000271284
0.000271135
0.000270986
0.000270838
0.000270689
0.000270541
0.000270393
0.000270245
0.000270097
0.000269949
0.000269802
0.000269654
0.000269507
0.00026936
0.000269214
0.000269067
0.00026892
0.000268774
0.000268628
0.000268482
0.000268336
0.00026819
0.000268045
0.0002679
0.000267754
0.000267609
0.000267465
0.00026732
0.000267175
0.000267031
0.000266887
0.000266743
0.000266599
0.000266455
0.000266311
0.000266168
0.000266025
0.000265882
0.000265739
0.000265596
0.000265453
0.000265311
0.000265168
0.000265026
0.000264884
0.000264742
0.000264601
0.000264459
0.000264318
0.000264177
0.000264036
0.000263895
0.000263754
0.000263613
0.000263473
0.000263333
0.000263192
0.000263052
0.000262913
0.000262773
0.000262633
0.000262494
0.000262355
0.000262216
0.000262077
0.000261938
0.000261799
0.000261661
0.000261522
0.000261384
0.000261246
0.000261108
0.000260971
0.000260833
0.000260696
0.000260558
0.000260421
0.000260284
0.000260147
0.000260011
0.000259874
0.000259738
0.000259601
0.000259465
0.000259329
0.000259193
0.000259058
0.000258922
0.000258787
0.000258651
0.000258516
0.000258381
0.000258247
0.000258112
0.000257977
0.000257843
0.000257709
0.000257575
0.000257441
0.000257307
0.000257173
0.000257039
0.000256906
0.000256773
0.00025664
0.000256507
0.000256374
0.000256241
0.000256108
0.000255976
0.000255843
0.000255709
0.000255576
0.000255442
0.000255309
0.000255176
0.000255043
0.00025491
0.000254777
0.000254644
0.000254512
0.000254379
0.000254247
0.000254115
0.000253983
0.000253851
0.000253719
0.000253588
0.000253456
0.000253325
0.000253194
0.000253063
0.000252932
0.000252801
0.000252671
0.00025254
0.00025241
0.00025228
0.000252149
0.00025202
0.00025189
0.00025176
0.00025163
0.000251501
0.000251372
0.000251242
0.000251113
0.000250985
0.000250856
0.000250727
0.000250599
0.00025047
0.000250342
0.000250214
0.000250086
0.000249958
0.00024983
0.000249702
0.000249575
0.000249448
0.00024932
0.000249193
0.000249066
0.000248939
0.000248812
0.000248686
0.000248559
0.000248433
0.000248307
0.000248181
0.000248055
0.000247929
0.000247803
0.000247677
0.000247552
0.000247426
0.000247301
0.000247176
0.000247051
0.000246926
0.000246801
0.000246677
0.000246552
0.000246428
0.000246303
0.000246179
0.000246055
0.000245931
0.000245807
0.000245684
0.00024556
0.000245437
0.000245313
0.00024519
0.000245067
0.000244944
0.000244821
0.000244698
0.000244576
0.000244453
0.000244331
0.000244209
0.000244087
0.000243964
0.000243843
0.000243721
0.000243599
0.000243477
0.000243356
0.000243235
0.000243113
0.000242992
0.000242871
0.00024275
0.00024263
0.000242509
0.000242388
0.000242268
0.000242148
0.000242027
0.000241907
0.000241787
0.000241667
0.000241548
0.000241428
0.000241308
0.000241189
0.00024107
0.00024095
0.000240831
0.000240712
0.000240594
0.000240475
0.000240356
0.000240238
0.000240119
0.000240001
0.000239883
0.000239764
0.000239646
0.000239529
0.000239411
0.000239293
0.000239174
0.000239054
0.000238926
0.000238773
0.000238535
0.000238012
0.000236507
0.000231542
0.000212717
0.000213347
0.000215184
0.000216971
0.00021871
0.000220404
0.000222053
0.00022366
0.000225225
0.000226752
0.00022824
0.000229692
0.000231108
0.000232489
0.000233838
0.000235154
0.00023644
0.000237695
0.000238921
0.000240119
0.00024129
0.000242434
0.000243552
0.000244645
0.000245714
0.000246759
0.000247781
0.000248781
0.000249759
0.000250716
0.000251653
0.00025257
0.000253467
0.000254345
0.000255205
0.000256046
0.000256871
0.000257678
0.000258468
0.000259243
0.000260001
0.000260744
0.000261472
0.000262185
0.000262884
0.000263569
0.00026424
0.000264898
0.000265542
0.000266174
0.000266794
0.000267401
0.000267997
0.000268581
0.000269153
0.000269714
0.000270265
0.000270805
0.000271334
0.000271854
0.000272363
0.000272863
0.000273353
0.000273834
0.000274306
0.000274768
0.000275222
0.000275668
0.000276105
0.000276534
0.000276955
0.000277368
0.000277774
0.000278172
0.000278562
0.000278945
0.000279322
0.000279691
0.000280055
0.00028042
0.000280822
0.000281485
0.000283725
0.000294877
0.000326696
0.000326473
0.000326251
0.000326029
0.000325807
0.000325586
0.000325364
0.000325144
0.000324923
0.000324703
0.000324483
0.000324264
0.000324045
0.000323826
0.000323607
0.000323389
0.000323171
0.000322953
0.000322736
0.000322519
0.000322302
0.000322086
0.000321869
0.000321654
0.000321438
0.000321223
0.000321008
0.000320793
0.000320579
0.000320365
0.000320151
0.000319938
0.000319724
0.000319512
0.000319299
0.000319087
0.000318875
0.000318663
0.000318452
0.000318241
0.00031803
0.000317819
0.000317609
0.000317399
0.00031719
0.00031698
0.000316771
0.000316563
0.000316354
0.000316146
0.000315938
0.000315731
0.000315523
0.000315316
0.00031511
0.000314903
0.000314697
0.000314491
0.000314285
0.00031408
0.000313875
0.00031367
0.000313466
0.000313262
0.000313058
0.000312854
0.000312651
0.000312448
0.000312245
0.000312043
0.00031184
0.000311639
0.000311437
0.000311236
0.000311034
0.000310834
0.000310633
0.000310433
0.000310233
0.000310033
0.000309834
0.000309634
0.000309436
0.000309237
)
;
    }
    defaultFaces
    {
        type            empty;
    }
}

// ************************************************************************* //
