/*--------------------------------*- C++ -*----------------------------------*\
|       ______          _   __           ______                               |
|      / ____/  ___    / | / /          / ____/  ____   ____ _   ____ ___     |
|     / / __   / _ \  /  |/ /  ______  / /_     / __ \ / __ `/  / __ `__ \    |
|    / /_/ /  /  __/ / /|  /  /_____/ / __/    / /_/ // /_/ /  / / / / / /    |
|    \____/   \___/ /_/ |_/          /_/       \____/ \__,_/  /_/ /_/ /_/     |
|    Copyright (C) 2015 - 2022 EPFL                                           |
\*---------------------------------------------------------------------------*/
FoamFile
{
    version     2.0;
    format      ascii;
    class       volScalarField;
    object      Re;
}
// * * * * * * * * * * * * * * * * * * * * * * * * * * * * * * * * * * * * * //

dimensions      [0 0 0 0 0 0 0];

internalField   nonuniform List<scalar> 
640
(
10
10
10
10
10
10
10
10
10
10
10
10
280119
280100
280081
280062
280043
280024
280005
279986
279967
279948
279929
279910
279891
279872
279853
279834
279815
279796
279777
279758
279739
279720
279701
279682
279663
279644
279625
279606
279587
279568
279549
279530
279511
279492
279473
279454
279435
279416
279397
279378
279359
279340
279321
279302
279283
279264
279245
279226
279207
279188
279169
279150
279131
279112
279093
279074
279055
279036
279017
278998
278979
278960
278941
278922
278903
278883
278864
278845
278826
278807
278788
278769
278750
278731
278712
278693
278674
278655
278636
278617
278598
278579
278560
278541
278522
278503
278484
278465
278445
278426
278407
278388
278369
278350
278331
278312
278293
278274
278255
278236
278217
278198
278179
278160
278140
278121
278102
278083
278064
278045
278026
278007
277988
277969
277950
277931
277912
277892
277873
277854
277835
277816
277797
277778
277759
277740
277721
277702
277682
277663
277644
277625
277606
277587
277568
277549
277530
277511
277492
277472
277453
277434
277415
277396
277377
277358
277339
277320
277301
277281
277262
277243
277224
277205
277186
277167
277148
277129
277109
277090
277071
277052
277033
277014
276995
276976
276957
276937
276918
276899
276880
276861
276842
276823
276804
276785
276765
276746
276727
276708
276689
276670
276651
276632
276613
276593
276574
276555
276536
276517
276498
276479
276460
276441
276421
276402
276383
276364
276345
276326
276307
276288
276269
276250
276230
276211
276192
276173
276154
276135
276116
276097
276078
276059
276039
276020
276001
275982
275963
275944
275925
275906
275887
275868
275849
275829
275810
275791
275772
275753
275734
275715
275696
275677
275658
275639
275620
275600
275581
275562
275543
275524
275505
275486
275467
275448
275429
275410
275391
275372
275353
275334
275315
275296
275276
275257
275238
275219
275200
275181
275162
275143
275124
275105
275086
275067
275048
275029
275010
274991
274972
274953
274934
274915
274896
274877
274858
274839
274820
274801
274782
274763
274744
274725
274706
274687
274668
274649
274630
274611
274592
274573
274554
274535
274516
274497
274478
274459
274440
274421
274402
274383
274364
274345
274326
274307
274288
274269
274250
274231
274212
274193
274174
274155
274136
274117
274098
274080
274063
274050
10
10
10
10
10
10
10
10
10
10
10
10
10
10
10
10
10
10
10
10
10
10
10
10
10
10
10
10
10
10
10
10
10
10
10
10
10
10
10
10
10
10
10
10
10
10
10
10
10
10
10
10
10
10
10
10
10
10
10
10
10
10
10
10
10
10
10
10
10
10
10
10
10
10
10
10
10
10
10
10
10
10
10
10
10
10
10
10
10
10
10
10
10
10
10
10
274056
274056
274056
274056
274056
274056
274056
274056
274056
274057
274057
274057
274057
274057
274057
274057
274057
274057
274057
274057
274057
274058
274058
274058
274058
274058
274058
274058
274058
274058
274058
274058
274059
274059
274059
274059
274059
274059
274059
274059
274060
274060
274062
274070
332832
538683
685979
686352
686718
687075
687425
687767
688102
688430
688751
689065
689372
689672
689967
690254
690536
690811
691081
691345
691603
691856
692103
692345
692582
692814
693040
693262
693479
693692
693900
694103
694302
694497
694688
694874
695057
695235
695410
695581
695749
695912
696073
696230
696383
696533
696680
696824
696965
697103
697238
697370
697499
697625
697749
697870
697988
698104
698217
698328
698437
698543
698647
698749
698848
698946
699041
699134
699226
699315
699403
699488
699572
699654
699734
699813
699889
699965
700038
700110
700180
700249
700315
550291
10
10
10
10
10
10
10
10
10
10
10
10
10
10
10
10
10
10
10
10
10
10
10
10
10
10
10
10
10
10
10
10
10
10
10
10
10
10
10
10
10
10
10
10
10
10
10
10
10
10
10
10
10
10
10
10
10
10
10
10
10
10
10
10
10
10
10
10
10
10
10
10
10
10
10
10
10
10
10
10
10
10
10
10
)
;

boundaryField
{
    top
    {
        type            cyclic;
    }
    bottom
    {
        type            cyclic;
    }
    walls
    {
        type            zeroGradient;
    }
    defaultFaces
    {
        type            empty;
    }
}

// ************************************************************************* //
