/*--------------------------------*- C++ -*----------------------------------*\
|       ______          _   __           ______                               |
|      / ____/  ___    / | / /          / ____/  ____   ____ _   ____ ___     |
|     / / __   / _ \  /  |/ /  ______  / /_     / __ \ / __ `/  / __ `__ \    |
|    / /_/ /  /  __/ / /|  /  /_____/ / __/    / /_/ // /_/ /  / / / / / /    |
|    \____/   \___/ /_/ |_/          /_/       \____/ \__,_/  /_/ /_/ /_/     |
|    Copyright (C) 2015 - 2022 EPFL                                           |
\*---------------------------------------------------------------------------*/
FoamFile
{
    version     2.0;
    format      ascii;
    class       volScalarField;
    object      T;
}
// * * * * * * * * * * * * * * * * * * * * * * * * * * * * * * * * * * * * * //

dimensions      [0 0 0 1 0 0 0];

internalField   nonuniform List<scalar> 
640
(
870.359
870.359
870.359
870.359
870.359
870.36
870.36
870.362
870.367
870.382
870.423
870.537
870.856
871.175
871.494
871.812
872.131
872.45
872.769
873.088
873.407
873.726
874.045
874.364
874.682
875.001
875.32
875.639
875.958
876.277
876.596
876.915
877.234
877.553
877.872
878.191
878.51
878.829
879.148
879.467
879.786
880.106
880.425
880.744
881.063
881.382
881.701
882.02
882.339
882.658
882.978
883.297
883.616
883.935
884.254
884.574
884.893
885.212
885.531
885.851
886.17
886.489
886.808
887.128
887.447
887.766
888.086
888.405
888.725
889.044
889.363
889.683
890.002
890.322
890.641
890.961
891.28
891.6
891.919
892.239
892.558
892.878
893.197
893.517
893.836
894.156
894.476
894.795
895.115
895.435
895.754
896.074
896.394
896.714
897.033
897.353
897.673
897.993
898.313
898.632
898.952
899.272
899.592
899.912
900.232
900.552
900.872
901.192
901.512
901.832
902.152
902.472
902.792
903.112
903.432
903.752
904.072
904.392
904.712
905.032
905.353
905.673
905.993
906.313
906.634
906.954
907.274
907.594
907.915
908.235
908.555
908.876
909.196
909.516
909.837
910.157
910.478
910.798
911.118
911.439
911.759
912.08
912.4
912.721
913.041
913.362
913.682
914.003
914.324
914.644
914.965
915.285
915.606
915.927
916.247
916.568
916.888
917.209
917.53
917.851
918.171
918.492
918.813
919.133
919.454
919.775
920.096
920.416
920.737
921.058
921.379
921.699
922.02
922.341
922.662
922.982
923.303
923.624
923.945
924.266
924.586
924.907
925.228
925.549
925.87
926.19
926.511
926.832
927.153
927.474
927.795
928.115
928.436
928.757
929.078
929.399
929.719
930.04
930.361
930.682
931.002
931.323
931.644
931.965
932.286
932.606
932.927
933.248
933.568
933.889
934.21
934.531
934.851
935.172
935.493
935.813
936.134
936.455
936.775
937.096
937.416
937.737
938.058
938.378
938.699
939.019
939.34
939.66
939.981
940.301
940.622
940.942
941.263
941.583
941.903
942.224
942.544
942.865
943.185
943.505
943.826
944.146
944.466
944.786
945.107
945.427
945.747
946.067
946.387
946.708
947.028
947.348
947.668
947.988
948.308
948.628
948.948
949.268
949.588
949.908
950.228
950.548
950.867
951.187
951.507
951.827
952.147
952.467
952.786
953.106
953.426
953.745
954.065
954.385
954.704
955.024
955.343
955.663
955.982
956.302
956.621
956.941
957.26
957.58
957.899
958.218
958.538
958.857
959.176
959.496
959.815
960.134
960.453
960.772
961.092
961.411
961.73
962.049
962.368
962.687
963.006
963.325
963.644
963.963
964.282
964.601
964.92
965.239
965.558
965.876
966.195
966.514
966.833
967.151
967.47
967.789
968.108
968.426
968.745
969.064
969.382
969.701
970.019
970.338
970.656
970.975
971.293
971.61
971.926
972.234
972.522
972.74
972.74
972.739
972.739
972.738
972.738
972.737
972.736
972.736
972.735
972.735
972.734
972.733
972.733
972.732
972.731
972.731
972.73
972.729
972.728
972.727
972.727
972.726
972.725
972.724
972.723
972.723
972.722
972.721
972.72
972.719
972.718
972.717
972.716
972.715
972.714
972.713
972.712
972.711
972.71
972.709
972.708
972.707
972.706
972.705
972.704
972.703
972.702
972.701
972.699
972.698
972.697
972.696
972.695
972.694
972.693
972.691
972.69
972.689
972.688
972.687
972.685
972.684
972.683
972.682
972.68
972.679
972.678
972.677
972.675
972.674
972.673
972.672
972.67
972.669
972.668
972.666
972.665
972.664
972.662
972.661
972.66
972.658
972.657
972.656
972.654
972.653
972.651
972.65
972.649
972.647
972.646
972.645
972.643
972.642
972.64
972.639
972.638
972.636
972.635
972.633
972.632
972.63
972.629
972.628
972.626
972.625
972.623
972.622
972.62
972.619
972.617
972.616
972.614
972.613
972.611
972.61
972.609
972.607
972.606
972.604
972.603
972.601
972.6
972.598
972.597
972.595
972.594
972.592
972.591
972.589
972.588
972.586
972.585
972.583
972.581
972.579
972.574
972.562
972.524
972.399
971.95
969.565
967.002
964.495
962.041
959.641
957.291
954.993
952.743
950.542
948.389
946.281
944.219
942.201
940.226
938.294
936.403
934.553
932.742
930.971
929.237
927.54
925.88
924.256
922.666
921.11
919.588
918.098
916.641
915.214
913.818
912.452
911.116
909.808
908.528
907.275
906.049
904.85
903.676
902.528
901.404
900.304
899.227
898.174
897.143
896.135
895.147
894.182
893.236
892.311
891.406
890.52
889.653
888.805
887.975
887.163
886.368
885.59
884.828
884.083
883.354
882.641
881.943
881.259
880.591
879.937
879.296
878.67
878.057
877.456
876.869
876.295
875.732
875.182
874.643
874.116
873.601
873.096
872.602
872.119
871.646
871.185
870.742
870.373
870.373
870.373
870.373
870.372
870.372
870.372
870.372
870.371
870.371
870.371
870.371
870.371
870.37
870.37
870.37
870.37
870.369
870.369
870.369
870.369
870.369
870.368
870.368
870.368
870.368
870.368
870.367
870.367
870.367
870.367
870.367
870.366
870.366
870.366
870.366
870.366
870.365
870.365
870.365
870.365
870.365
870.364
870.364
870.364
870.364
870.364
870.364
870.363
870.363
870.363
870.363
870.363
870.363
870.362
870.362
870.362
870.362
870.362
870.362
870.362
870.361
870.361
870.361
870.361
870.361
870.361
870.361
870.361
870.36
870.36
870.36
870.36
870.36
870.36
870.36
870.36
870.36
870.36
870.36
870.36
870.359
870.359
870.359
870.359
)
;

boundaryField
{
    top
    {
        type            cyclic;
    }
    bottom
    {
        type            cyclic;
    }
    walls
    {
        type            zeroGradient;
    }
    defaultFaces
    {
        type            empty;
    }
}

// ************************************************************************* //
