/*--------------------------------*- C++ -*----------------------------------*\
| =========                 |                                                 |
| \\      /  F ield         | OpenFOAM: The Open Source CFD Toolbox           |
|  \\    /   O peration     | Version:  2212                                  |
|   \\  /    A nd           | Website:  www.openfoam.com                      |
|    \\/     M anipulation  |                                                 |
\*---------------------------------------------------------------------------*/
FoamFile
{
    version     2.0;
    format      ascii;
    arch        "LSB;label=32;scalar=64";
    class       volScalarField;
    location    "42/fluidRegion";
    object      heatFlux.structure;
}
// * * * * * * * * * * * * * * * * * * * * * * * * * * * * * * * * * * * * * //

dimensions      [1 0 -3 0 0 0 0];

internalField   nonuniform List<scalar> 
350
(
-258313
-258314
-258315
-258316
-258316
-258317
-258319
-258322
-258325
-258329
-258333
-258338
-258343
-258347
-258352
-258357
-258361
-258364
-258368
-258370
-258372
-258373
-258374
-258375
-258806
-258313
-258314
-258315
-258316
-258316
-258317
-258319
-258322
-258325
-258329
-258333
-258338
-258343
-258347
-258352
-258357
-258361
-258364
-258368
-258370
-258372
-258373
-258374
-258375
-258806
425950
1.31875e+06
2.19046e+06
3.02735e+06
3.81623e+06
4.54466e+06
5.20116e+06
5.77539e+06
6.2583e+06
6.64229e+06
6.92131e+06
7.09096e+06
7.14859e+06
7.09328e+06
6.92592e+06
6.64915e+06
6.26733e+06
5.78647e+06
5.21413e+06
4.5594e+06
3.83259e+06
3.04531e+06
2.21017e+06
1.34089e+06
451383
430548
1.33358e+06
2.21529e+06
3.06177e+06
3.85969e+06
4.59648e+06
5.26051e+06
5.84133e+06
6.32979e+06
6.71819e+06
7.00041e+06
7.17202e+06
7.23032e+06
7.17439e+06
7.00513e+06
6.7252e+06
6.33902e+06
5.85267e+06
5.27379e+06
4.61158e+06
3.87644e+06
3.08015e+06
2.23544e+06
1.3562e+06
456515
425217
1.31639e+06
2.18651e+06
3.02187e+06
3.80931e+06
4.5364e+06
5.19171e+06
5.76489e+06
6.24692e+06
6.6302e+06
6.90871e+06
7.07805e+06
7.13557e+06
7.08036e+06
6.9133e+06
6.63704e+06
6.25591e+06
5.77592e+06
5.20462e+06
4.55109e+06
3.8256e+06
3.03976e+06
2.20614e+06
1.33845e+06
450566
429487
1.33017e+06
2.20957e+06
3.05385e+06
3.84969e+06
4.58455e+06
5.24685e+06
5.82615e+06
6.31333e+06
6.70072e+06
6.9822e+06
7.15336e+06
7.21151e+06
7.15572e+06
6.9869e+06
6.7077e+06
6.32252e+06
5.83743e+06
5.26005e+06
4.59957e+06
3.86635e+06
3.07213e+06
2.22962e+06
1.35268e+06
455334
429487
1.33017e+06
2.20957e+06
3.05385e+06
3.84969e+06
4.58455e+06
5.24685e+06
5.82615e+06
6.31333e+06
6.70072e+06
6.9822e+06
7.15336e+06
7.2115e+06
7.15572e+06
6.9869e+06
6.7077e+06
6.32252e+06
5.83743e+06
5.26005e+06
4.59957e+06
3.86635e+06
3.07213e+06
2.22962e+06
1.35268e+06
455334
425217
1.31639e+06
2.18651e+06
3.02187e+06
3.80931e+06
4.5364e+06
5.19171e+06
5.76489e+06
6.24692e+06
6.6302e+06
6.90871e+06
7.07805e+06
7.13557e+06
7.08036e+06
6.9133e+06
6.63704e+06
6.25591e+06
5.77592e+06
5.20462e+06
4.55109e+06
3.8256e+06
3.03976e+06
2.20614e+06
1.33845e+06
450566
430548
1.33358e+06
2.21529e+06
3.06177e+06
3.85969e+06
4.59648e+06
5.26051e+06
5.84133e+06
6.32979e+06
6.71819e+06
7.00041e+06
7.17202e+06
7.23032e+06
7.17439e+06
7.00513e+06
6.7252e+06
6.33902e+06
5.85267e+06
5.27379e+06
4.61158e+06
3.87644e+06
3.08015e+06
2.23544e+06
1.3562e+06
456515
425950
1.31875e+06
2.19047e+06
3.02735e+06
3.81623e+06
4.54466e+06
5.20116e+06
5.77539e+06
6.2583e+06
6.64229e+06
6.92131e+06
7.09096e+06
7.14859e+06
7.09328e+06
6.92592e+06
6.64915e+06
6.26733e+06
5.78647e+06
5.21413e+06
4.5594e+06
3.83259e+06
3.04531e+06
2.21017e+06
1.34089e+06
451383
429487
1.33017e+06
2.20957e+06
3.05385e+06
3.84969e+06
4.58455e+06
5.24685e+06
5.82615e+06
6.31333e+06
6.70072e+06
6.9822e+06
7.15336e+06
7.2115e+06
7.15572e+06
6.9869e+06
6.7077e+06
6.32252e+06
5.83743e+06
5.26005e+06
4.59957e+06
3.86635e+06
3.07213e+06
2.22962e+06
1.35268e+06
455334
425217
1.31639e+06
2.18651e+06
3.02187e+06
3.80931e+06
4.5364e+06
5.19171e+06
5.76489e+06
6.24692e+06
6.6302e+06
6.90871e+06
7.07805e+06
7.13557e+06
7.08036e+06
6.9133e+06
6.63704e+06
6.25591e+06
5.77592e+06
5.20462e+06
4.55109e+06
3.8256e+06
3.03976e+06
2.20614e+06
1.33845e+06
450566
425217
1.31639e+06
2.18651e+06
3.02187e+06
3.80931e+06
4.5364e+06
5.19171e+06
5.76489e+06
6.24692e+06
6.6302e+06
6.90871e+06
7.07805e+06
7.13557e+06
7.08036e+06
6.9133e+06
6.63704e+06
6.25591e+06
5.77592e+06
5.20462e+06
4.55109e+06
3.8256e+06
3.03976e+06
2.20614e+06
1.33845e+06
450566
429487
1.33017e+06
2.20957e+06
3.05385e+06
3.84969e+06
4.58455e+06
5.24685e+06
5.82615e+06
6.31333e+06
6.70072e+06
6.9822e+06
7.15336e+06
7.2115e+06
7.15572e+06
6.9869e+06
6.7077e+06
6.32252e+06
5.83743e+06
5.26005e+06
4.59957e+06
3.86635e+06
3.07213e+06
2.22962e+06
1.35268e+06
455334
)
;

boundaryField
{
    outletCentralUnloaded
    {
        type            zeroGradient;
    }
    inletCentralUnloaded
    {
        type            zeroGradient;
    }
    outletFuelElement
    {
        type            zeroGradient;
    }
    inletFuelElement
    {
        type            zeroGradient;
    }
    defaultFaces
    {
        type            zeroGradient;
    }
    baffle_master
    {
        type            zeroGradient;
    }
    baffle_slave
    {
        type            zeroGradient;
    }
}


// ************************************************************************* //
