/*--------------------------------*- C++ -*----------------------------------*\
| =========                 |                                                 |
| \\      /  F ield         | OpenFOAM: The Open Source CFD Toolbox           |
|  \\    /   O peration     | Version:  2212                                  |
|   \\  /    A nd           | Website:  www.openfoam.com                      |
|    \\/     M anipulation  |                                                 |
\*---------------------------------------------------------------------------*/
FoamFile
{
    version     2.0;
    format      ascii;
    arch        "LSB;label=32;scalar=64";
    class       volScalarField;
    location    "42/fluidRegion";
    object      p;
}
// * * * * * * * * * * * * * * * * * * * * * * * * * * * * * * * * * * * * * //

dimensions      [1 -1 -2 0 0 0 0];

internalField   nonuniform List<scalar> 
350
(
3.44743e+06
3.44772e+06
3.44802e+06
3.44832e+06
3.44861e+06
3.44891e+06
3.4492e+06
3.4495e+06
3.4498e+06
3.45009e+06
3.45039e+06
3.45068e+06
3.45097e+06
3.45127e+06
3.45156e+06
3.45186e+06
3.45215e+06
3.45245e+06
3.45275e+06
3.45304e+06
3.45334e+06
3.45363e+06
3.45393e+06
3.45422e+06
3.45451e+06
3.44743e+06
3.44772e+06
3.44802e+06
3.44832e+06
3.44861e+06
3.44891e+06
3.4492e+06
3.4495e+06
3.4498e+06
3.45009e+06
3.45039e+06
3.45068e+06
3.45097e+06
3.45127e+06
3.45156e+06
3.45186e+06
3.45215e+06
3.45245e+06
3.45275e+06
3.45304e+06
3.45334e+06
3.45363e+06
3.45393e+06
3.45422e+06
3.45451e+06
3.47372e+06
3.52533e+06
3.57634e+06
3.62645e+06
3.67535e+06
3.72275e+06
3.76841e+06
3.81207e+06
3.85353e+06
3.89261e+06
3.92914e+06
3.96298e+06
3.99403e+06
4.0222e+06
4.04745e+06
4.06977e+06
4.08922e+06
4.10587e+06
4.11987e+06
4.13139e+06
4.14064e+06
4.14782e+06
4.15319e+06
4.15704e+06
4.15971e+06
3.47372e+06
3.52533e+06
3.57634e+06
3.62645e+06
3.67535e+06
3.72275e+06
3.76841e+06
3.81207e+06
3.85353e+06
3.89261e+06
3.92914e+06
3.96298e+06
3.99403e+06
4.0222e+06
4.04745e+06
4.06977e+06
4.08922e+06
4.10587e+06
4.11987e+06
4.13139e+06
4.14064e+06
4.14782e+06
4.15319e+06
4.15704e+06
4.15972e+06
3.47372e+06
3.52533e+06
3.57634e+06
3.62645e+06
3.67535e+06
3.72275e+06
3.76841e+06
3.81207e+06
3.85353e+06
3.89261e+06
3.92914e+06
3.96298e+06
3.99403e+06
4.0222e+06
4.04745e+06
4.06977e+06
4.08922e+06
4.10587e+06
4.11987e+06
4.13139e+06
4.14064e+06
4.14782e+06
4.15319e+06
4.15704e+06
4.15971e+06
3.47372e+06
3.52533e+06
3.57634e+06
3.62645e+06
3.67535e+06
3.72275e+06
3.76841e+06
3.81207e+06
3.85353e+06
3.89261e+06
3.92914e+06
3.96298e+06
3.99403e+06
4.0222e+06
4.04745e+06
4.06977e+06
4.08922e+06
4.10587e+06
4.11987e+06
4.13139e+06
4.14064e+06
4.14782e+06
4.15319e+06
4.15704e+06
4.15972e+06
3.47372e+06
3.52533e+06
3.57634e+06
3.62645e+06
3.67535e+06
3.72275e+06
3.76841e+06
3.81207e+06
3.85353e+06
3.89261e+06
3.92914e+06
3.96298e+06
3.99403e+06
4.0222e+06
4.04745e+06
4.06977e+06
4.08922e+06
4.10587e+06
4.11987e+06
4.13139e+06
4.14064e+06
4.14782e+06
4.15319e+06
4.15704e+06
4.15972e+06
3.47372e+06
3.52533e+06
3.57634e+06
3.62645e+06
3.67535e+06
3.72275e+06
3.76841e+06
3.81207e+06
3.85353e+06
3.89261e+06
3.92914e+06
3.96298e+06
3.99403e+06
4.0222e+06
4.04745e+06
4.06977e+06
4.08922e+06
4.10587e+06
4.11987e+06
4.13139e+06
4.14064e+06
4.14782e+06
4.15319e+06
4.15704e+06
4.15971e+06
3.47372e+06
3.52533e+06
3.57634e+06
3.62645e+06
3.67535e+06
3.72275e+06
3.76841e+06
3.81207e+06
3.85353e+06
3.89261e+06
3.92914e+06
3.96298e+06
3.99403e+06
4.0222e+06
4.04745e+06
4.06977e+06
4.08922e+06
4.10587e+06
4.11987e+06
4.13139e+06
4.14064e+06
4.14782e+06
4.15319e+06
4.15704e+06
4.15972e+06
3.47372e+06
3.52533e+06
3.57634e+06
3.62645e+06
3.67535e+06
3.72275e+06
3.76841e+06
3.81207e+06
3.85353e+06
3.89261e+06
3.92914e+06
3.96298e+06
3.99403e+06
4.0222e+06
4.04745e+06
4.06977e+06
4.08922e+06
4.10587e+06
4.11987e+06
4.13139e+06
4.14064e+06
4.14782e+06
4.15319e+06
4.15704e+06
4.15971e+06
3.47372e+06
3.52533e+06
3.57634e+06
3.62645e+06
3.67535e+06
3.72275e+06
3.76841e+06
3.81207e+06
3.85353e+06
3.89261e+06
3.92914e+06
3.96298e+06
3.99403e+06
4.0222e+06
4.04745e+06
4.06977e+06
4.08922e+06
4.10587e+06
4.11987e+06
4.13139e+06
4.14064e+06
4.14782e+06
4.15319e+06
4.15704e+06
4.15971e+06
3.47372e+06
3.52533e+06
3.57634e+06
3.62645e+06
3.67535e+06
3.72275e+06
3.76841e+06
3.81207e+06
3.85353e+06
3.89261e+06
3.92914e+06
3.96298e+06
3.99403e+06
4.0222e+06
4.04745e+06
4.06977e+06
4.08922e+06
4.10587e+06
4.11987e+06
4.13139e+06
4.14064e+06
4.14782e+06
4.15319e+06
4.15704e+06
4.15971e+06
3.47372e+06
3.52533e+06
3.57634e+06
3.62645e+06
3.67535e+06
3.72275e+06
3.76841e+06
3.81207e+06
3.85353e+06
3.89261e+06
3.92914e+06
3.96298e+06
3.99403e+06
4.0222e+06
4.04745e+06
4.06977e+06
4.08922e+06
4.10587e+06
4.11987e+06
4.13139e+06
4.14064e+06
4.14782e+06
4.15319e+06
4.15704e+06
4.15971e+06
3.47372e+06
3.52533e+06
3.57634e+06
3.62645e+06
3.67535e+06
3.72275e+06
3.76841e+06
3.81207e+06
3.85353e+06
3.89261e+06
3.92914e+06
3.96298e+06
3.99403e+06
4.0222e+06
4.04745e+06
4.06977e+06
4.08922e+06
4.10587e+06
4.11987e+06
4.13139e+06
4.14064e+06
4.14782e+06
4.15319e+06
4.15704e+06
4.15972e+06
)
;

boundaryField
{
    outletCentralUnloaded
    {
        type            fixedValue;
        value           uniform 3.44728e+06;
    }
    inletCentralUnloaded
    {
        type            zeroGradient;
    }
    outletFuelElement
    {
        type            fixedValue;
        value           uniform 3.44728e+06;
    }
    inletFuelElement
    {
        type            zeroGradient;
    }
    defaultFaces
    {
        type            zeroGradient;
    }
    baffle_master
    {
        type            zeroGradient;
    }
    baffle_slave
    {
        type            zeroGradient;
    }
}


// ************************************************************************* //
