/*--------------------------------*- C++ -*----------------------------------*\
| =========                 |                                                 |
| \\      /  F ield         | OpenFOAM: The Open Source CFD Toolbox           |
|  \\    /   O peration     | Version:  2212                                  |
|   \\  /    A nd           | Website:  www.openfoam.com                      |
|    \\/     M anipulation  |                                                 |
\*---------------------------------------------------------------------------*/
FoamFile
{
    version     2.0;
    format      ascii;
    arch        "LSB;label=32;scalar=64";
    class       volScalarField;
    location    "42/fluidRegion";
    object      Re;
}
// * * * * * * * * * * * * * * * * * * * * * * * * * * * * * * * * * * * * * //

dimensions      [0 0 0 0 0 0 0];

internalField   nonuniform List<scalar> 
350
(
174035
174034
174032
174030
174028
174026
174025
174024
174024
174025
174027
174028
174030
174031
174033
174034
174036
174037
174038
174038
174037
174036
174035
174033
174393
174035
174034
174032
174030
174028
174026
174025
174024
174024
174025
174027
174028
174030
174031
174033
174034
174036
174037
174038
174038
174037
174036
174035
174033
174393
55395.6
55344.1
55345.4
55345.6
55344.7
55342.3
55338.5
55332.9
55325.4
55315.8
55304
55289.8
55273.4
55254.7
55233.5
55208.7
55178.5
55141.1
55095.6
55048.1
55017.9
55064.7
55331.8
56074.3
56556.1
54906.1
54846.9
54844
54840.1
54835.2
54829.2
54822
54813.4
54803
54790.8
54776.7
54761.3
54745.3
54729.5
54714.8
54701.1
54687.3
54671.5
54653.2
54638.5
54648.6
54746.2
55080.8
55913.4
56503.6
55477.5
55425.6
55427.3
55427.9
55427.1
55425
55421.3
55415.8
55408.4
55398.8
55386.7
55372.2
55355.1
55335.3
55312.3
55285
55251.3
55209.5
55158.7
55104.7
55066.7
55103.7
55358.5
56086.4
56557.9
55015.6
54958.6
54956.8
54954
54950.2
54945.3
54939.1
54931.3
54921.8
54910.3
54897
54882
54866.1
54849.8
54833.9
54817.9
54800.5
54779.9
54755.5
54733.5
54734.5
54820.7
55140
55952.2
56516.6
55015.6
54958.6
54956.8
54954
54950.2
54945.3
54939.1
54931.3
54921.8
54910.3
54897
54882
54866.1
54849.8
54833.9
54817.9
54800.5
54779.9
54755.5
54733.5
54734.5
54820.7
55140
55952.2
56516.6
55477.5
55425.6
55427.3
55427.9
55427.1
55425
55421.3
55415.8
55408.4
55398.7
55386.7
55372.2
55355.1
55335.3
55312.3
55284.9
55251.3
55209.4
55158.6
55104.6
55066.6
55103.6
55358.3
56086.3
56557.9
54906.1
54846.9
54844
54840.1
54835.2
54829.2
54822
54813.4
54803
54790.8
54776.7
54761.3
54745.3
54729.5
54714.8
54701.1
54687.3
54671.5
54653.2
54638.5
54648.6
54746.2
55080.8
55913.4
56503.6
55395.6
55344.1
55345.4
55345.6
55344.7
55342.3
55338.5
55332.9
55325.4
55315.8
55304
55289.8
55273.4
55254.7
55233.5
55208.7
55178.5
55141.1
55095.6
55048.1
55017.9
55064.7
55331.8
56074.4
56556.1
55015.6
54958.6
54956.8
54954
54950.2
54945.3
54939.1
54931.3
54921.8
54910.3
54897
54882
54866.1
54849.8
54833.9
54817.9
54800.5
54779.9
54755.5
54733.5
54734.5
54820.7
55140
55952.2
56516.6
55477.5
55425.6
55427.3
55427.9
55427.1
55425
55421.3
55415.8
55408.4
55398.8
55386.7
55372.2
55355.1
55335.3
55312.3
55285
55251.3
55209.5
55158.7
55104.7
55066.7
55103.7
55358.5
56086.5
56558
55477.5
55425.6
55427.3
55427.9
55427.1
55425
55421.3
55415.8
55408.4
55398.7
55386.7
55372.2
55355.1
55335.3
55312.3
55284.9
55251.3
55209.4
55158.6
55104.6
55066.6
55103.6
55358.4
56086.3
56557.9
55015.6
54958.6
54956.8
54954
54950.2
54945.3
54939.1
54931.3
54921.8
54910.3
54897
54882
54866.1
54849.8
54833.9
54817.9
54800.5
54779.9
54755.5
54733.5
54734.5
54820.7
55140
55952.2
56516.7
)
;

boundaryField
{
    outletCentralUnloaded
    {
        type            zeroGradient;
    }
    inletCentralUnloaded
    {
        type            zeroGradient;
    }
    outletFuelElement
    {
        type            zeroGradient;
    }
    inletFuelElement
    {
        type            zeroGradient;
    }
    defaultFaces
    {
        type            zeroGradient;
    }
    baffle_master
    {
        type            zeroGradient;
    }
    baffle_slave
    {
        type            zeroGradient;
    }
}


// ************************************************************************* //
