/*--------------------------------*- C++ -*----------------------------------*\
| =========                 |                                                 |
| \\      /  F ield         | OpenFOAM: The Open Source CFD Toolbox           |
|  \\    /   O peration     | Version:  2212                                  |
|   \\  /    A nd           | Website:  www.openfoam.com                      |
|    \\/     M anipulation  |                                                 |
\*---------------------------------------------------------------------------*/
FoamFile
{
    version     2.0;
    format      ascii;
    arch        "LSB;label=32;scalar=64";
    class       volScalarField;
    location    "42/fluidRegion";
    object      Tci.nuclearFuelPin;
}
// * * * * * * * * * * * * * * * * * * * * * * * * * * * * * * * * * * * * * //

dimensions      [0 0 0 1 0 0 0];

internalField   nonuniform List<scalar> 
350
(
0
0
0
0
0
0
0
0
0
0
0
0
0
0
0
0
0
0
0
0
0
0
0
0
0
0
0
0
0
0
0
0
0
0
0
0
0
0
0
0
0
0
0
0
0
0
0
0
0
0
1844.58
1895.13
1932.45
1956.34
1966.76
1963.81
1947.75
1919.01
1878.19
1826.01
1763.39
1691.35
1611.09
1523.93
1431.31
1334.74
1235.65
1135.19
1033.84
930.916
823.623
705.848
567.093
395.617
193.301
1872.91
1924.22
1962.07
1986.27
1996.75
1993.62
1977.16
1947.81
1906.15
1852.96
1789.12
1715.71
1633.92
1545.1
1450.71
1352.29
1251.33
1149.02
1045.93
941.371
832.581
713.354
572.982
399.427
194.588
1839.97
1890.43
1927.68
1951.55
1961.97
1959.06
1943.08
1914.46
1873.78
1821.78
1759.36
1687.55
1607.54
1520.65
1428.31
1332.03
1233.24
1133.06
1032
929.323
822.267
704.723
566.222
395.059
193.105
1866.54
1917.66
1955.38
1979.48
1989.93
1986.83
1970.45
1941.23
1899.76
1846.78
1783.22
1710.11
1628.67
1540.22
1446.24
1348.24
1247.71
1145.82
1043.13
938.954
830.509
711.617
571.618
398.543
194.291
1866.54
1917.66
1955.38
1979.48
1989.93
1986.83
1970.45
1941.23
1899.76
1846.78
1783.22
1710.11
1628.67
1540.22
1446.24
1348.24
1247.71
1145.82
1043.13
938.954
830.509
711.617
571.618
398.543
194.291
1839.98
1890.43
1927.68
1951.55
1961.97
1959.06
1943.08
1914.46
1873.78
1821.79
1759.36
1687.55
1607.54
1520.65
1428.31
1332.03
1233.24
1133.06
1032
929.324
822.268
704.724
566.223
395.059
193.105
1872.91
1924.22
1962.07
1986.27
1996.75
1993.62
1977.16
1947.81
1906.15
1852.96
1789.12
1715.71
1633.92
1545.1
1450.71
1352.29
1251.33
1149.02
1045.93
941.371
832.581
713.355
572.982
399.426
194.588
1844.58
1895.13
1932.45
1956.34
1966.76
1963.81
1947.75
1919.01
1878.19
1826.01
1763.39
1691.35
1611.09
1523.93
1431.31
1334.74
1235.65
1135.19
1033.84
930.916
823.623
705.848
567.093
395.617
193.301
1866.54
1917.66
1955.38
1979.48
1989.93
1986.83
1970.45
1941.23
1899.76
1846.78
1783.22
1710.11
1628.67
1540.22
1446.24
1348.24
1247.71
1145.82
1043.13
938.954
830.509
711.617
571.618
398.543
194.291
1839.97
1890.43
1927.68
1951.55
1961.97
1959.06
1943.08
1914.46
1873.78
1821.78
1759.36
1687.55
1607.54
1520.65
1428.31
1332.03
1233.24
1133.06
1032
929.323
822.267
704.723
566.223
395.059
193.105
1839.98
1890.43
1927.68
1951.55
1961.97
1959.06
1943.08
1914.46
1873.78
1821.79
1759.36
1687.55
1607.54
1520.65
1428.31
1332.03
1233.24
1133.06
1032
929.324
822.268
704.724
566.223
395.059
193.105
1866.54
1917.66
1955.38
1979.48
1989.93
1986.83
1970.45
1941.23
1899.76
1846.78
1783.22
1710.11
1628.67
1540.22
1446.24
1348.24
1247.71
1145.82
1043.13
938.954
830.509
711.617
571.618
398.543
194.291
)
;

boundaryField
{
    outletCentralUnloaded
    {
        type            zeroGradient;
    }
    inletCentralUnloaded
    {
        type            zeroGradient;
    }
    outletFuelElement
    {
        type            zeroGradient;
    }
    inletFuelElement
    {
        type            zeroGradient;
    }
    defaultFaces
    {
        type            zeroGradient;
    }
    baffle_master
    {
        type            zeroGradient;
    }
    baffle_slave
    {
        type            zeroGradient;
    }
}


// ************************************************************************* //
