/*--------------------------------*- C++ -*----------------------------------*\
| =========                 |                                                 |
| \\      /  F ield         | OpenFOAM: The Open Source CFD Toolbox           |
|  \\    /   O peration     | Version:  2212                                  |
|   \\  /    A nd           | Website:  www.openfoam.com                      |
|    \\/     M anipulation  |                                                 |
\*---------------------------------------------------------------------------*/
FoamFile
{
    version     2.0;
    format      ascii;
    arch        "LSB;label=32;scalar=64";
    class       volScalarField;
    location    "42/fluidRegion";
    object      Tco.nuclearFuelPin;
}
// * * * * * * * * * * * * * * * * * * * * * * * * * * * * * * * * * * * * * //

dimensions      [0 0 0 1 0 0 0];

internalField   nonuniform List<scalar> 
350
(
0
0
0
0
0
0
0
0
0
0
0
0
0
0
0
0
0
0
0
0
0
0
0
0
0
0
0
0
0
0
0
0
0
0
0
0
0
0
0
0
0
0
0
0
0
0
0
0
0
0
1833.39
1860.52
1874.96
1876.9
1866.61
1844.54
1811.26
1767.45
1713.96
1651.71
1581.76
1505.28
1423.5
1337.79
1249.57
1160.26
1071.19
983.343
897.02
811.273
723.053
625.936
509.096
360.431
181.457
1861.6
1889.22
1903.93
1905.91
1895.46
1873
1839.12
1794.52
1740.05
1676.66
1605.42
1527.51
1444.19
1356.83
1266.89
1175.81
1084.98
995.442
907.536
820.359
730.859
632.528
514.322
363.838
182.609
1828.8
1855.87
1870.29
1872.24
1862
1840.01
1806.84
1763.18
1709.85
1647.8
1578.07
1501.82
1420.29
1334.85
1246.9
1157.87
1069.08
981.498
895.423
809.898
721.88
624.957
508.331
359.937
181.282
1855.26
1882.75
1897.38
1899.34
1888.91
1866.52
1832.77
1788.34
1734.08
1670.95
1600
1522.4
1439.43
1352.45
1262.89
1172.22
1081.8
992.645
905.104
818.256
729.052
631.001
513.11
363.047
182.343
1855.26
1882.75
1897.38
1899.34
1888.91
1866.52
1832.77
1788.34
1734.08
1670.95
1600
1522.4
1439.43
1352.45
1262.89
1172.22
1081.8
992.645
905.104
818.256
729.052
631.001
513.11
363.047
182.343
1828.81
1855.87
1870.3
1872.24
1862
1840.02
1806.84
1763.18
1709.85
1647.8
1578.07
1501.82
1420.3
1334.85
1246.9
1157.87
1069.08
981.499
895.423
809.899
721.88
624.958
508.332
359.937
181.282
1861.6
1889.22
1903.93
1905.91
1895.46
1873
1839.12
1794.52
1740.05
1676.66
1605.42
1527.51
1444.19
1356.83
1266.89
1175.81
1084.98
995.442
907.536
820.359
730.859
632.528
514.322
363.838
182.609
1833.39
1860.52
1874.96
1876.9
1866.61
1844.54
1811.26
1767.45
1713.96
1651.71
1581.76
1505.28
1423.5
1337.79
1249.57
1160.26
1071.19
983.342
897.02
811.273
723.053
625.936
509.096
360.431
181.457
1855.26
1882.75
1897.38
1899.34
1888.91
1866.52
1832.77
1788.34
1734.08
1670.95
1600
1522.4
1439.43
1352.45
1262.89
1172.22
1081.8
992.645
905.104
818.256
729.052
631.001
513.11
363.047
182.343
1828.8
1855.87
1870.29
1872.24
1862
1840.01
1806.84
1763.18
1709.85
1647.8
1578.07
1501.82
1420.29
1334.85
1246.9
1157.87
1069.08
981.498
895.423
809.898
721.88
624.957
508.331
359.936
181.282
1828.81
1855.87
1870.3
1872.24
1862
1840.02
1806.84
1763.18
1709.85
1647.8
1578.07
1501.82
1420.3
1334.85
1246.9
1157.87
1069.08
981.499
895.423
809.899
721.88
624.958
508.331
359.937
181.282
1855.26
1882.75
1897.38
1899.34
1888.91
1866.52
1832.77
1788.34
1734.08
1670.95
1600
1522.4
1439.43
1352.45
1262.89
1172.22
1081.8
992.645
905.104
818.256
729.052
631.001
513.11
363.047
182.343
)
;

boundaryField
{
    outletCentralUnloaded
    {
        type            zeroGradient;
    }
    inletCentralUnloaded
    {
        type            zeroGradient;
    }
    outletFuelElement
    {
        type            zeroGradient;
    }
    inletFuelElement
    {
        type            zeroGradient;
    }
    defaultFaces
    {
        type            zeroGradient;
    }
    baffle_master
    {
        type            zeroGradient;
    }
    baffle_slave
    {
        type            zeroGradient;
    }
}


// ************************************************************************* //
