/*--------------------------------*- C++ -*----------------------------------*\
| =========                 |                                                 |
| \\      /  F ield         | OpenFOAM: The Open Source CFD Toolbox           |
|  \\    /   O peration     | Version:  2212                                  |
|   \\  /    A nd           | Website:  www.openfoam.com                      |
|    \\/     M anipulation  |                                                 |
\*---------------------------------------------------------------------------*/
FoamFile
{
    version     2.0;
    format      ascii;
    arch        "LSB;label=32;scalar=64";
    class       volScalarField;
    location    "42/fluidRegion";
    object      Tfi.nuclearFuelPin;
}
// * * * * * * * * * * * * * * * * * * * * * * * * * * * * * * * * * * * * * //

dimensions      [0 0 0 1 0 0 0];

internalField   nonuniform List<scalar> 
350
(
0
0
0
0
0
0
0
0
0
0
0
0
0
0
0
0
0
0
0
0
0
0
0
0
0
0
0
0
0
0
0
0
0
0
0
0
0
0
0
0
0
0
0
0
0
0
0
0
0
0
2383.88
3570.91
4717.88
5807.13
6821.79
7746.16
8565.89
9268.22
9842.24
10279
10571.7
10715.8
10709
10551.6
10246.1
9797.41
9212.44
8500.03
7670.27
6734.05
5701.69
4581.9
3380.25
2102.5
768.247
2418
3618.82
4779.05
5880.8
6907.05
7841.88
8670.8
9380.9
9961.15
10402.5
10698.1
10843.3
10835.9
10676
10366.3
9911.74
9319.36
8598.11
7758.28
6810.9
5766.46
4633.74
3418.3
2125.79
776.065
2378.35
3563.2
4708.09
5795.36
6808.2
7730.92
8549.2
9250.31
9823.35
10259.4
10551.6
10695.5
10688.9
10531.9
10227.1
9779.29
9195.5
8484.49
7656.33
6721.88
5691.45
4573.71
3374.25
2098.83
767.01
2410.29
3607.92
4765.09
5863.95
6887.51
7819.92
8646.71
9355.01
9933.82
10374.1
10669
10813.9
10806.7
10647.4
10338.6
9885.42
9294.74
8575.52
7738.01
6793.2
5751.54
4621.79
3409.53
2120.42
774.264
2410.29
3607.92
4765.09
5863.95
6887.51
7819.92
8646.71
9355.01
9933.82
10374.1
10669
10813.9
10806.7
10647.4
10338.6
9885.42
9294.74
8575.52
7738.01
6793.2
5751.54
4621.8
3409.53
2120.42
774.264
2378.35
3563.21
4708.09
5795.36
6808.2
7730.92
8549.2
9250.31
9823.35
10259.4
10551.6
10695.5
10688.9
10531.9
10227.1
9779.29
9195.5
8484.49
7656.33
6721.88
5691.45
4573.71
3374.25
2098.83
767.01
2418
3618.82
4779.05
5880.8
6907.05
7841.88
8670.8
9380.9
9961.15
10402.5
10698.1
10843.3
10835.8
10676
10366.3
9911.74
9319.36
8598.11
7758.28
6810.9
5766.46
4633.74
3418.3
2125.79
776.065
2383.88
3570.91
4717.89
5807.13
6821.79
7746.16
8565.89
9268.22
9842.24
10279
10571.7
10715.8
10709
10551.6
10246.1
9797.41
9212.44
8500.03
7670.27
6734.05
5701.69
4581.9
3380.25
2102.5
768.247
2410.29
3607.92
4765.09
5863.95
6887.51
7819.92
8646.71
9355.01
9933.82
10374.1
10669
10813.9
10806.7
10647.4
10338.6
9885.42
9294.74
8575.52
7738.01
6793.2
5751.54
4621.8
3409.53
2120.42
774.264
2378.35
3563.2
4708.09
5795.36
6808.2
7730.92
8549.2
9250.31
9823.35
10259.4
10551.6
10695.5
10688.9
10531.9
10227.1
9779.29
9195.5
8484.49
7656.33
6721.88
5691.45
4573.71
3374.25
2098.83
767.01
2378.35
3563.21
4708.09
5795.36
6808.2
7730.92
8549.2
9250.31
9823.35
10259.4
10551.6
10695.5
10688.9
10531.9
10227.1
9779.29
9195.5
8484.49
7656.33
6721.88
5691.45
4573.71
3374.25
2098.83
767.01
2410.29
3607.92
4765.09
5863.95
6887.51
7819.92
8646.71
9355.01
9933.82
10374.1
10669
10813.9
10806.7
10647.4
10338.6
9885.41
9294.74
8575.52
7738.01
6793.2
5751.54
4621.79
3409.53
2120.42
774.264
)
;

boundaryField
{
    outletCentralUnloaded
    {
        type            zeroGradient;
    }
    inletCentralUnloaded
    {
        type            zeroGradient;
    }
    outletFuelElement
    {
        type            zeroGradient;
    }
    inletFuelElement
    {
        type            zeroGradient;
    }
    defaultFaces
    {
        type            zeroGradient;
    }
    baffle_master
    {
        type            zeroGradient;
    }
    baffle_slave
    {
        type            zeroGradient;
    }
}


// ************************************************************************* //
