/*--------------------------------*- C++ -*----------------------------------*\
| =========                 |                                                 |
| \\      /  F ield         | OpenFOAM: The Open Source CFD Toolbox           |
|  \\    /   O peration     | Version:  2212                                  |
|   \\  /    A nd           | Website:  www.openfoam.com                      |
|    \\/     M anipulation  |                                                 |
\*---------------------------------------------------------------------------*/
FoamFile
{
    version     2.0;
    format      ascii;
    arch        "LSB;label=32;scalar=64";
    class       scalarFieldField;
    location    "42/fluidRegion";
    object      Trad.nuclearFuelPin;
}
// * * * * * * * * * * * * * * * * * * * * * * * * * * * * * * * * * * * * * //


350
(
0()
0()
0()
0()
0()
0()
0()
0()
0()
0()
0()
0()
0()
0()
0()
0()
0()
0()
0()
0()
0()
0()
0()
0()
0()
0()
0()
0()
0()
0()
0()
0()
0()
0()
0()
0()
0()
0()
0()
0()
0()
0()
0()
0()
0()
0()
0()
0()
0()
0()

20
(
2383.88
2382.22
2377.26
2368.98
2357.38
2342.45
2324.18
2302.55
2277.56
2249.18
2217.39
2182.18
2143.51
2101.38
2055.75
2006.6
1844.58
1840.72
1837
1833.39
)


20
(
3570.91
3565.71
3550.11
3524.11
3487.7
3440.87
3383.61
3315.9
3237.73
3149.07
3049.92
2940.24
2820
2689.2
2547.79
2395.76
1895.13
1883.21
1871.68
1860.52
)


20
(
4717.88
4709.22
4683.24
4639.94
4579.3
4501.32
4405.99
4293.28
4163.19
4015.68
3850.75
3668.35
3468.48
3251.09
3016.17
2763.68
1932.45
1912.65
1893.51
1874.96
)


20
(
5807.13
5795.15
5759.2
5699.28
5615.38
5507.5
5375.61
5219.7
5039.75
4835.74
4607.65
4355.45
4079.11
3778.6
3453.9
3104.98
1956.34
1928.99
1902.52
1876.9
)


20
(
6821.79
6806.68
6761.34
6685.76
6579.93
6443.86
6277.51
6080.87
5853.93
5596.66
5309.03
4991.02
4642.61
4263.75
3854.42
3414.59
1966.76
1932.28
1898.92
1866.61
)


20
(
7746.16
7728.16
7674.13
7584.09
7458.02
7295.91
7097.74
6863.5
6593.16
6286.7
5944.1
5565.33
5150.35
4699.14
4211.67
3687.89
1963.81
1922.74
1883.02
1844.54
)


20
(
8565.89
8545.27
8483.43
8380.35
8236.03
8050.45
7823.6
7555.46
7246.01
6895.22
6503.07
6069.53
5594.56
5078.14
4520.24
3920.82
1947.75
1900.75
1855.29
1811.26
)


20
(
9268.22
9245.33
9176.64
9062.16
8901.87
8695.77
8443.83
8146.03
7802.37
7412.8
6977.3
6495.85
5968.42
5394.96
4775.45
4109.86
1919.01
1866.83
1816.34
1767.45
)


20
(
9842.24
9817.43
9742.99
9618.91
9445.2
9221.83
8948.78
8626.05
8253.6
7831.42
7359.47
6837.73
6266.16
5644.73
4973.42
4252.17
1878.19
1821.64
1766.93
1713.96
)


20
(
10279
10252.7
10173.6
10041.9
9857.54
9620.44
9330.61
8988.04
8592.71
8144.59
7643.65
7089.86
6483.2
5823.63
5111.11
4345.62
1826.01
1766
1707.94
1651.71
)


20
(
10571.7
10544.2
10461.9
10324.6
10132.5
9885.4
9583.37
9226.38
8814.41
8347.44
7825.43
7248.35
6616.19
5928.9
5186.45
4388.8
1763.39
1700.85
1640.35
1581.76
)


20
(
10715.8
10687.6
10603.3
10462.6
10265.8
10012.6
9703.14
9337.38
8915.29
8436.84
7902.01
7310.77
6663.09
5958.94
5198.28
4381.09
1691.35
1627.28
1565.3
1505.28
)


20
(
10709
10680.7
10595.6
10453.8
10255.3
10000.1
9688.1
9319.34
8893.8
8411.44
7872.24
7276.18
6623.22
5913.34
5146.5
4322.67
1611.09
1546.5
1484.02
1423.5
)


20
(
10551.6
10523.5
10439.1
10298.4
10101.4
9848.13
9538.54
9172.62
8750.35
8271.7
7736.66
7145.19
6497.27
5792.87
5031.96
4214.51
1523.93
1459.84
1397.84
1337.79
)


20
(
10246.1
10218.7
10136.2
9998.86
9806.52
9559.2
9256.9
8899.6
8487.28
8019.91
7497.48
6919.95
6287.31
5599.52
4856.56
4058.39
1431.31
1368.73
1308.19
1249.57
)


20
(
9797.41
9771.03
9691.9
9560
9375.34
9137.9
8847.67
8504.64
8108.78
7660.07
7158.5
6604.05
5996.68
5336.37
4623.09
3856.82
1334.74
1274.66
1216.54
1160.26
)


20
(
9212.44
9187.58
9112.99
8988.66
8814.6
8590.79
8317.21
7993.87
7620.73
7197.78
6725
6202.38
5629.88
5007.48
4335.16
3612.9
1235.65
1179.02
1124.24
1071.19
)


20
(
8500.03
8477.07
8408.2
8293.41
8132.7
7926.05
7673.46
7374.92
7030.4
6639.9
6203.38
5720.85
5192.27
4617.62
3996.88
3330.04
1135.19
1082.9
1032.32
983.343
)


20
(
7670.27
7649.58
7587.52
7484.09
7339.27
7153.06
6925.45
6656.42
6345.98
5994.09
5600.75
5165.94
4689.64
4171.83
3612.49
3011.6
1033.84
986.733
941.157
897.02
)


20
(
6734.05
6715.96
6661.69
6571.24
6444.61
6281.78
6082.75
5847.5
5576.04
5268.33
4924.38
4544.17
4127.67
3674.88
3185.77
2660.33
930.916
889.721
849.868
811.273
)


20
(
5701.69
5686.49
5640.87
5564.84
5458.39
5321.51
5154.21
4956.47
4728.27
4469.62
4180.5
3860.89
3510.79
3130.18
2719.04
2277.36
823.623
788.995
755.495
723.053
)


20
(
4581.9
4569.81
4533.57
4473.15
4388.57
4279.81
4146.87
3989.75
3808.43
3602.91
3373.18
3119.22
2841.04
2538.61
2211.92
1860.97
705.848
678.333
651.715
625.936
)


20
(
3380.25
3371.48
3345.17
3301.32
3239.93
3161
3064.51
2950.47
2818.87
2669.71
2502.97
2318.65
2116.75
1897.25
1660.15
1405.44
567.093
547.124
527.805
509.096
)


20
(
2102.5
2097.17
2081.21
2054.6
2017.34
1969.44
1910.89
1841.68
1761.83
1671.31
1570.14
1458.3
1335.79
1202.61
1058.76
904.23
395.617
383.502
371.781
360.431
)


20
(
768.247
766.451
761.065
752.089
739.522
723.365
703.619
680.284
653.36
622.849
588.751
551.067
509.798
464.944
416.508
364.488
193.301
189.223
185.278
181.457
)


20
(
2418
2416.33
2411.31
2402.94
2391.22
2376.13
2357.67
2335.82
2310.56
2281.87
2249.75
2214.16
2175.08
2132.49
2086.37
2036.68
1872.91
1869.01
1865.25
1861.6
)


20
(
3618.82
3613.56
3597.79
3571.5
3534.68
3487.33
3429.43
3360.96
3281.91
3192.27
3092
2981.09
2859.5
2727.23
2584.23
2430.49
1924.22
1912.17
1900.51
1889.22
)


20
(
4779.05
4770.29
4744.02
4700.22
4638.9
4560.04
4463.63
4349.65
4218.08
4068.91
3902.11
3717.65
3515.51
3295.67
3058.08
2802.73
1962.07
1942.05
1922.69
1903.93
)


20
(
5880.8
5868.69
5832.33
5771.73
5686.88
5577.78
5444.39
5286.71
5104.72
4898.4
4667.72
4412.65
4133.17
3829.25
3500.86
3147.97
1986.27
1958.6
1931.83
1905.91
)


20
(
6907.05
6891.76
6845.9
6769.47
6662.44
6524.81
6356.58
6157.7
5928.18
5667.98
5377.08
5055.46
4703.07
4319.9
3905.91
3461.07
1996.75
1961.87
1928.13
1895.46
)


20
(
7841.88
7823.67
7769.04
7677.97
7550.46
7386.5
7186.08
6949.17
6675.75
6365.8
6019.3
5636.21
5216.5
4760.15
4267.12
3737.37
1993.62
1952.09
1911.91
1873
)


20
(
8670.8
8649.95
8587.4
8483.15
8337.18
8149.49
7920.05
7648.86
7335.88
6981.09
6584.47
6145.98
5665.6
5143.29
4579.02
3972.75
1977.16
1929.63
1883.65
1839.12
)


20
(
9380.9
9357.75
9288.28
9172.49
9010.38
8801.92
8547.11
8245.92
7898.33
7504.32
7063.85
6576.91
6043.45
5463.45
4836.87
4163.67
1947.81
1895.03
1843.97
1794.52
)


20
(
9961.15
9936.06
9860.77
9735.28
9559.58
9333.66
9057.5
8731.08
8354.39
7927.38
7450.05
6922.35
6344.25
5715.73
5036.74
4307.26
1906.15
1848.96
1793.63
1740.05
)


20
(
10402.5
10375.9
10295.9
10162.7
9976.23
9736.42
9443.29
9096.81
8696.96
8243.72
7737.06
7176.95
6563.36
5896.25
5175.6
4401.36
1852.96
1792.25
1733.53
1676.66
)


20
(
10698.1
10670.3
10587
10448.2
10253.9
10003.9
9698.47
9337.4
8920.73
8448.42
7920.44
7336.78
6697.39
6002.24
5251.31
4444.55
1789.12
1725.87
1664.68
1605.42
)


20
(
10843.3
10814.8
10729.5
10587.3
10388.1
10132.1
9819.08
9449.14
9022.22
8538.3
7997.36
7399.36
6744.28
6032.08
5262.73
4436.2
1715.71
1650.91
1588.22
1527.51
)


20
(
10835.9
10807.2
10721.1
10577.7
10377
10118.8
9803.27
9430.3
8999.89
8512.02
7966.66
7363.78
6703.36
5985.36
5209.75
4376.5
1633.92
1568.59
1505.39
1444.19
)


20
(
10676
10647.5
10562.2
10419.9
10220.6
9964.48
9651.35
9281.24
8854.15
8370.03
7828.87
7230.64
6575.31
5862.86
5093.25
4266.45
1545.1
1480.27
1417.56
1356.83
)


20
(
10366.3
10338.5
10255.2
10116.2
9921.69
9671.55
9365.79
9004.41
8587.37
8114.66
7586.25
7002.12
6362.24
5666.59
4915.13
4107.84
1450.71
1387.41
1326.18
1266.89
)


20
(
9911.74
9885.07
9805.03
9671.63
9484.85
9244.7
8951.15
8604.19
8203.81
7749.97
7242.67
6681.87
6067.55
5399.69
4678.26
3903.23
1352.29
1291.53
1232.74
1175.81
)


20
(
9319.36
9294.21
9218.77
9093.02
8916.97
8690.6
8413.9
8086.85
7709.45
7281.66
6803.48
6274.87
5695.82
5066.31
4386.3
3655.77
1251.33
1194.05
1138.64
1084.98
)


20
(
8598.11
8574.9
8505.24
8389.13
8226.58
8017.57
7762.1
7460.14
7111.68
6716.71
6275.2
5787.15
5252.52
4671.3
4043.46
3368.99
1149.02
1096.14
1044.98
995.442
)


20
(
7758.28
7737.35
7674.58
7569.96
7423.49
7235.15
7004.93
6732.84
6418.84
6062.93
5665.09
5225.3
4743.55
4219.82
3654.08
3046.31
1045.93
998.275
952.178
907.536
)


20
(
6810.9
6792.61
6737.72
6646.23
6518.15
6353.46
6152.15
5914.21
5639.64
5328.42
4980.53
4595.97
4174.71
3716.73
3222.03
2690.58
941.371
899.704
859.395
820.359
)


20
(
5766.46
5751.08
5704.94
5628.04
5520.37
5381.93
5212.72
5012.71
4781.91
4520.3
4227.87
3904.6
3550.5
3165.53
2749.68
2302.95
832.581
797.556
763.673
730.859
)


20
(
4633.74
4621.52
4584.86
4523.75
4438.2
4328.2
4193.74
4034.82
3851.43
3643.56
3411.2
3154.34
2872.97
2567.08
2236.66
1881.69
713.354
685.524
658.601
632.528
)


20
(
3418.3
3409.43
3382.82
3338.47
3276.38
3196.54
3098.95
2983.61
2850.5
2699.64
2530.99
2344.57
2140.36
1918.35
1678.54
1420.92
572.982
552.784
533.245
514.322
)


20
(
2125.79
2120.41
2104.26
2077.35
2039.67
1991.22
1932
1862.01
1781.24
1689.69
1587.36
1474.24
1350.34
1215.64
1070.15
913.849
399.427
387.173
375.319
363.838
)


20
(
776.065
774.249
768.802
759.724
747.015
730.675
710.705
687.105
659.876
629.019
594.534
556.422
514.684
469.321
420.333
367.722
194.588
190.464
186.474
182.609
)


20
(
2378.35
2376.7
2371.74
2363.47
2351.89
2336.99
2318.75
2297.16
2272.21
2243.88
2212.15
2176.99
2138.4
2096.33
2050.78
2001.71
1839.97
1836.13
1832.41
1828.8
)


20
(
3563.2
3558.02
3542.45
3516.49
3480.14
3433.4
3376.24
3308.65
3230.62
3142.12
3043.14
2933.66
2813.64
2683.07
2541.92
2390.15
1890.43
1878.53
1867.02
1855.87
)


20
(
4708.09
4699.45
4673.51
4630.29
4569.76
4491.92
4396.76
4284.25
4154.39
4007.15
3842.51
3660.45
3460.93
3243.94
3009.44
2757.41
1927.68
1907.92
1888.81
1870.29
)


20
(
5795.36
5783.4
5747.52
5687.71
5603.96
5496.27
5364.62
5208.99
5029.37
4825.73
4598.05
4346.31
4070.47
3770.51
3446.39
3098.1
1951.55
1924.24
1897.82
1872.24
)


20
(
6808.2
6793.11
6747.85
6672.41
6566.78
6430.95
6264.9
6068.62
5842.09
5585.28
5298.18
4980.75
4632.96
4254.79
3846.2
3407.17
1961.97
1927.55
1894.25
1862
)


20
(
7730.92
7712.95
7659.02
7569.14
7443.3
7281.48
7083.67
6849.86
6580.01
6274.11
5932.13
5554.04
5139.82
4689.43
4202.84
3680.02
1959.06
1918.07
1878.42
1840.01
)


20
(
8549.2
8528.62
8466.89
8364
8219.94
8034.7
7808.26
7540.61
7231.72
6881.56
6490.12
6057.37
5583.27
5067.79
4510.9
3912.56
1943.08
1896.17
1850.79
1806.84
)


20
(
9250.31
9227.46
9158.89
9044.62
8884.63
8678.89
8427.41
8130.16
7787.12
7398.26
6963.55
6482.98
5956.5
5384.09
4765.7
4101.32
1914.46
1862.37
1811.98
1763.18
)


20
(
9823.35
9798.58
9724.28
9600.43
9427.03
9204.06
8931.52
8609.37
8237.6
7816.18
7345.09
6824.3
6253.77
5633.47
4963.38
4243.45
1873.78
1817.34
1762.73
1709.85
)


20
(
10259.4
10233.1
10154.2
10022.8
9838.7
9602.03
9312.73
8970.78
8576.17
8128.86
7628.83
7076.05
6470.49
5812.12
5100.9
4336.81
1821.78
1761.88
1703.92
1647.8
)


20
(
10551.6
10524.2
10442
10305
10113.2
9866.59
9565.11
9208.77
8797.55
8331.43
7810.37
7234.34
6603.33
5917.28
5176.19
4380
1759.36
1696.94
1636.55
1578.07
)


20
(
10695.5
10667.5
10583.3
10442.9
10246.4
9993.65
9684.76
9319.66
8898.34
8420.76
7886.9
7296.74
6650.24
5947.37
5188.1
4372.4
1687.55
1623.6
1561.73
1501.82
)


20
(
10688.9
10660.6
10575.7
10434.2
10236
9981.26
9669.84
9301.76
8876.99
8395.51
7857.29
7262.31
6610.54
5901.95
5136.51
4314.18
1607.54
1543.07
1480.7
1420.29
)


20
(
10531.9
10503.8
10419.6
10279.1
10082.5
9829.69
9520.67
9155.41
8733.91
8256.13
7722.06
7131.67
6484.93
5781.82
5022.29
4206.33
1520.65
1456.67
1394.79
1334.85
)


20
(
10227.1
10199.7
10117.4
9980.25
9788.26
9541.4
9239.65
8883
8471.43
8004.91
7483.43
6906.95
6275.46
5588.93
4847.32
4050.61
1428.31
1365.85
1305.42
1246.9
)


20
(
9779.29
9752.96
9673.97
9542.32
9357.99
9120.99
8831.28
8488.87
8093.73
7645.85
7145.19
6591.74
5985.48
5326.37
4614.39
3849.52
1332.03
1272.06
1214.05
1157.87
)


20
(
9195.5
9170.68
9096.23
8972.13
8798.38
8574.98
8301.9
7979.14
7606.69
7184.51
6712.59
6190.92
5619.46
4998.2
4327.1
3606.16
1233.24
1176.71
1122.03
1069.08
)


20
(
8484.49
8461.57
8392.83
8278.25
8117.83
7911.56
7659.43
7361.43
7017.54
6627.74
6192.03
5710.37
5182.75
4609.15
3989.55
3323.92
1133.06
1080.88
1030.39
981.498
)


20
(
7656.33
7635.68
7573.73
7470.49
7325.93
7140.06
6912.86
6644.33
6334.45
5983.21
5590.59
5156.57
4681.13
4164.26
3605.94
3006.15
1032
984.972
939.479
895.423
)


20
(
6721.88
6703.83
6649.66
6559.37
6432.97
6270.43
6071.76
5836.95
5565.98
5258.84
4915.51
4535.99
4120.25
3668.28
3180.07
2655.59
929.323
888.203
848.423
809.898
)


20
(
5691.45
5676.27
5630.73
5554.84
5448.59
5311.96
5144.96
4947.58
4719.8
4461.62
4173.03
3854
3504.54
3124.62
2714.22
2273.35
822.267
787.702
754.263
721.88
)


20
(
4573.71
4561.65
4525.47
4465.16
4380.73
4272.17
4139.48
3982.64
3801.65
3596.51
3367.19
3113.7
2836.02
2534.14
2208.05
1857.74
704.723
677.258
650.688
624.957
)


20
(
3374.25
3365.5
3339.24
3295.47
3234.19
3155.4
3059.09
2945.26
2813.9
2665.01
2498.57
2314.59
2113.06
1893.96
1657.29
1403.04
566.222
546.289
527.006
508.331
)


20
(
2098.83
2093.52
2077.58
2051.02
2013.83
1966.02
1907.57
1838.49
1758.78
1668.43
1567.44
1455.81
1333.52
1200.59
1057
902.745
395.059
382.966
371.266
359.937
)


20
(
767.01
765.218
759.842
750.881
738.337
722.21
702.499
679.206
652.331
621.875
587.839
550.223
509.028
464.256
415.907
363.982
193.105
189.034
185.096
181.282
)


20
(
2410.29
2408.62
2403.62
2395.27
2383.58
2368.53
2350.11
2328.31
2303.11
2274.49
2242.45
2206.94
2167.96
2125.48
2079.47
2029.91
1866.54
1862.65
1858.89
1855.26
)


20
(
3607.92
3602.68
3586.95
3560.72
3524
3476.77
3419.01
3350.72
3271.87
3182.46
3082.44
2971.81
2850.54
2718.61
2575.98
2422.63
1917.66
1905.64
1894.01
1882.75
)


20
(
4765.09
4756.35
4730.15
4686.46
4625.3
4546.64
4450.48
4336.79
4205.57
4056.78
3890.4
3706.42
3504.8
3285.52
3048.55
2793.87
1955.38
1935.41
1916.09
1897.38
)


20
(
5863.95
5851.86
5815.6
5755.16
5670.53
5561.7
5428.66
5271.39
5089.87
4884.08
4653.99
4399.59
4120.83
3817.7
3490.16
3138.18
1979.48
1951.89
1925.19
1899.34
)


20
(
6887.51
6872.27
6826.53
6750.28
6643.54
6506.27
6338.46
6140.11
5911.18
5651.65
5361.51
5040.71
4689.24
4307.06
3894.15
3450.46
1989.93
1955.15
1921.5
1888.91
)


20
(
7819.92
7801.76
7747.26
7656.43
7529.26
7365.72
7165.82
6929.52
6656.82
6347.67
6002.06
5619.97
5201.35
4746.18
4254.43
3726.06
1986.83
1945.41
1905.33
1866.52
)


20
(
8646.71
8625.91
8563.53
8459.55
8313.96
8126.75
7897.91
7627.42
7315.25
6961.38
6565.79
6128.44
5649.31
5128.35
4565.55
3960.86
1970.45
1923.05
1877.18
1832.77
)


20
(
9355.01
9331.92
9262.63
9147.14
8985.45
8777.53
8523.38
8222.98
7876.29
7483.3
7043.98
6558.3
6026.23
5447.73
4822.78
4151.33
1941.23
1888.59
1837.66
1788.34
)


20
(
9933.82
9908.79
9833.69
9708.53
9533.29
9307.95
9032.51
8706.94
8331.23
7905.33
7429.24
6902.91
6326.31
5699.42
5022.2
4294.62
1899.76
1842.71
1787.53
1734.08
)


20
(
10374.1
10347.5
10267.8
10135
9948.94
9709.75
9417.38
9071.8
8672.99
8220.93
7715.58
7156.93
6544.93
5879.56
5160.78
4388.56
1846.78
1786.24
1727.67
1670.95
)


20
(
10669
10641.3
10558.2
10419.8
10225.9
9976.68
9671.99
9311.87
8896.27
8425.19
7898.59
7316.44
6678.71
5985.38
5236.39
4431.73
1783.22
1720.13
1659.1
1600
)


20
(
10813.9
10785.6
10700.4
10558.6
10360
10104.6
9792.4
9423.42
8997.61
8514.96
7975.42
7378.98
6725.6
6015.26
5247.91
4423.53
1710.11
1645.48
1582.95
1522.4
)


20
(
10806.7
10778.1
10692.2
10549.2
10349
10091.5
9776.76
9404.76
8975.47
8488.87
7944.93
7343.62
6684.91
5968.78
5195.19
4364.11
1628.67
1563.51
1500.48
1439.43
)


20
(
10647.4
10619
10533.8
10391.9
10193.2
9937.69
9625.38
9256.24
8830.25
8347.39
7807.64
7210.97
6557.35
5846.75
5079.14
4254.49
1540.22
1475.57
1413.02
1352.45
)


20
(
10338.6
10310.9
10227.8
10089.2
9895.17
9645.68
9340.72
8980.27
8564.32
8092.84
7565.81
6983.2
6344.99
5651.14
4901.64
4096.45
1446.24
1383.11
1322.04
1262.89
)


20
(
9885.42
9858.81
9778.98
9645.92
9459.64
9220.11
8927.32
8581.27
8181.92
7729.27
7223.29
6663.95
6051.23
5385.1
4665.55
3892.54
1348.24
1287.63
1229
1172.22
)


20
(
9294.74
9269.65
9194.41
9068.99
8893.39
8667.61
8391.63
8065.44
7689.01
7262.34
6785.4
6258.17
5680.63
5052.75
4374.52
3645.89
1247.71
1190.58
1135.32
1081.8
)


20
(
8575.52
8552.36
8482.89
8367.09
8204.96
7996.49
7741.68
7440.51
7092.96
6699.01
6258.66
5771.88
5238.64
4658.93
4032.73
3360.01
1145.82
1093.08
1042.06
992.645
)


20
(
7738.01
7717.14
7654.53
7550.18
7404.09
7216.24
6986.63
6715.24
6402.06
6047.07
5650.27
5211.63
4731.13
4208.76
3644.49
3038.31
1043.13
995.607
949.63
905.104
)


20
(
6793.2
6774.95
6720.21
6628.96
6501.21
6336.95
6136.16
5898.85
5624.99
5314.58
4967.6
4584.03
4163.87
3707.09
3213.67
2683.6
938.954
897.395
857.192
818.256
)


20
(
5751.54
5736.2
5690.18
5613.48
5506.09
5368.02
5199.24
4999.75
4769.55
4508.62
4216.95
3894.53
3541.35
3157.38
2742.62
2297.05
830.509
795.576
761.781
729.052
)


20
(
4621.79
4609.61
4573.04
4512.09
4426.77
4317.05
4182.94
4024.44
3841.52
3634.19
3402.44
3146.25
2865.61
2560.52
2230.95
1876.91
711.617
683.86
657.007
631.001
)


20
(
3409.53
3400.68
3374.14
3329.91
3267.98
3188.35
3091.01
2975.97
2843.21
2692.74
2524.53
2338.6
2134.92
1913.49
1674.3
1417.35
571.618
551.473
531.984
513.11
)


20
(
2120.42
2115.06
2098.95
2072.11
2034.52
1986.2
1927.13
1857.32
1776.76
1685.45
1583.39
1470.57
1346.98
1212.64
1067.52
911.628
398.543
386.321
374.498
363.047
)


20
(
774.264
772.453
767.02
757.965
745.289
728.991
709.072
685.533
658.375
627.597
593.201
555.188
513.558
468.312
419.451
366.977
194.291
190.177
186.197
182.343
)


20
(
2410.29
2408.62
2403.62
2395.27
2383.58
2368.53
2350.11
2328.31
2303.11
2274.49
2242.45
2206.94
2167.96
2125.48
2079.47
2029.91
1866.54
1862.65
1858.89
1855.26
)


20
(
3607.92
3602.68
3586.95
3560.72
3524
3476.77
3419.01
3350.72
3271.87
3182.46
3082.44
2971.81
2850.54
2718.61
2575.98
2422.63
1917.66
1905.64
1894.01
1882.75
)


20
(
4765.09
4756.35
4730.15
4686.47
4625.3
4546.64
4450.48
4336.79
4205.57
4056.78
3890.4
3706.42
3504.8
3285.52
3048.55
2793.87
1955.38
1935.41
1916.09
1897.38
)


20
(
5863.95
5851.86
5815.6
5755.16
5670.53
5561.7
5428.66
5271.39
5089.87
4884.08
4653.99
4399.59
4120.83
3817.7
3490.16
3138.18
1979.48
1951.89
1925.19
1899.34
)


20
(
6887.51
6872.27
6826.52
6750.28
6643.54
6506.27
6338.46
6140.11
5911.18
5651.65
5361.51
5040.71
4689.24
4307.06
3894.14
3450.46
1989.93
1955.15
1921.5
1888.91
)


20
(
7819.92
7801.76
7747.26
7656.43
7529.26
7365.72
7165.82
6929.52
6656.81
6347.67
6002.06
5619.97
5201.35
4746.18
4254.43
3726.06
1986.83
1945.41
1905.33
1866.52
)


20
(
8646.71
8625.91
8563.53
8459.55
8313.96
8126.75
7897.91
7627.42
7315.25
6961.38
6565.79
6128.44
5649.31
5128.35
4565.55
3960.86
1970.45
1923.05
1877.18
1832.77
)


20
(
9355.01
9331.92
9262.63
9147.14
8985.45
8777.53
8523.38
8222.97
7876.29
7483.3
7043.98
6558.3
6026.23
5447.73
4822.78
4151.33
1941.23
1888.59
1837.66
1788.34
)


20
(
9933.82
9908.79
9833.69
9708.53
9533.29
9307.95
9032.51
8706.94
8331.23
7905.33
7429.24
6902.91
6326.31
5699.42
5022.2
4294.62
1899.76
1842.71
1787.53
1734.08
)


20
(
10374.1
10347.5
10267.8
10135
9948.94
9709.75
9417.38
9071.8
8672.99
8220.93
7715.58
7156.93
6544.93
5879.56
5160.78
4388.56
1846.78
1786.24
1727.67
1670.95
)


20
(
10669
10641.3
10558.2
10419.8
10225.9
9976.67
9671.99
9311.87
8896.27
8425.19
7898.59
7316.44
6678.71
5985.38
5236.39
4431.73
1783.22
1720.13
1659.1
1600
)


20
(
10813.9
10785.6
10700.4
10558.6
10360
10104.6
9792.4
9423.42
8997.61
8514.96
7975.42
7378.98
6725.6
6015.26
5247.91
4423.53
1710.11
1645.48
1582.95
1522.4
)


20
(
10806.7
10778.1
10692.2
10549.2
10349
10091.5
9776.76
9404.76
8975.47
8488.87
7944.93
7343.62
6684.91
5968.78
5195.19
4364.11
1628.67
1563.51
1500.48
1439.43
)


20
(
10647.4
10619
10533.8
10391.9
10193.2
9937.69
9625.38
9256.24
8830.25
8347.39
7807.64
7210.97
6557.35
5846.75
5079.14
4254.49
1540.22
1475.57
1413.02
1352.45
)


20
(
10338.6
10310.9
10227.8
10089.2
9895.17
9645.68
9340.72
8980.27
8564.32
8092.84
7565.81
6983.2
6344.99
5651.14
4901.64
4096.45
1446.24
1383.11
1322.04
1262.89
)


20
(
9885.42
9858.81
9778.98
9645.92
9459.64
9220.11
8927.32
8581.27
8181.92
7729.27
7223.29
6663.95
6051.23
5385.1
4665.55
3892.54
1348.24
1287.63
1229
1172.22
)


20
(
9294.74
9269.65
9194.41
9068.99
8893.39
8667.61
8391.63
8065.44
7689.01
7262.34
6785.4
6258.17
5680.63
5052.75
4374.52
3645.89
1247.71
1190.58
1135.32
1081.8
)


20
(
8575.52
8552.36
8482.89
8367.09
8204.96
7996.49
7741.68
7440.51
7092.96
6699.01
6258.66
5771.88
5238.64
4658.93
4032.73
3360.01
1145.82
1093.08
1042.06
992.645
)


20
(
7738.01
7717.14
7654.53
7550.18
7404.09
7216.24
6986.63
6715.24
6402.06
6047.07
5650.27
5211.63
4731.13
4208.76
3644.49
3038.31
1043.13
995.607
949.63
905.104
)


20
(
6793.2
6774.95
6720.21
6628.96
6501.21
6336.94
6136.16
5898.85
5624.99
5314.58
4967.6
4584.03
4163.87
3707.09
3213.67
2683.6
938.954
897.395
857.191
818.256
)


20
(
5751.54
5736.2
5690.18
5613.48
5506.09
5368.02
5199.24
4999.75
4769.55
4508.62
4216.95
3894.53
3541.35
3157.38
2742.62
2297.05
830.509
795.576
761.78
729.052
)


20
(
4621.8
4609.61
4573.04
4512.1
4426.77
4317.05
4182.95
4024.44
3841.52
3634.19
3402.44
3146.25
2865.61
2560.52
2230.95
1876.91
711.617
683.86
657.007
631.001
)


20
(
3409.53
3400.68
3374.14
3329.91
3267.98
3188.35
3091.01
2975.97
2843.21
2692.74
2524.53
2338.6
2134.92
1913.49
1674.3
1417.35
571.618
551.473
531.984
513.11
)


20
(
2120.42
2115.06
2098.95
2072.11
2034.52
1986.2
1927.13
1857.32
1776.76
1685.45
1583.39
1470.57
1346.98
1212.64
1067.52
911.628
398.543
386.321
374.498
363.047
)


20
(
774.264
772.453
767.02
757.965
745.289
728.991
709.072
685.534
658.375
627.597
593.201
555.188
513.558
468.312
419.451
366.977
194.291
190.177
186.197
182.343
)


20
(
2378.35
2376.7
2371.74
2363.48
2351.9
2336.99
2318.75
2297.16
2272.21
2243.88
2212.15
2176.99
2138.4
2096.33
2050.78
2001.71
1839.98
1836.13
1832.41
1828.81
)


20
(
3563.21
3558.02
3542.45
3516.49
3480.15
3433.4
3376.24
3308.65
3230.62
3142.12
3043.14
2933.66
2813.64
2683.07
2541.92
2390.16
1890.43
1878.53
1867.02
1855.87
)


20
(
4708.09
4699.45
4673.52
4630.29
4569.76
4491.92
4396.76
4284.25
4154.39
4007.15
3842.51
3660.45
3460.93
3243.94
3009.44
2757.41
1927.68
1907.92
1888.81
1870.3
)


20
(
5795.36
5783.4
5747.52
5687.71
5603.96
5496.27
5364.62
5209
5029.37
4825.73
4598.05
4346.31
4070.47
3770.51
3446.39
3098.1
1951.55
1924.24
1897.82
1872.24
)


20
(
6808.2
6793.11
6747.85
6672.41
6566.78
6430.95
6264.9
6068.62
5842.09
5585.29
5298.18
4980.75
4632.96
4254.79
3846.2
3407.17
1961.97
1927.55
1894.25
1862
)


20
(
7730.92
7712.95
7659.02
7569.14
7443.3
7281.48
7083.67
6849.86
6580.01
6274.11
5932.13
5554.04
5139.82
4689.43
4202.84
3680.02
1959.06
1918.07
1878.42
1840.02
)


20
(
8549.2
8528.62
8466.89
8364
8219.94
8034.7
7808.26
7540.61
7231.72
6881.57
6490.13
6057.37
5583.27
5067.79
4510.9
3912.56
1943.08
1896.17
1850.79
1806.84
)


20
(
9250.31
9227.46
9158.9
9044.62
8884.63
8678.9
8427.41
8130.16
7787.12
7398.26
6963.56
6482.98
5956.5
5384.09
4765.71
4101.32
1914.46
1862.37
1811.98
1763.18
)


20
(
9823.35
9798.58
9724.28
9600.43
9427.03
9204.06
8931.52
8609.37
8237.6
7816.19
7345.1
6824.3
6253.77
5633.48
4963.38
4243.45
1873.78
1817.34
1762.73
1709.85
)


20
(
10259.4
10233.1
10154.2
10022.8
9838.7
9602.03
9312.73
8970.78
8576.17
8128.86
7628.83
7076.05
6470.49
5812.12
5100.91
4336.81
1821.79
1761.88
1703.92
1647.8
)


20
(
10551.6
10524.2
10442
10305
10113.2
9866.59
9565.11
9208.77
8797.55
8331.43
7810.37
7234.34
6603.33
5917.29
5176.19
4380
1759.36
1696.94
1636.55
1578.07
)


20
(
10695.5
10667.5
10583.3
10442.9
10246.4
9993.65
9684.76
9319.66
8898.34
8420.76
7886.9
7296.74
6650.24
5947.37
5188.1
4372.4
1687.55
1623.6
1561.73
1501.82
)


20
(
10688.9
10660.6
10575.7
10434.2
10236
9981.26
9669.84
9301.76
8876.99
8395.51
7857.29
7262.31
6610.54
5901.95
5136.51
4314.18
1607.54
1543.07
1480.7
1420.3
)


20
(
10531.9
10503.8
10419.6
10279.1
10082.5
9829.69
9520.67
9155.41
8733.91
8256.13
7722.06
7131.67
6484.93
5781.82
5022.29
4206.33
1520.65
1456.68
1394.79
1334.85
)


20
(
10227.1
10199.7
10117.4
9980.25
9788.26
9541.4
9239.65
8883
8471.43
8004.91
7483.43
6906.95
6275.46
5588.93
4847.32
4050.61
1428.31
1365.85
1305.42
1246.9
)


20
(
9779.29
9752.96
9673.97
9542.32
9357.99
9120.99
8831.29
8488.87
8093.73
7645.85
7145.19
6591.74
5985.48
5326.37
4614.4
3849.53
1332.03
1272.06
1214.05
1157.87
)


20
(
9195.5
9170.68
9096.23
8972.13
8798.38
8574.98
8301.9
7979.15
7606.69
7184.51
6712.59
6190.92
5619.46
4998.2
4327.1
3606.16
1233.24
1176.71
1122.03
1069.08
)


20
(
8484.49
8461.57
8392.83
8278.25
8117.83
7911.56
7659.43
7361.43
7017.54
6627.74
6192.03
5710.37
5182.75
4609.15
3989.55
3323.92
1133.06
1080.88
1030.39
981.499
)


20
(
7656.33
7635.68
7573.74
7470.49
7325.93
7140.06
6912.86
6644.33
6334.45
5983.21
5590.59
5156.57
4681.13
4164.26
3605.94
3006.15
1032
984.973
939.48
895.423
)


20
(
6721.88
6703.83
6649.66
6559.37
6432.97
6270.43
6071.76
5836.95
5565.98
5258.84
4915.51
4535.99
4120.25
3668.28
3180.07
2655.59
929.324
888.204
848.424
809.899
)


20
(
5691.45
5676.27
5630.73
5554.84
5448.59
5311.96
5144.96
4947.58
4719.8
4461.62
4173.03
3854
3504.54
3124.62
2714.23
2273.35
822.268
787.703
754.264
721.88
)


20
(
4573.71
4561.65
4525.47
4465.16
4380.74
4272.18
4139.48
3982.64
3801.65
3596.51
3367.19
3113.7
2836.02
2534.14
2208.05
1857.74
704.724
677.259
650.689
624.958
)


20
(
3374.25
3365.5
3339.24
3295.47
3234.19
3155.4
3059.09
2945.26
2813.9
2665.01
2498.57
2314.59
2113.06
1893.96
1657.29
1403.04
566.223
546.29
527.007
508.332
)


20
(
2098.83
2093.52
2077.58
2051.02
2013.83
1966.02
1907.57
1838.49
1758.78
1668.43
1567.44
1455.81
1333.52
1200.59
1057
902.746
395.059
382.966
371.267
359.937
)


20
(
767.01
765.218
759.842
750.882
738.337
722.21
702.499
679.206
652.332
621.876
587.839
550.223
509.029
464.256
415.907
363.982
193.105
189.034
185.096
181.282
)


20
(
2418
2416.33
2411.31
2402.94
2391.22
2376.13
2357.67
2335.82
2310.56
2281.87
2249.75
2214.16
2175.08
2132.49
2086.37
2036.68
1872.91
1869.01
1865.25
1861.6
)


20
(
3618.82
3613.56
3597.79
3571.5
3534.68
3487.33
3429.43
3360.96
3281.91
3192.27
3092
2981.09
2859.5
2727.23
2584.23
2430.49
1924.22
1912.17
1900.51
1889.22
)


20
(
4779.05
4770.29
4744.02
4700.23
4638.9
4560.04
4463.63
4349.65
4218.09
4068.91
3902.11
3717.65
3515.51
3295.67
3058.08
2802.74
1962.07
1942.05
1922.69
1903.93
)


20
(
5880.8
5868.69
5832.33
5771.73
5686.89
5577.78
5444.39
5286.71
5104.72
4898.4
4667.72
4412.65
4133.17
3829.25
3500.86
3147.97
1986.27
1958.6
1931.83
1905.91
)


20
(
6907.05
6891.76
6845.9
6769.46
6662.44
6524.81
6356.57
6157.7
5928.18
5667.98
5377.08
5055.46
4703.07
4319.9
3905.91
3461.07
1996.75
1961.87
1928.13
1895.46
)


20
(
7841.88
7823.67
7769.04
7677.97
7550.46
7386.5
7186.08
6949.17
6675.75
6365.8
6019.3
5636.21
5216.5
4760.15
4267.12
3737.37
1993.62
1952.09
1911.91
1873
)


20
(
8670.8
8649.95
8587.4
8483.15
8337.18
8149.49
7920.05
7648.86
7335.88
6981.09
6584.47
6145.98
5665.6
5143.29
4579.02
3972.75
1977.16
1929.63
1883.65
1839.12
)


20
(
9380.9
9357.75
9288.28
9172.49
9010.38
8801.92
8547.11
8245.92
7898.33
7504.32
7063.85
6576.91
6043.45
5463.45
4836.87
4163.67
1947.81
1895.03
1843.97
1794.52
)


20
(
9961.15
9936.06
9860.77
9735.28
9559.58
9333.66
9057.5
8731.08
8354.39
7927.38
7450.05
6922.35
6344.25
5715.73
5036.74
4307.26
1906.15
1848.96
1793.63
1740.05
)


20
(
10402.5
10375.9
10295.9
10162.7
9976.23
9736.42
9443.29
9096.81
8696.96
8243.72
7737.06
7176.95
6563.36
5896.25
5175.6
4401.36
1852.96
1792.25
1733.53
1676.66
)


20
(
10698.1
10670.3
10587
10448.2
10253.9
10003.9
9698.47
9337.4
8920.73
8448.42
7920.44
7336.78
6697.39
6002.24
5251.3
4444.55
1789.12
1725.87
1664.68
1605.42
)


20
(
10843.3
10814.8
10729.5
10587.3
10388.1
10132.1
9819.08
9449.13
9022.22
8538.3
7997.36
7399.36
6744.28
6032.08
5262.73
4436.2
1715.71
1650.91
1588.22
1527.51
)


20
(
10835.8
10807.2
10721.1
10577.7
10377
10118.8
9803.26
9430.29
8999.89
8512.01
7966.65
7363.78
6703.36
5985.36
5209.75
4376.5
1633.92
1568.59
1505.39
1444.19
)


20
(
10676
10647.5
10562.2
10419.9
10220.6
9964.48
9651.35
9281.24
8854.15
8370.03
7828.87
7230.64
6575.31
5862.86
5093.25
4266.45
1545.1
1480.27
1417.56
1356.83
)


20
(
10366.3
10338.5
10255.2
10116.2
9921.68
9671.55
9365.79
9004.4
8587.37
8114.66
7586.25
7002.12
6362.24
5666.59
4915.13
4107.84
1450.71
1387.41
1326.18
1266.89
)


20
(
9911.74
9885.07
9805.03
9671.63
9484.85
9244.7
8951.15
8604.19
8203.81
7749.97
7242.67
6681.87
6067.55
5399.69
4678.26
3903.23
1352.29
1291.53
1232.74
1175.81
)


20
(
9319.36
9294.21
9218.77
9093.02
8916.97
8690.6
8413.9
8086.85
7709.45
7281.66
6803.48
6274.87
5695.82
5066.31
4386.3
3655.77
1251.33
1194.05
1138.64
1084.98
)


20
(
8598.11
8574.89
8505.24
8389.13
8226.58
8017.57
7762.1
7460.14
7111.68
6716.71
6275.2
5787.15
5252.52
4671.3
4043.46
3368.98
1149.02
1096.14
1044.98
995.442
)


20
(
7758.28
7737.35
7674.58
7569.96
7423.49
7235.15
7004.93
6732.84
6418.84
6062.93
5665.09
5225.3
4743.55
4219.82
3654.08
3046.31
1045.93
998.275
952.178
907.536
)


20
(
6810.9
6792.61
6737.72
6646.23
6518.15
6353.46
6152.15
5914.21
5639.64
5328.42
4980.53
4595.97
4174.71
3716.73
3222.03
2690.58
941.371
899.704
859.395
820.359
)


20
(
5766.46
5751.08
5704.94
5628.04
5520.37
5381.93
5212.72
5012.71
4781.91
4520.3
4227.87
3904.6
3550.5
3165.53
2749.68
2302.95
832.581
797.556
763.673
730.859
)


20
(
4633.74
4621.52
4584.86
4523.75
4438.2
4328.2
4193.74
4034.82
3851.43
3643.56
3411.2
3154.34
2872.97
2567.08
2236.66
1881.69
713.355
685.525
658.602
632.528
)


20
(
3418.3
3409.43
3382.82
3338.47
3276.38
3196.54
3098.95
2983.61
2850.51
2699.64
2530.99
2344.57
2140.36
1918.35
1678.54
1420.92
572.982
552.784
533.245
514.322
)


20
(
2125.79
2120.41
2104.26
2077.35
2039.67
1991.22
1932
1862.01
1781.24
1689.69
1587.36
1474.24
1350.34
1215.64
1070.15
913.849
399.426
387.173