/*--------------------------------*- C++ -*----------------------------------*\
| =========                 |                                                 |
| \\      /  F ield         | OpenFOAM: The Open Source CFD Toolbox           |
|  \\    /   O peration     | Version:  2212                                  |
|   \\  /    A nd           | Website:  www.openfoam.com                      |
|    \\/     M anipulation  |                                                 |
\*---------------------------------------------------------------------------*/
FoamFile
{
    version     2.0;
    format      ascii;
    arch        "LSB;label=32;scalar=64";
    class       volVectorField;
    location    "42/fluidRegion";
    object      U;
}
// * * * * * * * * * * * * * * * * * * * * * * * * * * * * * * * * * * * * * //

dimensions      [0 1 -1 0 0 0 0];

internalField   nonuniform List<vector> 
350
(
(-1.64732e-08 -9.51079e-09 -14.9686)
(-1.92843e-08 -1.11338e-08 -14.9672)
(-1.27357e-08 -7.35291e-09 -14.9658)
(-3.17307e-09 -1.83197e-09 -14.9644)
(6.72307e-09 3.88155e-09 -14.963)
(1.46515e-08 8.459e-09 -14.9616)
(1.8592e-08 1.07341e-08 -14.9602)
(1.7993e-08 1.03882e-08 -14.9589)
(1.43555e-08 8.2881e-09 -14.9576)
(1.02926e-08 5.94243e-09 -14.9564)
(7.88887e-09 4.55463e-09 -14.9552)
(7.50599e-09 4.33357e-09 -14.9541)
(7.72072e-09 4.45755e-09 -14.953)
(6.36312e-09 3.67374e-09 -14.952)
(1.94741e-09 1.12433e-09 -14.951)
(-5.28877e-09 -3.05346e-09 -14.95)
(-1.33534e-08 -7.70954e-09 -14.949)
(-1.94733e-08 -1.12429e-08 -14.9478)
(-2.1523e-08 -1.24262e-08 -14.9466)
(-1.91562e-08 -1.10598e-08 -14.9453)
(-1.40071e-08 -8.08699e-09 -14.944)
(-8.99605e-09 -5.19386e-09 -14.9426)
(-5.5996e-09 -3.23292e-09 -14.9412)
(3.29677e-09 1.90338e-09 -14.9398)
(2.77456e-08 1.60189e-08 -14.9695)
(-1.64732e-08 -9.51079e-09 -14.9686)
(-1.92843e-08 -1.11338e-08 -14.9672)
(-1.27357e-08 -7.35291e-09 -14.9658)
(-3.17307e-09 -1.83197e-09 -14.9644)
(6.72307e-09 3.88155e-09 -14.963)
(1.46515e-08 8.459e-09 -14.9616)
(1.8592e-08 1.07341e-08 -14.9602)
(1.7993e-08 1.03882e-08 -14.9589)
(1.43555e-08 8.2881e-09 -14.9576)
(1.02926e-08 5.94243e-09 -14.9564)
(7.88887e-09 4.55463e-09 -14.9552)
(7.50599e-09 4.33357e-09 -14.9541)
(7.72072e-09 4.45755e-09 -14.953)
(6.36312e-09 3.67374e-09 -14.952)
(1.94741e-09 1.12433e-09 -14.951)
(-5.28877e-09 -3.05346e-09 -14.95)
(-1.33534e-08 -7.70954e-09 -14.949)
(-1.94733e-08 -1.12429e-08 -14.9478)
(-2.1523e-08 -1.24262e-08 -14.9466)
(-1.91562e-08 -1.10598e-08 -14.9453)
(-1.40071e-08 -8.08699e-09 -14.944)
(-8.99605e-09 -5.19386e-09 -14.9426)
(-5.5996e-09 -3.23292e-09 -14.9412)
(3.29677e-09 1.90338e-09 -14.9398)
(2.77456e-08 1.60189e-08 -14.9695)
(-0.00196378 -0.00113379 -422.187)
(-0.000943981 -0.000545007 -414.306)
(-0.00102518 -0.000591886 -404.323)
(-0.000922394 -0.000532544 -392.009)
(-0.000834849 -0.000482 -377.558)
(-0.000753627 -0.000435107 -361.173)
(-0.000678296 -0.000391614 -343.062)
(-0.000605104 -0.000349357 -323.442)
(-0.000526044 -0.000303711 -302.531)
(-0.000427924 -0.000247062 -280.559)
(-0.000294363 -0.00016995 -257.765)
(-0.000109263 -6.30831e-05 -234.406)
(0.000131844 7.61199e-05 -210.763)
(0.000409457 0.0002364 -187.148)
(0.000692142 0.000399608 -163.899)
(0.000932577 0.000538423 -141.369)
(0.0010939 0.000631564 -119.905)
(0.00116651 0.000673483 -99.821)
(0.00116962 0.000675279 -81.3843)
(0.00113713 0.000656525 -64.8164)
(0.00109935 0.000634709 -50.3091)
(0.00106332 0.000613907 -38.0503)
(0.00101358 0.000585188 -28.2485)
(0.000879753 0.000507925 -21.1284)
(0.000836832 0.000483145 -16.6336)
(-0.00190193 -0.00111201 -424.903)
(-0.000696515 -0.000398698 -416.981)
(-0.000790183 -0.000455238 -406.966)
(-0.000718747 -0.000414696 -394.599)
(-0.000658203 -0.000380518 -380.079)
(-0.000602101 -0.000348202 -363.607)
(-0.000549925 -0.000317893 -345.396)
(-0.000498734 -0.000288168 -325.66)
(-0.000442726 -0.000255591 -304.622)
(-0.00037239 -0.000214638 -282.509)
(-0.000276477 -0.000158979 -259.563)
(-0.000143528 -8.21252e-05 -236.041)
(3.00086e-05 1.85885e-05 -212.226)
(0.00022344 0.000130803 -188.432)
(0.00041931 0.000244541 -165.001)
(0.000584 0.000340372 -142.29)
(0.000693043 0.000404285 -120.652)
(0.000741006 0.000433033 -100.405)
(0.00074153 0.000434924 -81.8219)
(0.000718349 0.000422922 -65.1261)
(0.000692044 0.000410195 -50.5113)
(0.00066998 0.000399646 -38.1671)
(0.000645338 0.000390009 -28.3033)
(0.000586785 0.000356825 -21.1454)
(0.000613465 0.000367117 -16.6356)
(-0.000872699 -0.000661196 -421.753)
(-0.000509993 -0.000963481 -413.871)
(-0.000497327 -0.000920929 -403.895)
(-0.000451966 -0.000809809 -391.591)
(-0.000409623 -0.000712099 -377.152)
(-0.000370834 -0.000621971 -360.782)
(-0.000334396 -0.000538671 -342.689)
(-0.000297544 -0.000458231 -323.088)
(-0.00025481 -0.000371608 -302.199)
(-0.000198101 -0.000264241 -280.25)
(-0.000118296 -0.000116916 -257.481)
(-8.79413e-06 8.67475e-05 -234.148)
(0.000132853 0.000350234 -210.533)
(0.000285395 0.000664756 -186.946)
(0.000434834 0.000984508 -163.726)
(0.000554049 0.00125692 -141.224)
(0.000626217 0.00143881 -119.787)
(0.00065036 0.00151844 -99.7281)
(0.000639679 0.00151818 -81.3139)
(0.000613088 0.00147684 -64.7655)
(0.000584491 0.00142776 -50.2743)
(0.000558671 0.00137376 -38.0282)
(0.000518926 0.00128013 -28.2356)
(0.000452407 0.00103851 -21.1215)
(0.000393313 0.000820274 -16.6314)
(-0.000974913 -0.000562865 -424.298)
(-0.000924067 -0.000533509 -416.385)
(-0.000889973 -0.000513825 -406.375)
(-0.00079202 -0.000457272 -394.02)
(-0.000704458 -0.000406718 -379.513)
(-0.000623815 -0.000360159 -363.06)
(-0.000548781 -0.000316838 -344.87)
(-0.000475317 -0.000274424 -325.16)
(-0.000394183 -0.000227581 -304.15)
(-0.000291156 -0.000168098 -282.068)
(-0.000148641 -8.58179e-05 -259.156)
(4.78031e-05 2.75991e-05 -235.67)
(0.00030193 0.000174319 -211.894)
(0.000594666 0.000343329 -188.14)
(0.000888712 0.000513097 -164.75)
(0.0011341 0.000654769 -142.08)
(0.0012932 0.000746629 -120.481)
(0.00135807 0.000784082 -100.272)
(0.00135121 0.000780121 -81.7221)
(0.00130868 0.000755567 -65.0555)
(0.00126007 0.000727502 -50.4653)
(0.00121039 0.000698818 -38.1408)
(0.00112745 0.000650934 -28.2913)
(0.000935087 0.000539871 -21.142)
(0.000761944 0.000439907 -16.6354)
(0.00095483 0.00055127 -424.298)
(0.00092342 0.000533135 -416.385)
(0.000887464 0.000512376 -406.375)
(0.000789683 0.000455922 -394.02)
(0.000701728 0.000405142 -379.513)
(0.000620925 0.00035849 -363.06)
(0.000546129 0.000315307 -344.87)
(0.000472687 0.000272905 -325.16)
(0.000391811 0.000226211 -304.15)
(0.000289285 0.000167019 -282.068)
(0.000147033 8.48895e-05 -259.156)
(-4.92998e-05 -2.84632e-05 -235.67)
(-0.000303151 -0.000175024 -211.894)
(-0.000595485 -0.000343802 -188.14)
(-0.000888852 -0.000513178 -164.75)
(-0.00113335 -0.000654341 -142.08)
(-0.0012917 -0.000745764 -120.481)
(-0.00135612 -0.000782955 -100.272)
(-0.00134849 -0.000778548 -81.7221)
(-0.00130522 -0.000753567 -65.0555)
(-0.00125576 -0.000725013 -50.4653)
(-0.00120452 -0.000695428 -38.1408)
(-0.00111899 -0.000646049 -28.2913)
(-0.000926956 -0.000535177 -21.142)
(-0.000754034 -0.000435341 -16.6354)
(0.000994823 0.000432462 -421.753)
(0.00108964 -4.179e-05 -413.871)
(0.00104505 -3.11699e-05 -403.895)
(0.000926297 -1.51793e-05 -391.591)
(0.000820456 -3.59323e-06 -377.152)
(0.000722987 7.67236e-06 -360.782)
(0.000632769 1.75849e-05 -342.689)
(0.000544715 2.574e-05 -323.088)
(0.000448477 3.19486e-05 -302.199)
(0.000327311 3.67013e-05 -280.25)
(0.000159971 4.11677e-05 -257.481)
(-7.11892e-05 4.81909e-05 -234.148)
(-0.000369992 5.70352e-05 -210.533)
(-0.00071845 8.2218e-05 -186.946)
(-0.00106977 0.000112842 -163.726)
(-0.00136491 0.000146168 -141.224)
(-0.00155816 0.000174836 -119.787)
(-0.00163892 0.000193896 -99.7281)
(-0.00163296 0.000203431 -81.3139)
(-0.00158349 0.000206359 -64.7655)
(-0.00152609 0.000206862 -50.2742)
(-0.00146561 0.000203152 -38.0282)
(-0.00136333 0.000192359 -28.2356)
(-0.00112088 0.000129172 -21.1215)
(-0.00090109 6.72662e-05 -16.6313)
(0.00190034 0.00111477 -424.903)
(0.000694463 0.000401814 -416.981)
(0.00078854 0.000456597 -406.966)
(0.000717642 0.000414542 -394.599)
(0.000657391 0.000378783 -380.079)
(0.000601325 0.000346212 -363.607)
(0.000549086 0.000315828 -345.396)
(0.00049785 0.000286177 -325.66)
(0.000441848 0.00025366 -304.622)
(0.00037161 0.000213072 -282.509)
(0.000275711 0.000157444 -259.563)
(0.00014258 8.09198e-05 -236.041)
(-3.09205e-05 -1.96287e-05 -212.226)
(-0.000224327 -0.000131404 -188.432)
(-0.000419982 -0.000244636 -165.001)
(-0.000584216 -0.000339825 -142.29)
(-0.000692707 -0.000403061 -120.652)
(-0.000739829 -0.000431086 -100.405)
(-0.000738819 -0.000431851 -81.8219)
(-0.000712743 -0.000419358 -65.1261)
(-0.000682483 -0.000405758 -50.5113)
(-0.0006549 -0.000394604 -38.1671)
(-0.000624131 -0.000381171 -28.3033)
(-0.000563424 -0.000347358 -21.1454)
(-0.000583773 -0.000370175 -16.6356)
(0.00196389 0.00113385 -422.187)
(0.000944003 0.00054502 -414.306)
(0.00102487 0.000591711 -404.323)
(0.000921899 0.000532258 -392.009)
(0.000834066 0.000481548 -377.558)
(0.000752807 0.000434633 -361.173)
(0.000677418 0.000391107 -343.062)
(0.000604244 0.00034886 -323.442)
(0.000525201 0.000303225 -302.531)
(0.000427212 0.000246651 -280.559)
(0.000293636 0.000169531 -257.765)
(0.000108574 6.2685e-05 -234.406)
(-0.000132472 -7.64829e-05 -210.763)
(-0.000409964 -0.000236693 -187.148)
(-0.000692435 -0.000399777 -163.899)
(-0.000932512 -0.000538386 -141.369)
(-0.00109342 -0.000631288 -119.905)
(-0.00116543 -0.000672862 -99.821)
(-0.00116752 -0.000674066 -81.3843)
(-0.00113351 -0.000654433 -64.8164)
(-0.00109353 -0.000631351 -50.3091)
(-0.00105456 -0.000608852 -38.0503)
(-0.00100055 -0.000577669 -28.2485)
(-0.000865205 -0.000499526 -21.1284)
(-0.000822326 -0.00047477 -16.6336)
(0.000972964 0.000561739 -424.298)
(0.000921513 0.000532034 -416.385)
(0.0008874 0.000512339 -406.375)
(0.000789449 0.000455787 -394.02)
(0.000701508 0.000405014 -379.513)
(0.000620641 0.000358326 -363.06)
(0.000545641 0.000315025 -344.87)
(0.00047207 0.000272549 -325.16)
(0.000390987 0.000225736 -304.15)
(0.000288242 0.000166416 -282.068)
(0.00014572 8.41309e-05 -259.156)
(-5.05653e-05 -2.91938e-05 -235.67)
(-0.000304923 -0.000176047 -211.894)
(-0.00059772 -0.000345093 -188.14)
(-0.000891758 -0.000514855 -164.75)
(-0.00113716 -0.00065654 -142.08)
(-0.00129683 -0.000748722 -120.481)
(-0.001363 -0.000786924 -100.272)
(-0.00135817 -0.000784136 -81.7221)
(-0.00131874 -0.00076137 -65.0555)
(-0.00127537 -0.000736335 -50.4653)
(-0.00123102 -0.000710727 -38.1408)
(-0.00115429 -0.000666426 -28.2913)
(-0.000964707 -0.000556972 -21.142)
(-0.000793822 -0.000458312 -16.6354)
(0.000870294 0.00066197 -421.753)
(0.000506928 0.000964432 -413.871)
(0.000494611 0.000921429 -403.895)
(0.000449691 0.000809816 -391.591)
(0.000407418 0.000711744 -377.152)
(0.000368553 0.000621565 -360.782)
(0.000332076 0.000538281 -342.689)
(0.00029514 0.000457893 -323.088)
(0.000252438 0.000371284 -302.199)
(0.000195949 0.000263926 -280.25)
(0.000116269 0.000116582 -257.481)
(6.60087e-06 -8.68795e-05 -234.148)
(-0.000135092 -0.000350422 -210.533)
(-0.000287604 -0.000664951 -186.946)
(-0.000436853 -0.000984847 -163.726)
(-0.000555727 -0.00125758 -141.224)
(-0.000627769 -0.00144001 -119.787)
(-0.000651992 -0.0015205 -99.7281)
(-0.000641397 -0.00152182 -81.3139)
(-0.000614639 -0.0014833 -64.7655)
(-0.000586587 -0.00143834 -50.2743)
(-0.000560625 -0.00138949 -38.0282)
(-0.000521638 -0.00130148 -28.2356)
(-0.000456483 -0.00106193 -21.1215)
(-0.000394975 -0.000848682 -16.6314)
(-0.000995573 -0.000431386 -421.753)
(-0.00109056 4.28404e-05 -413.871)
(-0.00104605 3.0835e-05 -403.895)
(-0.000927292 1.37673e-05 -391.591)
(-0.000821584 7.5745e-07 -377.152)
(-0.000724139 -1.07908e-05 -360.782)
(-0.000633955 -2.07996e-05 -342.689)
(-0.000545904 -2.89572e-05 -323.088)
(-0.000449677 -3.51102e-05 -302.199)
(-0.000328416 -3.93817e-05 -280.25)
(-0.000161105 -4.37514e-05 -257.481)
(7.02124e-05 -5.05474e-05 -234.148)
(0.000368845 -5.93167e-05 -210.533)
(0.000717303 -8.40491e-05 -186.946)
(0.00106862 -0.000114036 -163.726)
(0.00136385 -0.000146422 -141.224)
(0.00155706 -0.000174138 -119.787)
(0.00163781 -0.000192153 -99.7281)
(0.00163195 -0.000199856 -81.3139)
(0.00158286 -0.00020083 -64.7655)
(0.0015263 -0.000198457 -50.2742)
(0.00146759 -0.000191069 -38.0282)
(0.00136787 -0.000173366 -28.2356)
(0.00112761 -0.000108246 -21.1215)
(0.000908823 -5.55529e-05 -16.6313)
(-0.000956089 -0.000551997 -424.298)
(-0.00092512 -0.000534117 -416.385)
(-0.000889536 -0.000513573 -406.375)
(-0.000791998 -0.000457259 -394.02)
(-0.00070471 -0.000406863 -379.513)
(-0.000624141 -0.000360347 -363.06)
(-0.000549349 -0.000317166 -344.87)
(-0.000475994 -0.000274815 -325.16)
(-0.000395092 -0.000228106 -304.15)
(-0.000292232 -0.00016872 -282.068)
(-0.000150057 -8.66353e-05 -259.156)
(4.66088e-05 2.69096e-05 -235.67)
(0.000300165 0.0001733 -211.894)
(0.000592536 0.0003421 -188.14)
(0.000886038 0.000511553 -164.75)
(0.00113079 0.000652863 -142.08)
(0.00128905 0.000744232 -120.481)
(0.001353 0.000781153 -100.272)
(0.00134491 0.000776482 -81.722)
(0.00130099 0.000751126 -65.0555)
(0.00125061 0.00072204 -50.4653)
(0.00119957 0.000692571 -38.1408)
(0.0011157 0.000644146 -28.2913)
(0.000925383 0.000534269 -21.142)
(0.000750323 0.000433198 -16.6354)
)
;

boundaryField
{
    outletCentralUnloaded
    {
        type            zeroGradient;
    }
    inletCentralUnloaded
    {
        type            fixedValue;
        value           uniform (0 0 -15);
    }
    outletFuelElement
    {
        type            zeroGradient;
    }
    inletFuelElement
    {
        type            fixedValue;
        value           uniform (0 0 -15);
    }
    defaultFaces
    {
        type            slip;
    }
    baffle_master
    {
        type            slip;
    }
    baffle_slave
    {
        type            slip;
    }
}


// ************************************************************************* //
