/*--------------------------------*- C++ -*----------------------------------*\
| =========                 |                                                 |
| \\      /  F ield         | OpenFOAM: The Open Source CFD Toolbox           |
|  \\    /   O peration     | Version:  2212                                  |
|   \\  /    A nd           | Website:  www.openfoam.com                      |
|    \\/     M anipulation  |                                                 |
\*---------------------------------------------------------------------------*/
FoamFile
{
    version     2.0;
    format      ascii;
    arch        "LSB;label=32;scalar=64";
    class       volTensorField;
    location    "150/fluidRegion";
    object      KdTotU;
}
// * * * * * * * * * * * * * * * * * * * * * * * * * * * * * * * * * * * * * //

dimensions      [1 -2 -2 0 0 0 0];

internalField   nonuniform List<tensor> 
17
(
(5252.12 0 0 0 5252.12 0 0 0 5252.12)
(5252.12 0 0 0 5252.12 0 0 0 5252.12)
(5948.92 0 0 0 5948.92 0 0 0 5948.92)
(6520.74 0 0 0 6520.74 0 0 0 6520.74)
(6746.86 0 0 0 6746.86 0 0 0 6746.86)
(6868.98 0 0 0 6868.98 0 0 0 6868.98)
(6943.99 0 0 0 6943.99 0 0 0 6943.99)
(6998.66 0 0 0 6998.66 0 0 0 6998.66)
(7043.72 0 0 0 7043.72 0 0 0 7043.72)
(7084.55 0 0 0 7084.55 0 0 0 7084.55)
(7123.82 0 0 0 7123.82 0 0 0 7123.82)
(7162.93 0 0 0 7162.93 0 0 0 7162.93)
(7202.64 0 0 0 7202.64 0 0 0 7202.64)
(7243.39 0 0 0 7243.39 0 0 0 7243.39)
(7285.46 0 0 0 7285.46 0 0 0 7285.46)
(7329.19 0 0 0 7329.19 0 0 0 7329.19)
(7372.68 0 0 0 7372.68 0 0 0 7372.68)
)
;

boundaryField
{
    inlet
    {
        type            zeroGradient;
    }
    outlet
    {
        type            zeroGradient;
    }
    fixedWalls
    {
        type            zeroGradient;
    }
}


// ************************************************************************* //
