/*--------------------------------*- C++ -*----------------------------------*\
| =========                 |                                                 |
| \\      /  F ield         | OpenFOAM: The Open Source CFD Toolbox           |
|  \\    /   O peration     | Version:  2212                                  |
|   \\  /    A nd           | Website:  www.openfoam.com                      |
|    \\/     M anipulation  |                                                 |
\*---------------------------------------------------------------------------*/
FoamFile
{
    version     2.0;
    format      ascii;
    arch        "LSB;label=32;scalar=64";
    class       volScalarField;
    location    "150/fluidRegion";
    object      p;
}
// * * * * * * * * * * * * * * * * * * * * * * * * * * * * * * * * * * * * * //

dimensions      [1 -1 -2 0 0 0 0];

internalField   nonuniform List<scalar> 
17
(
1.47656e+07
1.47646e+07
1.47632e+07
1.4761e+07
1.47587e+07
1.47564e+07
1.47541e+07
1.47517e+07
1.47494e+07
1.4747e+07
1.47447e+07
1.47423e+07
1.47399e+07
1.47376e+07
1.47352e+07
1.47328e+07
1.47303e+07
)
;

boundaryField
{
    inlet
    {
        type            calculated;
        value           uniform 1.4766e+07;
    }
    outlet
    {
        type            calculated;
        value           uniform 1.47291e+07;
    }
    fixedWalls
    {
        type            calculated;
        value           nonuniform List<scalar> 
68
(
1.47656e+07
1.47646e+07
1.47632e+07
1.4761e+07
1.47587e+07
1.47564e+07
1.47541e+07
1.47517e+07
1.47494e+07
1.4747e+07
1.47447e+07
1.47423e+07
1.47399e+07
1.47376e+07
1.47352e+07
1.47328e+07
1.47303e+07
1.47656e+07
1.47646e+07
1.47632e+07
1.4761e+07
1.47587e+07
1.47564e+07
1.47541e+07
1.47517e+07
1.47494e+07
1.4747e+07
1.47447e+07
1.47423e+07
1.47399e+07
1.47376e+07
1.47352e+07
1.47328e+07
1.47303e+07
1.47656e+07
1.47646e+07
1.47632e+07
1.4761e+07
1.47587e+07
1.47564e+07
1.47541e+07
1.47517e+07
1.47494e+07
1.4747e+07
1.47447e+07
1.47423e+07
1.47399e+07
1.47376e+07
1.47352e+07
1.47328e+07
1.47303e+07
1.47656e+07
1.47646e+07
1.47632e+07
1.4761e+07
1.47587e+07
1.47564e+07
1.47541e+07
1.47517e+07
1.47494e+07
1.4747e+07
1.47447e+07
1.47423e+07
1.47399e+07
1.47376e+07
1.47352e+07
1.47328e+07
1.47303e+07
)
;
    }
}


// ************************************************************************* //
