/*--------------------------------*- C++ -*----------------------------------*\
| =========                 |                                                 |
| \\      /  F ield         | OpenFOAM: The Open Source CFD Toolbox           |
|  \\    /   O peration     | Version:  2212                                  |
|   \\  /    A nd           | Website:  www.openfoam.com                      |
|    \\/     M anipulation  |                                                 |
\*---------------------------------------------------------------------------*/
FoamFile
{
    version     2.0;
    format      ascii;
    arch        "LSB;label=32;scalar=64";
    class       volScalarField;
    location    "40/neutroRegion";
    object      TFuel;
}
// * * * * * * * * * * * * * * * * * * * * * * * * * * * * * * * * * * * * * //

dimensions      [0 0 0 1 0 0 0];

internalField   nonuniform List<scalar> 
350
(
0
0
0
0
0
0
0
0
0
0
0
0
0
0
0
0
0
0
0
0
0
0
0
0
0
0
0
0
0
0
0
0
0
0
0
0
0
0
0
0
0
0
0
0
0
0
0
0
0
0
2185.22
2971.13
3726.47
4439.76
5100.07
5697.27
6222.18
6666.69
7023.95
7288.43
7456.04
7524.2
7491.89
7359.7
7129.78
6805.8
6392.79
5896.83
5324.62
4682.97
3977.48
3211.76
2385.88
1499.49
565.859
2217.11
3012.21
3776.32
4497.81
5165.64
5769.56
6300.28
6749.61
7110.61
7377.71
7546.76
7615.16
7581.89
7447.54
7214.29
6885.89
6467.42
5965.11
5385.76
4736.33
4022.51
3247.92
2412.55
1515.89
571.365
2180.05
2964.51
3718.48
4430.48
5089.61
5685.76
6209.76
6653.52
7010.2
7274.27
7441.66
7509.79
7477.64
7345.79
7116.41
6793.14
6380.99
5886.03
5314.95
4674.54
3970.38
3206.07
2381.7
1496.92
564.991
2209.92
3002.88
3764.96
4484.55
5150.63
5752.99
6282.36
6730.57
7090.7
7357.18
7525.89
7594.23
7561.18
7427.31
7194.83
6867.44
6450.23
5949.38
5371.68
4724.04
4012.13
3239.58
2406.4
1512.1
570.096
2209.92
3002.88
3764.96
4484.55
5150.63
5752.99
6282.36
6730.57
7090.7
7357.18
7525.89
7594.23
7561.18
7427.31
7194.83
6867.44
6450.23
5949.38
5371.68
4724.04
4012.13
3239.58
2406.4
1512.1
570.096
2180.06
2964.51
3718.48
4430.48
5089.61
5685.76
6209.76
6653.52
7010.2
7274.27
7441.66
7509.79
7477.64
7345.8
7116.41
6793.14
6380.99
5886.04
5314.95
4674.54
3970.38
3206.07
2381.7
1496.92
564.991
2217.11
3012.21
3776.32
4497.81
5165.64
5769.56
6300.28
6749.61
7110.61
7377.71
7546.76
7615.16
7581.89
7447.54
7214.29
6885.89
6467.42
5965.11
5385.76
4736.33
4022.51
3247.92
2412.55
1515.89
571.365
2185.22
2971.13
3726.47
4439.76
5100.07
5697.27
6222.18
6666.69
7023.95
7288.43
7456.04
7524.2
7491.89
7359.7
7129.78
6805.8
6392.79
5896.83
5324.62
4682.97
3977.48
3211.76
2385.89
1499.49
565.859
2209.92
3002.88
3764.96
4484.55
5150.63
5752.99
6282.36
6730.57
7090.7
7357.18
7525.89
7594.23
7561.18
7427.31
7194.83
6867.44
6450.23
5949.38
5371.68
4724.04
4012.13
3239.58
2406.4
1512.1
570.096
2180.05
2964.51
3718.48
4430.48
5089.61
5685.76
6209.76
6653.52
7010.2
7274.27
7441.66
7509.79
7477.64
7345.79
7116.41
6793.14
6380.99
5886.03
5314.95
4674.54
3970.38
3206.07
2381.7
1496.92
564.991
2180.06
2964.51
3718.48
4430.48
5089.61
5685.76
6209.76
6653.52
7010.2
7274.27
7441.66
7509.79
7477.64
7345.8
7116.41
6793.14
6380.99
5886.04
5314.95
4674.54
3970.38
3206.07
2381.7
1496.92
564.991
2209.92
3002.88
3764.96
4484.55
5150.63
5752.99
6282.36
6730.57
7090.7
7357.18
7525.89
7594.23
7561.18
7427.31
7194.83
6867.44
6450.23
5949.38
5371.68
4724.04
4012.13
3239.58
2406.4
1512.1
570.096
)
;

boundaryField
{
    outletCentralUnloaded
    {
        type            zeroGradient;
    }
    inletCentralUnloaded
    {
        type            zeroGradient;
    }
    outletFuelElement
    {
        type            zeroGradient;
    }
    inletFuelElement
    {
        type            zeroGradient;
    }
    defaultFaces
    {
        type            zeroGradient;
    }
}


// ************************************************************************* //
