/*--------------------------------*- C++ -*----------------------------------*\
| =========                 |                                                 |
| \\      /  F ield         | OpenFOAM: The Open Source CFD Toolbox           |
|  \\    /   O peration     | Version:  2212                                  |
|   \\  /    A nd           | Website:  www.openfoam.com                      |
|    \\/     M anipulation  |                                                 |
\*---------------------------------------------------------------------------*/
FoamFile
{
    version     2.0;
    format      ascii;
    arch        "LSB;label=32;scalar=64";
    class       surfaceScalarField;
    location    "100/fluidRegion";
    object      alphaPhi;
}
// * * * * * * * * * * * * * * * * * * * * * * * * * * * * * * * * * * * * * //

dimensions      [0 3 -1 0 0 0 0];

oriented        oriented;

internalField   nonuniform List<scalar> 
661
(
-0.000539003
2.8408e-13
-0.000538952
1.07867e-13
-0.000538898
-3.94007e-13
-0.000538844
-9.36296e-13
-0.000538792
-1.31825e-12
-0.000538744
-1.37664e-12
-0.0005387
-1.05516e-12
-0.000538659
-4.40872e-13
-0.000538618
2.7605e-13
-0.000538575
9.08184e-13
-0.000538528
1.29789e-12
-0.000538478
1.37937e-12
-0.000538425
1.17349e-12
-0.000538372
7.71632e-13
-0.000538319
3.03037e-13
-0.000538269
-9.11212e-14
-0.000538224
-3.18041e-13
-0.000538183
-3.29194e-13
-0.000538144
-1.47994e-13
-0.000538108
1.46117e-13
-0.000538071
4.69247e-13
-0.000538032
7.50015e-13
-0.000537991
7.64548e-13
-0.000537948
-2.22552e-14
-1.22598e-12
-0.000539003
-0.000538952
-0.000538898
-0.000538844
-0.000538792
-0.000538744
-0.0005387
-0.000538659
-0.000538618
-0.000538575
-0.000538528
-0.000538478
-0.000538425
-0.000538372
-0.000538319
-0.000538269
-0.000538224
-0.000538183
-0.000538144
-0.000538108
-0.000538071
-0.000538032
-0.000537991
-0.000537948
-0.0202316
1.41396e-06
-0.0198033
6.71018e-07
-0.0192586
7.26994e-07
-0.0186066
6.5417e-07
-0.0178567
5.92146e-07
-0.0170189
5.34706e-07
-0.0161035
4.81529e-07
-0.0151209
4.30003e-07
-0.0140818
3.74387e-07
-0.0129975
3.05248e-07
-0.0118797
2.10728e-07
-0.0107413
7.91957e-08
-0.00959658
-9.28402e-08
-0.00846124
-2.91407e-07
-0.00735214
-4.93982e-07
-0.00628645
-6.66372e-07
-0.00528038
-7.81874e-07
-0.00434809
-8.33408e-07
-0.00350116
-8.3492e-07
-0.00274931
-8.10887e-07
-0.00210126
-7.83685e-07
-0.00156638
-7.58566e-07
-0.00115537
-7.2441e-07
-0.00087935
-6.30121e-07
-6.00875e-07
-0.0203616
-4.44742e-08
-3.34143e-08
-0.0199323
-1.80955e-07
-1.72656e-07
-0.0193855
-1.72522e-07
-1.63103e-07
-0.0187304
-1.50459e-07
-1.40517e-07
-0.0179768
-1.3145e-07
-1.20927e-07
-0.0171344
-1.13923e-07
-1.02837e-07
-0.0162138
-9.7891e-08
-8.62256e-08
-0.0152252
-8.27156e-08
-7.03426e-08
-0.0141796
-6.68726e-08
-5.3707e-08
-0.0130882
-4.77083e-08
-3.36344e-08
-0.0119628
-2.15187e-08
-6.36086e-09
-0.0108163
1.51975e-08
3.15099e-08
-0.00966307
6.27977e-08
8.06245e-08
-0.00851894
1.22565e-07
1.41957e-07
-0.00740099
1.84351e-07
2.05495e-07
-0.00632664
2.38349e-07
2.61408e-07
-0.00531238
2.75541e-07
3.00671e-07
-0.00437258
2.92994e-07
3.20188e-07
-0.00351898
2.94511e-07
3.23717e-07
-0.00276143
2.87741e-07
3.18415e-07
-0.0021087
2.79096e-07
3.10596e-07
-0.00157023
2.69255e-07
2.99534e-07
-0.00115682
2.5078e-07
2.78477e-07
-0.000879545
1.98116e-07
2.19771e-07
1.5141e-07
1.6384e-07
-0.0202103
6.8849e-07
-0.0197823
6.48191e-07
-0.0192381
6.23494e-07
-0.0185866
5.54308e-07
-0.0178374
4.92461e-07
-0.0170004
4.35639e-07
-0.0160859
3.83054e-07
-0.0151043
3.31707e-07
-0.0140663
2.75141e-07
-0.0129831
2.03118e-07
-0.0118665
1.02882e-07
-0.0107295
-3.61998e-08
-0.00958612
-2.16767e-07
-0.00845216
-4.25431e-07
-0.00734445
-6.35349e-07
-0.00628011
-8.10494e-07
-0.00527531
-9.2364e-07
-0.00434418
-9.68966e-07
-0.00349826
-9.62516e-07
-0.00274728
-9.30323e-07
-0.00209992
-8.93879e-07
-0.00156557
-8.57011e-07
-0.00115493
-7.96772e-07
-0.000879132
-6.6015e-07
-5.37522e-07
-0.0203326
7.45017e-10
-0.0199035
-3.22932e-09
-0.0193571
-3.07535e-09
-0.0187027
-3.06463e-09
-0.0179498
-2.85357e-09
-0.0171084
-2.58762e-09
-0.0161889
-2.3127e-09
-0.0152017
-1.88289e-09
-0.0141575
-1.38336e-09
-0.0130676
-8.09408e-10
-0.0119439
-5.17435e-11
-0.0107993
8.3728e-10
-0.00964794
1.84851e-09
-0.00850579
2.92215e-09
-0.00738984
4.0328e-09
-0.00631747
5.1435e-09
-0.00530507
6.26408e-09
-0.00436698
7.34439e-09
-0.00351491
8.16977e-09
-0.00275867
8.65867e-09
-0.00210701
8.75058e-09
-0.00156937
8.09738e-09
-0.00115652
6.90948e-09
-0.000879527
4.98466e-09
2.91436e-09
-0.0203327
-6.87187e-07
-0.0199035
-6.55335e-07
-0.0193571
-6.30132e-07
-0.0187027
-5.61004e-07
-0.0179498
-4.98889e-07
-0.0171085
-4.41738e-07
-0.0161889
-3.88776e-07
-0.0152017
-3.36828e-07
-0.0141575
-2.79558e-07
-0.0130677
-2.06712e-07
-0.0119439
-1.05372e-07
-0.0107993
3.50009e-08
-0.00964795
2.17076e-07
-0.0085058
4.27343e-07
-0.00738985
6.38959e-07
-0.00631747
8.15886e-07
-0.00530508
9.3098e-07
-0.00436699
9.78373e-07
-0.00351492
9.73885e-07
-0.00275867
9.43447e-07
-0.00210701
9.08506e-07
-0.00156937
8.72156e-07
-0.00115652
8.11617e-07
-0.000879528
6.72423e-07
5.46223e-07
-0.0202103
3.82988e-08
-0.0197824
1.78607e-07
-0.0192381
1.69341e-07
-0.0185866
1.46913e-07
-0.0178374
1.27554e-07
-0.0170004
1.09607e-07
-0.0160859
9.30719e-08
-0.0151043
7.73464e-08
-0.0140663
6.082e-08
-0.0129831
4.08457e-08
-0.0118665
1.37774e-08
-0.0107295
-2.38528e-08
-0.00958613
-7.25369e-08
-0.00845217
-1.3343e-07
-0.00734446
-1.96387e-07
-0.00628012
-2.5149e-07
-0.00527532
-2.89593e-07
-0.00434418
-3.07565e-07
-0.00349826
-3.09216e-07
-0.00274728
-3.01893e-07
-0.00209992
-2.92025e-07
-0.00156557
-2.802e-07
-0.00115493
-2.59279e-07
-0.00087913
-2.03606e-07
-1.52659e-07
-0.0203616
-1.4144e-06
-3.68867e-08
-0.0199323
-6.71903e-07
-1.71224e-07
-0.0193855
-7.28052e-07
-1.62081e-07
-0.0187304
-6.55294e-07
-1.39611e-07
-0.0179768
-5.93245e-07
-1.20335e-07
-0.0171344
-5.35803e-07
-1.02608e-07
-0.0162138
-4.82644e-07
-8.63987e-08
-0.0152252
-4.3109e-07
-7.10797e-08
-0.0141796
-3.75479e-07
-5.5099e-08
-0.0130882
-3.06325e-07
-3.57852e-08
-0.0119628
-2.1168e-07
-9.51795e-09
-0.0108163
-7.99295e-08
2.72093e-08
-0.00966307
9.24695e-08
7.47527e-08
-0.00851894
2.91527e-07
1.34296e-07
-0.00740099
4.94867e-07
1.9565e-07
-0.00632664
6.68458e-07
2.48856e-07
-0.00531238
7.85858e-07
2.84617e-07
-0.00437258
8.40259e-07
2.99664e-07
-0.00351898
8.45923e-07
2.97557e-07
-0.00276143
8.27681e-07
2.85575e-07
-0.0021087
8.08447e-07
2.69827e-07
-0.00157023
7.92171e-07
2.51758e-07
-0.00115682
7.67076e-07
2.25828e-07
-0.000879545
6.75513e-07
1.70008e-07
6.43227e-07
1.25296e-07
-0.0202316
-0.0198033
-0.0192586
-0.0186066
-0.0178567
-0.0170189
-0.0161035
-0.0151209
-0.0140818
-0.0129975
-0.0118797
-0.0107413
-0.00959658
-0.00846124
-0.00735214
-0.00628645
-0.00528038
-0.00434809
-0.00350116
-0.00274931
-0.00210126
-0.00156637
-0.00115537
-0.00087935
-0.0203326
-6.98098e-07
6.71834e-09
-0.0199035
-6.5991e-07
4.16387e-09
-0.0193571
-6.36015e-07
4.89313e-09
-0.0187027
-5.67312e-07
5.30111e-09
-0.0179498
-5.05728e-07
5.65541e-09
-0.0171084
-4.49138e-07
6.06371e-09
-0.0161889
-3.96791e-07
6.56229e-09
-0.0152017
-3.45585e-07
7.09324e-09
-0.0141575
-2.89174e-07
7.75053e-09
-0.0130676
-2.17341e-07
8.53106e-09
-0.0119439
-1.17203e-07
9.41896e-09
-0.0107993
2.18002e-08
1.02888e-08
-0.00964794
2.02211e-07
1.1617e-08
-0.00850579
4.1062e-07
1.31132e-08
-0.00738984
6.20013e-07
1.49922e-08
-0.00631747
7.94265e-07
1.73279e-08
-0.00530507
9.05926e-07
2.02574e-08
-0.00436698
9.48916e-07
2.38817e-08
-0.00351491
9.38474e-07
2.86628e-08
-0.00275867
9.00465e-07
3.448e-08
-0.00210701
8.55437e-07
4.14277e-08
-0.00156937
8.08614e-07
4.7775e-08
-0.00115652
7.38898e-07
5.23684e-08
-0.000879527
6.00031e-07
4.93294e-08
4.8848e-07
3.84765e-08
-0.0202103
-0.0197823
-0.0192381
-0.0185866
-0.0178374
-0.0170004
-0.0160859
-0.0151043
-0.0140663
-0.0129831
-0.0118665
-0.0107295
-0.00958612
-0.00845216
-0.00734445
-0.00628011
-0.00527531
-0.00434418
-0.00349826
-0.00274728
-0.00209993
-0.00156557
-0.00115493
-0.000879133
-0.0202103
6.84156e-07
-0.0197824
6.51977e-07
-0.0192381
6.26495e-07
-0.0185866
5.57165e-07
-0.0178374
4.95022e-07
-0.0170004
4.37791e-07
-0.0160859
3.84686e-07
-0.0151043
3.32695e-07
-0.0140663
2.75319e-07
-0.0129831
2.02343e-07
-0.0118665
1.00966e-07
-0.0107295
-3.93458e-08
-0.00958613
-2.21493e-07
-0.00845217
-4.31849e-07
-0.00734446
-6.43571e-07
-0.00628012
-8.20508e-07
-0.00527532
-9.35288e-07
-0.00434418
-9.81704e-07
-0.00349826
-9.75383e-07
-0.00274728
-9.41463e-07
-0.00209992
-9.01238e-07
-0.00156557
-8.57819e-07
-0.00115493
-7.88953e-07
-0.000879131
-6.44568e-07
-5.15585e-07
-0.0203327
-0.0199035
-0.0193571
-0.0187027
-0.0179498
-0.0171085
-0.0161889
-0.0152017
-0.0141575
-0.0130677
-0.0119439
-0.0107993
-0.00964795
-0.0085058
-0.00738985
-0.00631747
-0.00530508
-0.00436699
-0.00351492
-0.00275867
-0.00210701
-0.00156937
-0.00115652
-0.000879529
)
;

boundaryField
{
    outletCentralUnloaded
    {
        type            calculated;
        value           nonuniform List<scalar> 2(0.00053905 0.00053905);
    }
    inletCentralUnloaded
    {
        type            calculated;
        value           uniform -0.000540134;
    }
    outletFuelElement
    {
        type            calculated;
        value           nonuniform List<scalar> 
12
(
0.0205725
0.0207057
0.0205517
0.0206759
0.0206759
0.0205517
0.0207057
0.0205725
0.0206759
0.0205517
0.0205517
0.0206759
)
;
    }
    inletFuelElement
    {
        type            calculated;
        value           nonuniform List<scalar> 
12
(
-0.000722059
-0.00072206
-0.000722059
-0.000722059
-0.00072206
-0.000722059
-0.00072206
-0.000722059
-0.000722059
-0.000722059
-0.000722059
-0.00072206
)
;
    }
    defaultFaces
    {
        type            calculated;
        value           nonuniform List<scalar> 
450
(
2.28293e-24
-2.30249e-23
0
2.29104e-23
-1.88229e-24
0
7.32498e-24
7.92967e-24
0
-3.97189e-23
-2.04302e-23
0
-1.53877e-23
-2.80766e-23
0
-3.30979e-23
-1.52151e-23
0
-2.74024e-23
-1.87972e-23
0
-2.67191e-23
-8.77259e-24
0
-2.5079e-23
-8.40037e-24
0
-1.98071e-23
-5.07277e-24
0
-1.26753e-23
-4.39975e-24
0
-6.31987e-24
-2.94916e-24
0
5.06794e-24
1.35371e-24
0
1.75017e-23
5.71581e-24
0
3.34179e-23
1.74949e-23
0
4.45416e-23
1.16853e-23
0
3.75938e-23
-6.19915e-24
0
6.75623e-23
2.14568e-23
0
4.14543e-23
-3.28334e-23
0
-1.81959e-23
-3.93683e-23
0
-1.62295e-23
-2.81734e-23
0
4.4663e-23
-3.11636e-23
0
-1.78142e-23
2.66745e-23
0
-1.76685e-23
-1.91406e-23
0
-9.81283e-24
-1.95633e-23
0
3.20908e-23
0
2.40681e-23
0
0
0
1.60454e-23
0
-8.0227e-24
0
1.2034e-23
0
1.2034e-23
0
1.60454e-23
0
-4.01135e-24
0
6.01702e-24
0
3.00851e-24
0
-5.01419e-25
0
-6.01702e-24
0
-1.2034e-23
0
-2.40681e-23
0
-3.20908e-23
0
4.81362e-23
0
-1.60454e-23
0
3.20908e-23
0
-4.01135e-23
0
-3.20908e-23
0
2.40681e-23
0
1.60454e-23
0
-2.40681e-23
0
-1.60454e-23
0
-1.60454e-23
-8.0227e-24
0
-8.0227e-24
8.0227e-24
-8.0227e-24
-8.0227e-24
-8.0227e-24
8.0227e-24
-4.01135e-24
-2.00567e-24
5.01419e-25
0
0
1.60454e-23
0
-4.81362e-23
0
-1.60454e-23
0
3.20908e-23
-3.20908e-23
0
8.0227e-24
-8.0227e-24
0
0
0
0
0
0
0
0
0
0
0
0
0
0
0
0
0
0
0
0
0
0
0
0
0
-1.2034e-23
1.60454e-23
1.60454e-23
2.40681e-23
2.40681e-23
4.01135e-23
-1.60454e-23
-8.0227e-24
8.0227e-24
-1.2034e-23
-1.2034e-23
-8.0227e-24
-1.2034e-23
-1.60454e-23
-8.0227e-24
-4.01135e-24
1.60454e-23
-8.0227e-24
-6.01702e-24
-6.01702e-24
-3.00851e-24
-3.00851e-24
1.00284e-24
1.62961e-24
4.01135e-24
6.01702e-24
8.0227e-24
1.60454e-23
2.40681e-23
2.00567e-23
1.60454e-23
1.60454e-23
-3.20908e-23
4.81362e-23
4.81362e-23
2.40681e-23
-4.81362e-23
5.61589e-23
-3.20908e-23
-2.40681e-23
1.60454e-23
-3.20908e-23
-3.20908e-23
4.81362e-23
-8.0227e-24
-3.20908e-23
0
-8.0227e-24
-1.60454e-23
-2.00567e-23
2.27764e-23
0
0
1.4971e-23
0
0
1.79272e-23
0
-4.81362e-23
-4.96263e-23
0
8.0227e-24
2.84858e-23
0
0
-4.73552e-23
0
8.0227e-24
-3.86289e-23
0
8.0227e-24
-4.03796e-23
0
1.60454e-23
-2.79588e-23
0
-1.60454e-23
-2.94877e-23
0
8.0227e-24
-1.75117e-23
0
4.01135e-24
-6.4929e-24
0
1.00284e-24
8.5767e-24
-0
-2.00567e-24
2.91918e-23
-0
-8.0227e-24
4.58485e-23
-0
-8.0227e-24
6.38953e-23
-0
-8.0227e-24
3.09938e-23
-0
0
7.42754e-23
-0
-1.60454e-23
4.65175e-23
-0
-1.60454e-23
-2.1303e-23
-0
1.60454e-23
-8.50138e-24
-0
1.60454e-23
3.07811e-23
-0
0
-1.87338e-23
-0
1.60454e-23
-1.30206e-23
-0
1.60454e-23
-1.51522e-23
-0
1.60454e-23
0
0
0
-1.60454e-23
1.60454e-23
-1.60454e-23
8.0227e-24
0
0
-4.01135e-24
-4.01135e-24
0
4.01135e-24
8.0227e-24
1.60454e-23
1.60454e-23
-1.60454e-23
0
-3.20908e-23
1.60454e-23
1.60454e-23
-1.60454e-23
-3.20908e-23
0
0
2.60738e-23
0
3.20908e-23
0
8.0227e-24
0
1.60454e-23
0
-8.0227e-24
0
2.40681e-23
0
1.2034e-23
0
1.2034e-23
0
-4.01135e-24
0
6.01702e-24
0
3.00851e-24
0
-1.00284e-24
0
-4.01135e-24
-0
-1.60454e-23
-0
-1.60454e-23
-0
-2.40681e-23
-0
4.01135e-23
-0
-1.60454e-23
-0
4.81362e-23
-0
-3.20908e-23
-0
-3.20908e-23
-0
2.40681e-23
-0
0
-0
-1.60454e-23
-0
-1.2034e-23
-0
-1.90539e-23
0
-8.0227e-24
1.60454e-23
-1.60454e-23
1.60454e-23
-8.0227e-24
-4.41248e-23
0
1.60454e-23
-1.60454e-23
-3.20908e-23
-1.2034e-23
-3.20908e-23
-4.01135e-24
-2.40681e-23
-2.00567e-24
-1.2034e-23
-4.01135e-24
-1.40397e-23
-3.76064e-24
-4.01135e-24
1.00284e-24
6.01702e-24
4.01135e-24
2.20624e-23
8.0227e-24
3.20908e-23
1.60454e-23
6.01702e-23
2.40681e-23
7.22043e-23
0
5.61589e-23
3.20908e-23
8.82497e-23
1.60454e-23
6.41816e-23
1.60454e-23
-2.40681e-23
0
-2.40681e-23
0
4.01135e-23
1.60454e-23
-2.80794e-23
0
-1.60454e-23
8.0227e-24
-2.00567e-23
-0
-0
-0
-0
-0
-0
-0
-0
-0
-0
-0
0
0
0
0
0
0
0
0
0
0
0
0
0
0
)
;
    }
    baffle_master
    {
        type            calculated;
        value           nonuniform List<scalar> 
150
(
-5.18972e-30
0
5.72334e-30
7.54171e-31
0
0
2.19957e-30
0
0
5.51881e-30
0
1.14467e-29
-7.00318e-29
0
0
2.04556e-30
0
0
-1.81457e-30
0
-2.28934e-29
4.59481e-30
0
0
-2.262e-30
0
5.72334e-30
5.06041e-31
0
0
1.08046e-30
0
0
1.946e-30
0
2.28934e-29
1.67301e-29
0
2.28934e-29
-5.89399e-30
0
0
3.19851e-31
0
0
-4.76665e-31
0
1.43084e-30
3.21286e-29
0
1.717e-29
-2.25795e-31
0
0
9.77212e-30
0
8.58502e-30
9.00135e-31
0
-2.86167e-30
8.62375e-31
0
-5.72334e-30
4.27151e-29
0
4.57867e-29
-4.6765e-30
0
1.14467e-29
-5.68663e-32
0
0
-7.67817e-31
0
2.28934e-29
-5.72334e-30
1.35951e-29
-0
-1.43084e-30
4.03549e-30
-0
0
-1.19388e-29
0
2.28934e-29
-2.68172e-29
0
2.28934e-29
3.57256e-29
0
2.28934e-29
-3.54052e-29
0
2.28934e-29
-3.1455e-29
0
5.72334e-30
-1.71592e-29
0
5.72334e-30
1.14834e-29
-0
0
2.14651e-29
-0
-2.28934e-29
3.93823e-29
-0
-2.28934e-29
4.31228e-29
-0
-4.57867e-29
5.53594e-29
-0
-2.28934e-29
2.65019e-29
-0
0
1.25396e-29
-0
1.43084e-30
-2.93358e-30
0
-5.72334e-30
-1.00182e-29
0
5.72334e-30
-7.27212e-30
0
2.86167e-30
-6.98878e-31
0
2.86167e-30
-3.80859e-30
-0
0
-6.85558e-30
-0
2.28934e-29
-5.27183e-29
-0
2.28934e-29
1.78644e-29
-0
0
7.38114e-31
0
2.28934e-29
1.00927e-29
0
)
;
    }
    baffle_slave
    {
        type            calculated;
        value           nonuniform List<scalar> 
150
(
1.15326e-23
-0
0
-2.50709e-25
-0
-8.0227e-24
3.00851e-24
-0
0
3.50993e-24
-0
8.0227e-24
-3.05865e-23
-0
-1.60454e-23
-3.00851e-24
-0
8.0227e-24
-1.00284e-24
-0
8.0227e-24
-5.51561e-24
-0
4.01135e-24
-5.01419e-25
-0
0
1.50426e-24
-0
4.01135e-24
5.01419e-25
-0
-2.00567e-24
1.00284e-24
0
-1.00284e-24
0
0
0
3.00851e-24
0
-8.0227e-24
-2.00567e-24
0
0
-5.01419e-24
0
0
-4.51277e-23
0
-6.41816e-23
0
0
0
-2.60738e-23
0
-4.81362e-23
-8.0227e-24
0
-3.20908e-23
-5.01419e-24
0
-1.60454e-23
3.20908e-23
0
3.20908e-23
-2.00567e-24
0
-1.60454e-23
-2.00567e-24
0
0
0
0
-8.0227e-24
-2.33962e-23
6.04836e-23
0
-3.17681e-24
1.52933e-23
0
1.68593e-23
2.60738e-23
0
-1.41798e-24
1.88032e-23
0
2.25176e-24
-3.61021e-23
0
-4.01813e-24
1.65468e-23
0
-8.58553e-24
1.75497e-23
0
2.98281e-24
1.05298e-23
0
1.18175e-23
1.22848e-23
0
-5.25702e-24
1.30369e-23
0
-1.41635e-24
6.76915e-24
0
5.36201e-25
4.01135e-24
0
7.21893e-25
-5.64096e-25
0
7.79503e-24
-7.36459e-24
0
-1.06462e-24
-8.52412e-24
0
3.32654e-23
-1.27862e-23
0
-2.99893e-23
-1.62961e-23
0
1.32174e-23
-2.38174e-23
0
-1.91557e-23
3.00851e-24
0
3.68592e-24
1.80511e-23
0
2.03423e-23
1.10312e-23
0
-3.26233e-23
3.61021e-23
0
-3.14809e-23
-1.80511e-23
0
-4.08416e-24
1.2034e-23
0
1.3473e-23
1.60454e-23
0
)
;
    }
}


// ************************************************************************* //
