/*--------------------------------*- C++ -*----------------------------------*\
| =========                 |                                                 |
| \\      /  F ield         | OpenFOAM: The Open Source CFD Toolbox           |
|  \\    /   O peration     | Version:  2212                                  |
|   \\  /    A nd           | Website:  www.openfoam.com                      |
|    \\/     M anipulation  |                                                 |
\*---------------------------------------------------------------------------*/
FoamFile
{
    version     2.0;
    format      ascii;
    arch        "LSB;label=32;scalar=64";
    class       volTensorField;
    location    "60/fluidRegion";
    object      KdTotU;
}
// * * * * * * * * * * * * * * * * * * * * * * * * * * * * * * * * * * * * * //

dimensions      [1 -2 -2 0 0 0 0];

internalField   nonuniform List<tensor> 
17
(
(5252.12 0 0 0 5252.12 0 0 0 5252.12)
(5252.12 0 0 0 5252.12 0 0 0 5252.12)
(9183.05 0 0 0 9183.05 0 0 0 9183.05)
(13323 0 0 0 13323 0 0 0 13323)
(15567 0 0 0 15567 0 0 0 15567)
(17967.3 0 0 0 17967.3 0 0 0 17967.3)
(20836.2 0 0 0 20836.2 0 0 0 20836.2)
(24510.6 0 0 0 24510.6 0 0 0 24510.6)
(29308.4 0 0 0 29308.4 0 0 0 29308.4)
(35544.1 0 0 0 35544.1 0 0 0 35544.1)
(43436 0 0 0 43436 0 0 0 43436)
(52989 0 0 0 52989 0 0 0 52989)
(63927.6 0 0 0 63927.6 0 0 0 63927.6)
(75756.3 0 0 0 75756.3 0 0 0 75756.3)
(87929.5 0 0 0 87929.5 0 0 0 87929.5)
(99985 0 0 0 99985 0 0 0 99985)
(111847 0 0 0 111847 0 0 0 111847)
)
;

boundaryField
{
    inlet
    {
        type            zeroGradient;
    }
    outlet
    {
        type            zeroGradient;
    }
    fixedWalls
    {
        type            zeroGradient;
    }
}


// ************************************************************************* //
