/*--------------------------------*- C++ -*----------------------------------*\
| =========                 |                                                 |
| \\      /  F ield         | OpenFOAM: The Open Source CFD Toolbox           |
|  \\    /   O peration     | Version:  2212                                  |
|   \\  /    A nd           | Website:  www.openfoam.com                      |
|    \\/     M anipulation  |                                                 |
\*---------------------------------------------------------------------------*/
FoamFile
{
    version     2.0;
    format      ascii;
    arch        "LSB;label=32;scalar=64";
    class       volScalarField;
    location    "60/fluidRegion";
    object      p;
}
// * * * * * * * * * * * * * * * * * * * * * * * * * * * * * * * * * * * * * //

dimensions      [1 -1 -2 0 0 0 0];

internalField   nonuniform List<scalar> 
17
(
1.49231e+07
1.49222e+07
1.49206e+07
1.49167e+07
1.49121e+07
1.49071e+07
1.49015e+07
1.48951e+07
1.48876e+07
1.48787e+07
1.4868e+07
1.48551e+07
1.48395e+07
1.48211e+07
1.47998e+07
1.47754e+07
1.47482e+07
)
;

boundaryField
{
    inlet
    {
        type            calculated;
        value           uniform 1.49235e+07;
    }
    outlet
    {
        type            calculated;
        value           uniform 1.47334e+07;
    }
    fixedWalls
    {
        type            calculated;
        value           nonuniform List<scalar> 
68
(
1.49231e+07
1.49222e+07
1.49206e+07
1.49167e+07
1.49121e+07
1.49071e+07
1.49015e+07
1.48951e+07
1.48876e+07
1.48787e+07
1.4868e+07
1.48551e+07
1.48395e+07
1.48211e+07
1.47998e+07
1.47754e+07
1.47482e+07
1.49231e+07
1.49222e+07
1.49206e+07
1.49167e+07
1.49121e+07
1.49071e+07
1.49015e+07
1.48951e+07
1.48876e+07
1.48787e+07
1.4868e+07
1.48551e+07
1.48395e+07
1.48211e+07
1.47998e+07
1.47754e+07
1.47482e+07
1.49231e+07
1.49222e+07
1.49206e+07
1.49167e+07
1.49121e+07
1.49071e+07
1.49015e+07
1.48951e+07
1.48876e+07
1.48787e+07
1.4868e+07
1.48551e+07
1.48395e+07
1.48211e+07
1.47998e+07
1.47754e+07
1.47482e+07
1.49231e+07
1.49222e+07
1.49206e+07
1.49167e+07
1.49121e+07
1.49071e+07
1.49015e+07
1.48951e+07
1.48876e+07
1.48787e+07
1.4868e+07
1.48551e+07
1.48395e+07
1.48211e+07
1.47998e+07
1.47754e+07
1.47482e+07
)
;
    }
}


// ************************************************************************* //
