/*--------------------------------*- C++ -*----------------------------------*\
| =========                 |                                                 |
| \\      /  F ield         | OpenFOAM: The Open Source CFD Toolbox           |
|  \\    /   O peration     | Version:  2212                                  |
|   \\  /    A nd           | Website:  www.openfoam.com                      |
|    \\/     M anipulation  |                                                 |
\*---------------------------------------------------------------------------*/
FoamFile
{
    version     2.0;
    format      ascii;
    arch        "LSB;label=32;scalar=64";
    class       volScalarField;
    location    "60/fluidRegion";
    object      p_rgh;
}
// * * * * * * * * * * * * * * * * * * * * * * * * * * * * * * * * * * * * * //

dimensions      [1 -1 -2 0 0 0 0];

internalField   nonuniform List<scalar> 
17
(
1.49232e+07
1.49226e+07
1.49215e+07
1.49182e+07
1.49142e+07
1.49097e+07
1.49046e+07
1.48986e+07
1.48915e+07
1.4883e+07
1.48726e+07
1.48599e+07
1.48446e+07
1.48264e+07
1.48052e+07
1.4781e+07
1.4754e+07
)
;

boundaryField
{
    inlet
    {
        type            fixedFluxPressure;
        gradient        uniform 12087.9;
        value           uniform 1.49235e+07;
    }
    outlet
    {
        type            fixedValue;
        value           uniform 1.47394e+07;
    }
    fixedWalls
    {
        type            fixedFluxPressure;
        gradient        uniform 0;
        value           nonuniform List<scalar> 
68
(
1.49232e+07
1.49226e+07
1.49215e+07
1.49182e+07
1.49142e+07
1.49097e+07
1.49046e+07
1.48986e+07
1.48915e+07
1.4883e+07
1.48726e+07
1.48599e+07
1.48446e+07
1.48264e+07
1.48052e+07
1.4781e+07
1.4754e+07
1.49232e+07
1.49226e+07
1.49215e+07
1.49182e+07
1.49142e+07
1.49097e+07
1.49046e+07
1.48986e+07
1.48915e+07
1.4883e+07
1.48726e+07
1.48599e+07
1.48446e+07
1.48264e+07
1.48052e+07
1.4781e+07
1.4754e+07
1.49232e+07
1.49226e+07
1.49215e+07
1.49182e+07
1.49142e+07
1.49097e+07
1.49046e+07
1.48986e+07
1.48915e+07
1.4883e+07
1.48726e+07
1.48599e+07
1.48446e+07
1.48264e+07
1.48052e+07
1.4781e+07
1.4754e+07
1.49232e+07
1.49226e+07
1.49215e+07
1.49182e+07
1.49142e+07
1.49097e+07
1.49046e+07
1.48986e+07
1.48915e+07
1.4883e+07
1.48726e+07
1.48599e+07
1.48446e+07
1.48264e+07
1.48052e+07
1.4781e+07
1.4754e+07
)
;
    }
}


// ************************************************************************* //
