/*--------------------------------*- C++ -*----------------------------------*\
| =========                 |                                                 |
| \\      /  F ield         | OpenFOAM: The Open Source CFD Toolbox           |
|  \\    /   O peration     | Version:  2212                                  |
|   \\  /    A nd           | Website:  www.openfoam.com                      |
|    \\/     M anipulation  |                                                 |
\*---------------------------------------------------------------------------*/
FoamFile
{
    version     2.0;
    format      ascii;
    arch        "LSB;label=32;scalar=64";
    class       surfaceScalarField;
    location    "61/fluidRegion";
    object      alphaPhi;
}
// * * * * * * * * * * * * * * * * * * * * * * * * * * * * * * * * * * * * * //

dimensions      [0 3 -1 0 0 0 0];

oriented        oriented;

internalField   nonuniform List<scalar> 
661
(
-0.000538973
1.59726e-12
-0.000538931
1.92646e-12
-0.000538887
1.48963e-12
-0.000538841
7.53619e-13
-0.00053879
-1.0213e-13
-0.000538734
-8.6562e-13
-0.000538674
-1.32264e-12
-0.000538614
-1.3951e-12
-0.000538559
-1.17857e-12
-0.000538513
-8.85267e-13
-0.000538477
-7.4855e-13
-0.000538452
-8.67583e-13
-0.000538433
-1.14872e-12
-0.000538416
-1.38278e-12
-0.000538394
-1.34866e-12
-0.000538364
-9.19421e-13
-0.000538325
-1.61921e-13
-0.000538277
7.13802e-13
-0.000538223
1.47773e-12
-0.000538166
1.97759e-12
-0.000538108
2.17196e-12
-0.000538051
2.09668e-12
-0.000537998
1.61041e-12
-0.000537948
4.27114e-14
-2.19182e-12
-0.000538973
-0.000538931
-0.000538887
-0.000538841
-0.00053879
-0.000538734
-0.000538674
-0.000538614
-0.000538559
-0.000538513
-0.000538477
-0.000538452
-0.000538433
-0.000538416
-0.000538394
-0.000538364
-0.000538325
-0.000538277
-0.000538223
-0.000538166
-0.000538108
-0.000538051
-0.000537998
-0.000537948
-0.0202285
1.41407e-06
-0.0198005
6.72043e-07
-0.0192561
7.28172e-07
-0.0186043
6.55295e-07
-0.0178546
5.93214e-07
-0.0170171
5.35702e-07
-0.0161019
4.82433e-07
-0.0151194
4.30788e-07
-0.0140805
3.75019e-07
-0.0129963
3.05679e-07
-0.0118786
2.10898e-07
-0.0107404
7.90122e-08
-0.00959582
-9.34496e-08
-0.00846058
-2.92583e-07
-0.00735159
-4.95872e-07
-0.006286
-6.69147e-07
-0.00528002
-7.85672e-07
-0.00434781
-8.38292e-07
-0.00350094
-8.40746e-07
-0.00274915
-8.17295e-07
-0.00210116
-7.89978e-07
-0.00156632
-7.63949e-07
-0.00115535
-7.28567e-07
-0.000879352
-6.32193e-07
-6.02376e-07
-0.0203585
-3.81646e-08
-3.77523e-08
-0.0199295
-1.73023e-07
-1.77967e-07
-0.0193829
-1.63959e-07
-1.68813e-07
-0.0187281
-1.41469e-07
-1.46559e-07
-0.0179747
-1.22062e-07
-1.27314e-07
-0.0171326
-1.04126e-07
-1.09618e-07
-0.0162121
-8.76715e-08
-9.34591e-08
-0.0152237
-7.20559e-08
-7.81029e-08
-0.0141783
-5.57355e-08
-6.20979e-08
-0.013087
-3.60442e-08
-4.27896e-08
-0.0119617
-9.25508e-09
-1.64842e-08
-0.0108154
2.79844e-08
2.03659e-08
-0.00966229
7.63324e-08
6.80395e-08
-0.00851827
1.36742e-07
1.27656e-07
-0.00740043
1.99166e-07
1.89126e-07
-0.00632619
2.53715e-07
2.42562e-07
-0.00531201
2.91398e-07
2.78854e-07
-0.00437229
3.09159e-07
2.94965e-07
-0.00351877
3.10997e-07
2.94621e-07
-0.00276127
3.04325e-07
2.85515e-07
-0.0021086
2.96216e-07
2.74235e-07
-0.00157018
2.86434e-07
2.62027e-07
-0.0011568
2.68637e-07
2.41751e-07
-0.000879547
2.14274e-07
1.89477e-07
1.63415e-07
1.47381e-07
-0.0202072
6.95639e-07
-0.0197795
6.56961e-07
-0.0192356
6.32524e-07
-0.0185843
5.63323e-07
-0.0178353
5.01338e-07
-0.0169986
4.44253e-07
-0.0160842
3.91269e-07
-0.0151028
3.39371e-07
-0.014065
2.82089e-07
-0.0129819
2.09181e-07
-0.0118655
1.07852e-07
-0.0107286
-3.22995e-08
-0.00958536
-2.14357e-07
-0.00845151
-4.24631e-07
-0.00734391
-6.36322e-07
-0.00627966
-8.13394e-07
-0.00527496
-9.28612e-07
-0.0043439
-9.76092e-07
-0.00349805
-9.7189e-07
-0.00274712
-9.41974e-07
-0.00209982
-9.08064e-07
-0.00156551
-8.73736e-07
-0.00115491
-8.15843e-07
-0.000879134
-6.78377e-07
-5.53368e-07
-0.0203295
4.78727e-09
-0.0199007
1.55297e-09
-0.0193545
1.77916e-09
-0.0187003
1.68939e-09
-0.0179477
1.68576e-09
-0.0171066
1.61655e-09
-0.0161872
1.42698e-09
-0.0152002
1.25184e-09
-0.0141562
9.91766e-10
-0.0130665
6.30746e-10
-0.0119429
2.71907e-10
-0.0107984
-1.16872e-10
-0.00964716
-5.98601e-10
-0.00850513
-1.13669e-09
-0.00738929
-1.7912e-09
-0.00631701
-2.52875e-09
-0.00530471
-3.26753e-09
-0.0043667
-3.93852e-09
-0.0035147
-4.64374e-09
-0.00275851
-5.27255e-09
-0.00210691
-5.81951e-09
-0.00156931
-6.26474e-09
-0.00115649
-6.62411e-09
-0.000879529
-5.87318e-09
-4.62561e-09
-0.0203296
-6.8522e-07
-0.0199007
-6.53586e-07
-0.0193546
-6.28399e-07
-0.0187004
-5.59305e-07
-0.0179477
-4.97285e-07
-0.0171066
-4.40299e-07
-0.0161872
-3.87573e-07
-0.0152002
-3.35935e-07
-0.0141562
-2.79061e-07
-0.0130665
-2.06707e-07
-0.0119429
-1.05966e-07
-0.0107984
3.36725e-08
-0.00964717
2.14966e-07
-0.00850514
4.24325e-07
-0.0073893
6.34899e-07
-0.00631702
8.10671e-07
-0.00530471
9.24488e-07
-0.0043667
9.70498e-07
-0.0035147
9.64515e-07
-0.00275851
9.32623e-07
-0.00210691
8.96438e-07
-0.00156932
8.59756e-07
-0.0011565
7.99479e-07
-0.00087953
6.62808e-07
5.4026e-07
-0.0202072
3.50404e-08
-0.0197796
1.74798e-07
-0.0192356
1.65436e-07
-0.0185843
1.43071e-07
-0.0178353
1.23868e-07
-0.0169986
1.06155e-07
-0.0160843
8.99424e-08
-0.0151028
7.46329e-08
-0.014065
5.86218e-08
-0.0129819
3.92636e-08
-0.0118655
1.28996e-08
-0.0107286
-2.39477e-08
-0.00958537
-7.16478e-08
-0.00845152
-1.31459e-07
-0.00734391
-1.9326e-07
-0.00627967
-2.47168e-07
-0.00527496
-2.84149e-07
-0.0043439
-3.01204e-07
-0.00349805
-3.02442e-07
-0.00274712
-2.95409e-07
-0.00209982
-2.87131e-07
-0.00156551
-2.77827e-07
-0.00115491
-2.61338e-07
-0.000879132
-2.08859e-07
-1.60121e-07
-0.0203585
-1.41376e-06
-4.24872e-08
-0.0199295
-6.71588e-07
-1.78265e-07
-0.0193829
-7.27752e-07
-1.69416e-07
-0.0187281
-6.54894e-07
-1.47017e-07
-0.0179747
-5.92747e-07
-1.27716e-07
-0.0171326
-5.35208e-07
-1.09885e-07
-0.0162121
-4.81945e-07
-9.34874e-08
-0.0152237
-4.30281e-07
-7.78845e-08
-0.0141783
-3.74556e-07
-6.15233e-08
-0.013087
-3.05292e-07
-4.17347e-08
-0.0119617
-2.10551e-07
-1.48748e-08
-0.0108154
-7.87434e-08
2.23224e-08
-0.00966229
9.35108e-08
7.08439e-08
-0.00851827
2.92324e-07
1.31483e-07
-0.00740043
4.94988e-07
1.94318e-07
-0.00632619
6.67244e-07
2.49592e-07
-0.00531202
7.82137e-07
2.88414e-07
-0.00437229
8.32118e-07
3.08025e-07
-0.00351877
8.30154e-07
3.12899e-07
-0.00276127
7.99861e-07
3.11091e-07
-0.0021086
7.62471e-07
3.09853e-07
-0.00157018
7.24075e-07
3.08951e-07
-0.0011568
6.74345e-07
2.99947e-07
-0.000879547
5.72688e-07
2.49488e-07
5.49655e-07
1.97225e-07
-0.0202285
-0.0198005
-0.0192561
-0.0186043
-0.0178546
-0.0170171
-0.0161019
-0.0151194
-0.0140805
-0.0129963
-0.0118786
-0.0107404
-0.00959582
-0.00846058
-0.00735159
-0.006286
-0.00528002
-0.00434781
-0.00350094
-0.00274916
-0.00210116
-0.00156632
-0.00115535
-0.000879352
-0.0203295
-6.89881e-07
1.22537e-09
-0.0199007
-6.50283e-07
-2.6238e-09
-0.0193545
-6.25649e-07
-2.50457e-09
-0.0187003
-5.56333e-07
-2.63169e-09
-0.0179477
-4.94147e-07
-2.83347e-09
-0.0171066
-4.36922e-07
-3.04232e-09
-0.0161872
-3.839e-07
-3.23756e-09
-0.0152002
-3.31971e-07
-3.50339e-09
-0.0141562
-2.74745e-07
-3.77455e-09
-0.0130665
-2.01975e-07
-4.07357e-09
-0.0119429
-1.00763e-07
-4.54237e-09
-0.0107984
3.94324e-08
-4.70093e-09
-0.00964716
2.21462e-07
-5.44575e-09
-0.00850513
4.31736e-07
-6.19847e-09
-0.00738929
6.43546e-07
-7.1396e-09
-0.00631701
8.21024e-07
-8.38689e-09
-0.00530471
9.3741e-07
-1.02426e-08
-0.0043667
9.87312e-07
-1.29732e-08
-0.0035147
9.87618e-07
-1.71083e-08
-0.00275851
9.65207e-07
-2.30874e-08
-0.00210691
9.43177e-07
-3.2014e-08
-0.00156931
9.23714e-07
-4.22485e-08
-0.00115649
8.81631e-07
-5.31668e-08
-0.000879529
7.51774e-07
-5.61702e-08
6.16336e-07
-4.92736e-08
-0.0202072
-0.0197795
-0.0192356
-0.0185843
-0.0178353
-0.0169986
-0.0160842
-0.0151028
-0.014065
-0.0129819
-0.0118655
-0.0107286
-0.00958536
-0.00845151
-0.00734391
-0.00627966
-0.00527496
-0.0043439
-0.00349805
-0.00274712
-0.00209982
-0.00156551
-0.00115491
-0.000879134
-0.0202072
6.87249e-07
-0.0197796
6.55691e-07
-0.0192356
6.30479e-07
-0.0185843
5.6139e-07
-0.0178353
4.99543e-07
-0.0169986
4.42657e-07
-0.0160842
3.8995e-07
-0.0151028
3.3841e-07
-0.014065
2.81557e-07
-0.0129819
2.09174e-07
-0.0118655
1.08486e-07
-0.0107286
-3.13876e-08
-0.00958537
-2.12421e-07
-0.00845152
-4.2168e-07
-0.00734391
-6.32277e-07
-0.00627967
-8.08152e-07
-0.00527496
-9.2215e-07
-0.0043439
-9.6865e-07
-0.00349805
-9.64115e-07
-0.00274712
-9.35236e-07
-0.00209982
-9.04772e-07
-0.00156551
-8.76852e-07
-0.00115491
-8.28496e-07
-0.000879132
-7.00037e-07
-5.77702e-07
-0.0203296
-0.0199007
-0.0193546
-0.0187004
-0.0179477
-0.0171066
-0.0161872
-0.0152002
-0.0141562
-0.0130665
-0.0119429
-0.0107984
-0.00964717
-0.00850514
-0.0073893
-0.00631702
-0.00530471
-0.0043667
-0.0035147
-0.00275851
-0.00210691
-0.00156932
-0.0011565
-0.000879531
)
;

boundaryField
{
    outletCentralUnloaded
    {
        type            calculated;
        value           nonuniform List<scalar> 2(0.000539016 0.000539016);
    }
    inletCentralUnloaded
    {
        type            calculated;
        value           uniform -0.000540134;
    }
    outletFuelElement
    {
        type            calculated;
        value           nonuniform List<scalar> 
12
(
0.0205692
0.0207024
0.0205484
0.0206726
0.0206726
0.0205485
0.0207024
0.0205692
0.0206726
0.0205484
0.0205485
0.0206726
)
;
    }
    inletFuelElement
    {
        type            calculated;
        value           nonuniform List<scalar> 
12
(
-0.000722059
-0.00072206
-0.000722059
-0.000722059
-0.00072206
-0.000722059
-0.00072206
-0.000722059
-0.000722059
-0.000722059
-0.000722059
-0.00072206
)
;
    }
    defaultFaces
    {
        type            calculated;
        value           nonuniform List<scalar> 
450
(
1.498e-23
7.25204e-24
0
2.11483e-23
-1.13408e-24
0
2.65276e-23
1.1555e-23
0
-4.54255e-23
-6.09948e-24
0
-2.12737e-23
-3.53184e-23
0
-3.70766e-23
-1.21166e-23
0
-3.13189e-23
-5.52664e-24
0
-2.38867e-23
-1.75789e-23
0
-1.65458e-23
-7.34011e-24
0
-1.71021e-23
-1.83498e-23
0
-1.72322e-23
-4.05821e-24
0
-5.0007e-24
-2.13774e-24
0
4.70867e-24
4.53945e-24
0
2.1198e-23
1.0179e-23
0
3.45746e-23
1.11098e-23
0
4.49192e-23
2.24368e-23
0
3.43682e-23
-2.65476e-23
0
5.15505e-23
1.8039e-23
0
2.91565e-23
-5.15173e-23
0
-2.87786e-23
-2.52819e-23
0
-2.83466e-23
-2.95415e-23
0
2.04492e-23
-1.5972e-23
0
-1.97637e-23
1.02096e-23
0
-2.06404e-23
-1.12219e-23
0
-1.61185e-23
-1.95551e-23
0
1.60454e-23
0
1.60454e-23
0
8.0227e-24
0
2.40681e-23
0
-1.2034e-23
0
2.00567e-23
0
1.60454e-23
0
1.2034e-23
0
-4.01135e-24
0
5.01419e-24
0
3.50993e-24
0
-1.00284e-24
0
-8.0227e-24
0
-1.60454e-23
0
-2.40681e-23
0
-1.60454e-23
0
3.20908e-23
0
-4.81362e-23
0
1.60454e-23
0
-6.41816e-23
0
-3.20908e-23
0
3.20908e-23
0
1.60454e-23
0
-4.01135e-23
0
-1.60454e-23
0
0
-1.60454e-23
0
8.0227e-24
1.60454e-23
-8.0227e-24
-8.0227e-24
0
8.0227e-24
0
-2.00567e-24
0
-4.01135e-24
8.0227e-24
8.0227e-24
1.60454e-23
-3.20908e-23
0
-1.60454e-23
0
0
-3.20908e-23
-3.20908e-23
0
8.0227e-24
0
0
0
0
0
0
0
0
0
0
0
0
0
0
0
0
0
0
0
0
0
0
0
0
0
-1.40397e-23
1.60454e-23
8.0227e-24
3.20908e-23
1.60454e-23
3.20908e-23
-1.60454e-23
-1.2034e-23
8.0227e-24
-8.0227e-24
-1.2034e-23
-1.60454e-23
-4.01135e-24
-4.01135e-24
-8.0227e-24
-8.0227e-24
2.00567e-23
-4.01135e-24
-6.01702e-24
-4.01135e-24
-2.50709e-24
-4.01135e-24
1.00284e-24
1.62961e-24
6.01702e-24
6.01702e-24
8.0227e-24
1.60454e-23
1.60454e-23
1.60454e-23
2.40681e-23
3.20908e-23
-1.60454e-23
4.81362e-23
3.20908e-23
2.40681e-23
-6.41816e-23
5.61589e-23
-6.41816e-23
-4.01135e-23
8.0227e-24
-2.40681e-23
-3.20908e-23
4.01135e-23
-1.60454e-23
-2.40681e-23
0
-1.60454e-23
-2.40681e-23
-1.60454e-23
-1.51161e-23
0
0
4.79443e-24
0
0
3.57686e-23
0
-4.81362e-23
-6.44972e-23
0
1.60454e-23
2.41045e-23
0
-8.0227e-24
-4.62965e-23
0
1.60454e-23
-4.17928e-23
0
1.60454e-23
-3.37758e-23
0
8.0227e-24
-1.83717e-23
0
-2.40681e-23
-2.94531e-23
0
8.0227e-24
-1.79222e-23
0
8.0227e-24
-7.07451e-24
0
1.00284e-24
6.78078e-24
-0
-2.00567e-24
3.1788e-23
-0
0
4.32993e-23
-0
-8.0227e-24
5.58009e-23
-0
-8.0227e-24
4.04571e-23
-0
1.60454e-23
5.23936e-23
-0
-1.60454e-23
4.04951e-23
-0
-3.20908e-23
-4.12816e-23
-0
3.20908e-23
-8.25852e-26
-0
1.60454e-23
4.086e-23
-0
1.60454e-23
-2.53545e-23
-0
-8.0227e-24
-2.39517e-24
-0
8.0227e-24
-8.48472e-24
-0
0
0
0
0
0
8.0227e-24
-1.60454e-23
0
-1.2034e-23
0
-4.01135e-24
-2.00567e-24
1.00284e-24
4.01135e-24
1.60454e-23
8.0227e-24
1.60454e-23
-3.20908e-23
1.60454e-23
-3.20908e-23
1.60454e-23
1.60454e-23
-4.81362e-23
-3.20908e-23
0
8.0227e-24
3.61021e-23
0
3.20908e-23
0
-8.0227e-24
0
1.60454e-23
0
-8.0227e-24
0
1.2034e-23
0
8.0227e-24
0
1.60454e-23
0
2.00567e-24
0
6.01702e-24
0
2.50709e-24
0
-1.00284e-24
-0
-6.01702e-24
-0
-2.00567e-23
-0
-1.60454e-23
-0
-3.20908e-23
-0
2.40681e-23
-0
-1.60454e-23
-0
4.81362e-23
-0
-3.20908e-23
-0
-3.20908e-23
-0
4.81362e-23
-0
0
-0
-4.01135e-23
-0
-1.60454e-23
-0
-1.00284e-23
8.0227e-24
-8.0227e-24
1.60454e-23
-1.60454e-23
2.40681e-23
-8.0227e-24
-4.41248e-23
0
1.60454e-23
-1.2034e-23
-2.80794e-23
-8.0227e-24
-2.80794e-23
-8.0227e-24
-2.00567e-23
0
-1.2034e-23
-6.01702e-24
-1.40397e-23
-2.50709e-24
-8.0227e-24
0
4.35607e-24
6.01702e-24
1.80511e-23
8.0227e-24
3.61021e-23
1.60454e-23
5.21475e-23
1.60454e-23
7.22043e-23
8.0227e-24
3.20908e-23
1.60454e-23
7.22043e-23
0
5.61589e-23
8.0227e-24
-3.20908e-23
8.0227e-24
-1.60454e-23
-1.60454e-23
3.20908e-23
2.40681e-23
-3.20908e-23
8.0227e-24
-1.60454e-23
0
-2.40681e-23
-0
-0
-0
-0
-0
-0
-0
-0
-0
-0
-0
0
0
0
0
0
0
0
0
0
0
0
0
0
0
)
;
    }
    baffle_master
    {
        type            calculated;
        value           nonuniform List<scalar> 
150
(
-2.32944e-29
0
2.28934e-29
-1.66618e-29
0
0
4.75886e-30
0
-2.28934e-29
3.64202e-30
0
-1.14467e-29
-5.06202e-30
0
-4.29251e-30
1.25006e-30
0
0
6.50705e-31
0
0
-3.21257e-30
0
0
1.11891e-29
0
-2.28934e-29
5.54418e-30
0
0
-6.65748e-30
0
1.14467e-29
6.55862e-30
0
0
7.59695e-30
0
-2.28934e-29
1.9393e-29
0
0
1.59582e-29
0
-2.28934e-29
-6.07826e-32
0
0
1.72055e-29
0
8.58502e-30
4.38242e-30
0
0
-8.78566e-29
0
-6.86801e-29
4.7344e-30
0
0
6.65421e-30
0
-4.57867e-29
1.17571e-28
0
4.57867e-29
-4.62166e-30
0
2.28934e-29
7.58699e-31
0
-7.15418e-31
3.95186e-29
0
4.57867e-29
0
5.48179e-29
-0
0
6.60168e-29
-0
0
5.34069e-29
-0
-1.14467e-29
3.04891e-29
-0
2.86167e-30
3.20569e-30
0
1.14467e-29
-3.29715e-29
0
2.28934e-29
-5.27295e-29
0
0
-7.25659e-29
0
-4.57867e-29
-2.75288e-29
0
-1.14467e-29
-4.13697e-29
0
2.28934e-29
-2.52012e-29
0
1.14467e-29
-3.05644e-29
0
4.57867e-29
-2.66478e-29
0
0
-3.70911e-29
0
2.28934e-29
-5.84137e-29
0
0
-3.24699e-29
0
-5.72334e-30
-7.36853e-30
0
-1.14467e-29
3.26474e-29
-0
2.28934e-29
-6.34392e-30
-0
0
-1.55616e-29
-0
0
-3.01633e-29
-0
1.3736e-28
-1.38577e-28
-0
4.57867e-29
7.0076e-29
-0
0
-7.55195e-31
-0
4.57867e-29
8.24221e-29
0
)
;
    }
    baffle_slave
    {
        type            calculated;
        value           nonuniform List<scalar> 
150
(
1.73773e-23
-0
0
-5.01419e-25
-0
8.0227e-24
3.25922e-24
-0
8.0227e-24
1.00284e-24
-0
8.0227e-24
-2.63245e-23
-0
-1.60454e-23
1.50426e-24
-0
-8.0227e-24
5.01419e-25
-0
0
2.7578e-24
-0
0
-1.00284e-24
-0
0
-2.50709e-24
-0
-4.01135e-24
2.7578e-24
-0
-2.00567e-24
1.75497e-24
0
0
2.50709e-25
0
4.01135e-24
-1.50426e-24
0
-8.0227e-24
2.50709e-24
0
0
5.51561e-24
0
0
-4.86376e-23
0
-1.60454e-23
6.51844e-24
0
0
-4.11163e-23
0
-3.20908e-23
1.00284e-24
0
-1.60454e-23
2.00567e-24
0
-1.60454e-23
2.30653e-23
0
1.60454e-23
6.01702e-24
0
0
3.00851e-24
0
-1.60454e-23
-4.51277e-24
0
-8.0227e-24
-9.47931e-24
4.38741e-23
0
5.30848e-24
1.26608e-23
0
2.02228e-23
2.20624e-23
0
-1.13962e-23
1.88032e-23
0
2.8119e-24
-3.29683e-23
0
-9.144e-24
9.77766e-24
0
-1.15441e-23
9.90302e-24
0
-1.97892e-24
1.31622e-23
0
8.71554e-24
7.39593e-24
0
-2.6246e-24
8.27341e-24
0
-3.20245e-24
9.84034e-24
0
1.239e-24
4.07403e-24
0
3.8119e-24
-5.32757e-25
0
1.61865e-23
-5.75848e-24
0
1.65478e-23
-1.07805e-23
0
-4.1779e-24
-2.38174e-23
0
-3.43396e-23
-2.3316e-23
0
9.76263e-24
-1.52933e-23
0
-3.78677e-23
6.01702e-24
0
1.77515e-23
1.45411e-23
0
-1.31316e-23
5.01419e-24
0
-3.34874e-23
2.50709e-23
0
-1.58616e-23
-1.60454e-23
0
3.83182e-24
8.0227e-24
0
5.45837e-24
4.01135e-24
0
)
;
    }
}


// ************************************************************************* //
