/*--------------------------------*- C++ -*----------------------------------*\
| =========                 |                                                 |
| \\      /  F ield         | OpenFOAM: The Open Source CFD Toolbox           |
|  \\    /   O peration     | Version:  2212                                  |
|   \\  /    A nd           | Website:  www.openfoam.com                      |
|    \\/     M anipulation  |                                                 |
\*---------------------------------------------------------------------------*/
FoamFile
{
    version     2.0;
    format      ascii;
    arch        "LSB;label=32;scalar=64";
    class       volScalarField;
    location    "61/fluidRegion";
    object      heatFlux.structure;
}
// * * * * * * * * * * * * * * * * * * * * * * * * * * * * * * * * * * * * * //

dimensions      [1 0 -3 0 0 0 0];

internalField   nonuniform List<scalar> 
350
(
-258312
-258315
-258319
-258322
-258323
-258322
-258320
-258317
-258315
-258315
-258319
-258328
-258339
-258352
-258365
-258375
-258382
-258385
-258385
-258383
-258381
-258379
-258377
-258377
-258807
-258312
-258315
-258319
-258322
-258323
-258322
-258320
-258317
-258315
-258315
-258319
-258328
-258339
-258352
-258365
-258375
-258382
-258385
-258385
-258383
-258381
-258379
-258377
-258377
-258807
449182
1.34298e+06
2.21558e+06
3.05322e+06
3.8427e+06
4.57155e+06
5.2283e+06
5.80257e+06
6.28532e+06
6.66894e+06
6.94737e+06
7.11623e+06
7.17285e+06
7.11634e+06
6.94759e+06
6.66927e+06
6.28576e+06
5.80311e+06
5.2289e+06
4.57228e+06
3.8435e+06
3.05414e+06
2.21656e+06
1.34407e+06
450496
454310
1.35835e+06
2.24095e+06
3.08818e+06
3.8867e+06
4.62391e+06
5.28817e+06
5.86903e+06
6.35731e+06
6.74532e+06
7.02694e+06
7.19773e+06
7.255e+06
7.19785e+06
7.02717e+06
6.74566e+06
6.35775e+06
5.86958e+06
5.2888e+06
4.62465e+06
3.88753e+06
3.08912e+06
2.24195e+06
1.35946e+06
455655
448366
1.34054e+06
2.21154e+06
3.04766e+06
3.83569e+06
4.56322e+06
5.21876e+06
5.79199e+06
6.27386e+06
6.65678e+06
6.9347e+06
7.10325e+06
7.15976e+06
7.10336e+06
6.93492e+06
6.6571e+06
6.27429e+06
5.79252e+06
5.21937e+06
4.56394e+06
3.83649e+06
3.04857e+06
2.21252e+06
1.34162e+06
449675
453130
1.35481e+06
2.23511e+06
3.08014e+06
3.87657e+06
4.61186e+06
5.27439e+06
5.85373e+06
6.34074e+06
6.72774e+06
7.00862e+06
7.17897e+06
7.23609e+06
7.17908e+06
7.00885e+06
6.72807e+06
6.34118e+06
5.85428e+06
5.27501e+06
4.61259e+06
3.87739e+06
3.08107e+06
2.2361e+06
1.35592e+06
454468
453130
1.35481e+06
2.23511e+06
3.08014e+06
3.87657e+06
4.61186e+06
5.27439e+06
5.85373e+06
6.34074e+06
6.72774e+06
7.00862e+06
7.17897e+06
7.23609e+06
7.17908e+06
7.00885e+06
6.72807e+06
6.34118e+06
5.85428e+06
5.27501e+06
4.61259e+06
3.87739e+06
3.08107e+06
2.23611e+06
1.35592e+06
454468
448366
1.34054e+06
2.21154e+06
3.04766e+06
3.83569e+06
4.56322e+06
5.21876e+06
5.79199e+06
6.27386e+06
6.65678e+06
6.9347e+06
7.10325e+06
7.15976e+06
7.10336e+06
6.93492e+06
6.6571e+06
6.27429e+06
5.79252e+06
5.21937e+06
4.56394e+06
3.83649e+06
3.04857e+06
2.21252e+06
1.34162e+06
449675
454310
1.35835e+06
2.24095e+06
3.08818e+06
3.8867e+06
4.62391e+06
5.28817e+06
5.86903e+06
6.35731e+06
6.74532e+06
7.02694e+06
7.19773e+06
7.255e+06
7.19785e+06
7.02717e+06
6.74566e+06
6.35775e+06
5.86958e+06
5.2888e+06
4.62465e+06
3.88753e+06
3.08913e+06
2.24195e+06
1.35946e+06
455655
449182
1.34298e+06
2.21558e+06
3.05323e+06
3.8427e+06
4.57155e+06
5.2283e+06
5.80257e+06
6.28532e+06
6.66894e+06
6.94737e+06
7.11623e+06
7.17284e+06
7.11634e+06
6.94759e+06
6.66927e+06
6.28576e+06
5.80311e+06
5.2289e+06
4.57228e+06
3.8435e+06
3.05414e+06
2.21656e+06
1.34407e+06
450497
453130
1.35481e+06
2.23511e+06
3.08014e+06
3.87657e+06
4.61186e+06
5.27439e+06
5.85373e+06
6.34074e+06
6.72774e+06
7.00862e+06
7.17897e+06
7.23609e+06
7.17908e+06
7.00885e+06
6.72807e+06
6.34118e+06
5.85427e+06
5.27501e+06
4.61259e+06
3.87739e+06
3.08107e+06
2.2361e+06
1.35592e+06
454468
448366
1.34054e+06
2.21154e+06
3.04766e+06
3.83569e+06
4.56322e+06
5.21876e+06
5.79199e+06
6.27386e+06
6.65677e+06
6.9347e+06
7.10325e+06
7.15976e+06
7.10336e+06
6.93492e+06
6.6571e+06
6.27429e+06
5.79252e+06
5.21937e+06
4.56393e+06
3.83649e+06
3.04857e+06
2.21252e+06
1.34162e+06
449675
448366
1.34054e+06
2.21154e+06
3.04766e+06
3.83569e+06
4.56322e+06
5.21876e+06
5.79199e+06
6.27386e+06
6.65677e+06
6.9347e+06
7.10325e+06
7.15976e+06
7.10336e+06
6.93492e+06
6.6571e+06
6.27429e+06
5.79252e+06
5.21937e+06
4.56394e+06
3.83649e+06
3.04857e+06
2.21252e+06
1.34162e+06
449675
453130
1.35481e+06
2.23511e+06
3.08014e+06
3.87657e+06
4.61186e+06
5.27439e+06
5.85373e+06
6.34074e+06
6.72774e+06
7.00862e+06
7.17897e+06
7.23609e+06
7.17908e+06
7.00885e+06
6.72807e+06
6.34118e+06
5.85428e+06
5.27501e+06
4.61259e+06
3.87739e+06
3.08107e+06
2.23611e+06
1.35592e+06
454468
)
;

boundaryField
{
    outletCentralUnloaded
    {
        type            zeroGradient;
    }
    inletCentralUnloaded
    {
        type            zeroGradient;
    }
    outletFuelElement
    {
        type            zeroGradient;
    }
    inletFuelElement
    {
        type            zeroGradient;
    }
    defaultFaces
    {
        type            zeroGradient;
    }
    baffle_master
    {
        type            zeroGradient;
    }
    baffle_slave
    {
        type            zeroGradient;
    }
}


// ************************************************************************* //
