/*--------------------------------*- C++ -*----------------------------------*\
| =========                 |                                                 |
| \\      /  F ield         | OpenFOAM: The Open Source CFD Toolbox           |
|  \\    /   O peration     | Version:  2212                                  |
|   \\  /    A nd           | Website:  www.openfoam.com                      |
|    \\/     M anipulation  |                                                 |
\*---------------------------------------------------------------------------*/
FoamFile
{
    version     2.0;
    format      ascii;
    arch        "LSB;label=32;scalar=64";
    class       volTensorField;
    location    "61/fluidRegion";
    object      Kd;
}
// * * * * * * * * * * * * * * * * * * * * * * * * * * * * * * * * * * * * * //

dimensions      [1 -3 -1 0 0 0 0];

internalField   nonuniform List<tensor> 
350
(
(84.7424 0 0 0 84.7424 0 0 0 84.7424)
(84.7426 0 0 0 84.7426 0 0 0 84.7426)
(84.7428 0 0 0 84.7428 0 0 0 84.7428)
(84.7428 0 0 0 84.7428 0 0 0 84.7428)
(84.7423 0 0 0 84.7423 0 0 0 84.7423)
(84.7413 0 0 0 84.7413 0 0 0 84.7413)
(84.7397 0 0 0 84.7397 0 0 0 84.7397)
(84.7379 0 0 0 84.7379 0 0 0 84.7379)
(84.7363 0 0 0 84.7363 0 0 0 84.7363)
(84.7355 0 0 0 84.7355 0 0 0 84.7355)
(84.7359 0 0 0 84.7359 0 0 0 84.7359)
(84.7375 0 0 0 84.7375 0 0 0 84.7375)
(84.7401 0 0 0 84.7401 0 0 0 84.7401)
(84.7432 0 0 0 84.7432 0 0 0 84.7432)
(84.7461 0 0 0 84.7461 0 0 0 84.7461)
(84.7483 0 0 0 84.7483 0 0 0 84.7483)
(84.7495 0 0 0 84.7495 0 0 0 84.7495)
(84.7497 0 0 0 84.7497 0 0 0 84.7497)
(84.749 0 0 0 84.749 0 0 0 84.749)
(84.7478 0 0 0 84.7478 0 0 0 84.7478)
(84.7464 0 0 0 84.7464 0 0 0 84.7464)
(84.7451 0 0 0 84.7451 0 0 0 84.7451)
(84.7439 0 0 0 84.7439 0 0 0 84.7439)
(84.7431 0 0 0 84.7431 0 0 0 84.7431)
(84.8743 0 0 0 84.8743 0 0 0 84.8743)
(84.7424 0 0 0 84.7424 0 0 0 84.7424)
(84.7426 0 0 0 84.7426 0 0 0 84.7426)
(84.7428 0 0 0 84.7428 0 0 0 84.7428)
(84.7428 0 0 0 84.7428 0 0 0 84.7428)
(84.7423 0 0 0 84.7423 0 0 0 84.7423)
(84.7413 0 0 0 84.7413 0 0 0 84.7413)
(84.7397 0 0 0 84.7397 0 0 0 84.7397)
(84.7379 0 0 0 84.7379 0 0 0 84.7379)
(84.7363 0 0 0 84.7363 0 0 0 84.7363)
(84.7355 0 0 0 84.7355 0 0 0 84.7355)
(84.7359 0 0 0 84.7359 0 0 0 84.7359)
(84.7375 0 0 0 84.7375 0 0 0 84.7375)
(84.7401 0 0 0 84.7401 0 0 0 84.7401)
(84.7432 0 0 0 84.7432 0 0 0 84.7432)
(84.7461 0 0 0 84.7461 0 0 0 84.7461)
(84.7483 0 0 0 84.7483 0 0 0 84.7483)
(84.7495 0 0 0 84.7495 0 0 0 84.7495)
(84.7497 0 0 0 84.7497 0 0 0 84.7497)
(84.749 0 0 0 84.749 0 0 0 84.749)
(84.7478 0 0 0 84.7478 0 0 0 84.7478)
(84.7464 0 0 0 84.7464 0 0 0 84.7464)
(84.7451 0 0 0 84.7451 0 0 0 84.7451)
(84.7439 0 0 0 84.7439 0 0 0 84.7439)
(84.7431 0 0 0 84.7431 0 0 0 84.7431)
(84.8743 0 0 0 84.8743 0 0 0 84.8743)
(682.645 0 0 0 682.645 0 0 0 682.645)
(682.191 0 0 0 682.191 0 0 0 682.191)
(682.202 0 0 0 682.202 0 0 0 682.202)
(682.204 0 0 0 682.204 0 0 0 682.204)
(682.195 0 0 0 682.195 0 0 0 682.195)
(682.173 0 0 0 682.173 0 0 0 682.173)
(682.137 0 0 0 682.137 0 0 0 682.137)
(682.085 0 0 0 682.085 0 0 0 682.085)
(682.016 0 0 0 682.016 0 0 0 682.016)
(681.926 0 0 0 681.926 0 0 0 681.926)
(681.816 0 0 0 681.816 0 0 0 681.816)
(681.685 0 0 0 681.685 0 0 0 681.685)
(681.533 0 0 0 681.533 0 0 0 681.533)
(681.36 0 0 0 681.36 0 0 0 681.36)
(681.163 0 0 0 681.163 0 0 0 681.163)
(680.934 0 0 0 680.934 0 0 0 680.934)
(680.654 0 0 0 680.654 0 0 0 680.654)
(680.307 0 0 0 680.307 0 0 0 680.307)
(679.885 0 0 0 679.885 0 0 0 679.885)
(679.442 0 0 0 679.442 0 0 0 679.442)
(679.158 0 0 0 679.158 0 0 0 679.158)
(679.584 0 0 0 679.584 0 0 0 679.584)
(682.054 0 0 0 682.054 0 0 0 682.054)
(688.936 0 0 0 688.936 0 0 0 688.936)
(693.451 0 0 0 693.451 0 0 0 693.451)
(678.105 0 0 0 678.105 0 0 0 678.105)
(677.579 0 0 0 677.579 0 0 0 677.579)
(677.552 0 0 0 677.552 0 0 0 677.552)
(677.515 0 0 0 677.515 0 0 0 677.515)
(677.47 0 0 0 677.47 0 0 0 677.47)
(677.415 0 0 0 677.415 0 0 0 677.415)
(677.348 0 0 0 677.348 0 0 0 677.348)
(677.268 0 0 0 677.268 0 0 0 677.268)
(677.171 0 0 0 677.171 0 0 0 677.171)
(677.058 0 0 0 677.058 0 0 0 677.058)
(676.928 0 0 0 676.928 0 0 0 676.928)
(676.785 0 0 0 676.785 0 0 0 676.785)
(676.635 0 0 0 676.635 0 0 0 676.635)
(676.488 0 0 0 676.488 0 0 0 676.488)
(676.351 0 0 0 676.351 0 0 0 676.351)
(676.224 0 0 0 676.224 0 0 0 676.224)
(676.096 0 0 0 676.096 0 0 0 676.096)
(675.949 0 0 0 675.949 0 0 0 675.949)
(675.778 0 0 0 675.778 0 0 0 675.778)
(675.639 0 0 0 675.639 0 0 0 675.639)
(675.728 0 0 0 675.728 0 0 0 675.728)
(676.626 0 0 0 676.626 0 0 0 676.626)
(679.723 0 0 0 679.723 0 0 0 679.723)
(687.446 0 0 0 687.446 0 0 0 687.446)
(692.966 0 0 0 692.966 0 0 0 692.966)
(683.403 0 0 0 683.403 0 0 0 683.403)
(682.946 0 0 0 682.946 0 0 0 682.946)
(682.961 0 0 0 682.961 0 0 0 682.961)
(682.966 0 0 0 682.966 0 0 0 682.966)
(682.958 0 0 0 682.958 0 0 0 682.958)
(682.938 0 0 0 682.938 0 0 0 682.938)
(682.904 0 0 0 682.904 0 0 0 682.904)
(682.853 0 0 0 682.853 0 0 0 682.853)
(682.784 0 0 0 682.784 0 0 0 682.784)
(682.694 0 0 0 682.694 0 0 0 682.694)
(682.583 0 0 0 682.583 0 0 0 682.583)
(682.448 0 0 0 682.448 0 0 0 682.448)
(682.29 0 0 0 682.29 0 0 0 682.29)
(682.106 0 0 0 682.106 0 0 0 682.106)
(681.893 0 0 0 681.893 0 0 0 681.893)
(681.64 0 0 0 681.64 0 0 0 681.64)
(681.329 0 0 0 681.329 0 0 0 681.329)
(680.941 0 0 0 680.941 0 0 0 680.941)
(680.47 0 0 0 680.47 0 0 0 680.47)
(679.967 0 0 0 679.967 0 0 0 679.967)
(679.611 0 0 0 679.611 0 0 0 679.611)
(679.947 0 0 0 679.947 0 0 0 679.947)
(682.301 0 0 0 682.301 0 0 0 682.301)
(689.047 0 0 0 689.047 0 0 0 689.047)
(693.468 0 0 0 693.468 0 0 0 693.468)
(679.121 0 0 0 679.121 0 0 0 679.121)
(678.615 0 0 0 678.615 0 0 0 678.615)
(678.599 0 0 0 678.599 0 0 0 678.599)
(678.573 0 0 0 678.573 0 0 0 678.573)
(678.538 0 0 0 678.538 0 0 0 678.538)
(678.492 0 0 0 678.492 0 0 0 678.492)
(678.434 0 0 0 678.434 0 0 0 678.434)
(678.362 0 0 0 678.362 0 0 0 678.362)
(678.274 0 0 0 678.274 0 0 0 678.274)
(678.168 0 0 0 678.168 0 0 0 678.168)
(678.044 0 0 0 678.044 0 0 0 678.044)
(677.905 0 0 0 677.905 0 0 0 677.905)
(677.757 0 0 0 677.757 0 0 0 677.757)
(677.606 0 0 0 677.606 0 0 0 677.606)
(677.457 0 0 0 677.457 0 0 0 677.457)
(677.308 0 0 0 677.308 0 0 0 677.308)
(677.147 0 0 0 677.147 0 0 0 677.147)
(676.956 0 0 0 676.956 0 0 0 676.956)
(676.728 0 0 0 676.728 0 0 0 676.728)
(676.522 0 0 0 676.522 0 0 0 676.522)
(676.527 0 0 0 676.527 0 0 0 676.527)
(677.319 0 0 0 677.319 0 0 0 677.319)
(680.274 0 0 0 680.274 0 0 0 680.274)
(687.805 0 0 0 687.805 0 0 0 687.805)
(693.086 0 0 0 693.086 0 0 0 693.086)
(679.121 0 0 0 679.121 0 0 0 679.121)
(678.615 0 0 0 678.615 0 0 0 678.615)
(678.599 0 0 0 678.599 0 0 0 678.599)
(678.573 0 0 0 678.573 0 0 0 678.573)
(678.538 0 0 0 678.538 0 0 0 678.538)
(678.492 0 0 0 678.492 0 0 0 678.492)
(678.434 0 0 0 678.434 0 0 0 678.434)
(678.362 0 0 0 678.362 0 0 0 678.362)
(678.274 0 0 0 678.274 0 0 0 678.274)
(678.168 0 0 0 678.168 0 0 0 678.168)
(678.044 0 0 0 678.044 0 0 0 678.044)
(677.905 0 0 0 677.905 0 0 0 677.905)
(677.757 0 0 0 677.757 0 0 0 677.757)
(677.606 0 0 0 677.606 0 0 0 677.606)
(677.457 0 0 0 677.457 0 0 0 677.457)
(677.308 0 0 0 677.308 0 0 0 677.308)
(677.147 0 0 0 677.147 0 0 0 677.147)
(676.956 0 0 0 676.956 0 0 0 676.956)
(676.728 0 0 0 676.728 0 0 0 676.728)
(676.522 0 0 0 676.522 0 0 0 676.522)
(676.527 0 0 0 676.527 0 0 0 676.527)
(677.319 0 0 0 677.319 0 0 0 677.319)
(680.274 0 0 0 680.274 0 0 0 680.274)
(687.805 0 0 0 687.805 0 0 0 687.805)
(693.086 0 0 0 693.086 0 0 0 693.086)
(683.403 0 0 0 683.403 0 0 0 683.403)
(682.945 0 0 0 682.945 0 0 0 682.945)
(682.961 0 0 0 682.961 0 0 0 682.961)
(682.966 0 0 0 682.966 0 0 0 682.966)
(682.958 0 0 0 682.958 0 0 0 682.958)
(682.938 0 0 0 682.938 0 0 0 682.938)
(682.903 0 0 0 682.903 0 0 0 682.903)
(682.853 0 0 0 682.853 0 0 0 682.853)
(682.783 0 0 0 682.783 0 0 0 682.783)
(682.694 0 0 0 682.694 0 0 0 682.694)
(682.582 0 0 0 682.582 0 0 0 682.582)
(682.448 0 0 0 682.448 0 0 0 682.448)
(682.289 0 0 0 682.289 0 0 0 682.289)
(682.106 0 0 0 682.106 0 0 0 682.106)
(681.893 0 0 0 681.893 0 0 0 681.893)
(681.64 0 0 0 681.64 0 0 0 681.64)
(681.328 0 0 0 681.328 0 0 0 681.328)
(680.94 0 0 0 680.94 0 0 0 680.94)
(680.469 0 0 0 680.469 0 0 0 680.469)
(679.966 0 0 0 679.966 0 0 0 679.966)
(679.61 0 0 0 679.61 0 0 0 679.61)
(679.945 0 0 0 679.945 0 0 0 679.945)
(682.3 0 0 0 682.3 0 0 0 682.3)
(689.046 0 0 0 689.046 0 0 0 689.046)
(693.467 0 0 0 693.467 0 0 0 693.467)
(678.105 0 0 0 678.105 0 0 0 678.105)
(677.579 0 0 0 677.579 0 0 0 677.579)
(677.552 0 0 0 677.552 0 0 0 677.552)
(677.515 0 0 0 677.515 0 0 0 677.515)
(677.47 0 0 0 677.47 0 0 0 677.47)
(677.415 0 0 0 677.415 0 0 0 677.415)
(677.348 0 0 0 677.348 0 0 0 677.348)
(677.268 0 0 0 677.268 0 0 0 677.268)
(677.171 0 0 0 677.171 0 0 0 677.171)
(677.058 0 0 0 677.058 0 0 0 677.058)
(676.928 0 0 0 676.928 0 0 0 676.928)
(676.785 0 0 0 676.785 0 0 0 676.785)
(676.635 0 0 0 676.635 0 0 0 676.635)
(676.488 0 0 0 676.488 0 0 0 676.488)
(676.351 0 0 0 676.351 0 0 0 676.351)
(676.224 0 0 0 676.224 0 0 0 676.224)
(676.096 0 0 0 676.096 0 0 0 676.096)
(675.949 0 0 0 675.949 0 0 0 675.949)
(675.778 0 0 0 675.778 0 0 0 675.778)
(675.639 0 0 0 675.639 0 0 0 675.639)
(675.728 0 0 0 675.728 0 0 0 675.728)
(676.626 0 0 0 676.626 0 0 0 676.626)
(679.723 0 0 0 679.723 0 0 0 679.723)
(687.446 0 0 0 687.446 0 0 0 687.446)
(692.966 0 0 0 692.966 0 0 0 692.966)
(682.645 0 0 0 682.645 0 0 0 682.645)
(682.191 0 0 0 682.191 0 0 0 682.191)
(682.202 0 0 0 682.202 0 0 0 682.202)
(682.204 0 0 0 682.204 0 0 0 682.204)
(682.195 0 0 0 682.195 0 0 0 682.195)
(682.173 0 0 0 682.173 0 0 0 682.173)
(682.137 0 0 0 682.137 0 0 0 682.137)
(682.085 0 0 0 682.085 0 0 0 682.085)
(682.016 0 0 0 682.016 0 0 0 682.016)
(681.927 0 0 0 681.927 0 0 0 681.927)
(681.816 0 0 0 681.816 0 0 0 681.816)
(681.685 0 0 0 681.685 0 0 0 681.685)
(681.533 0 0 0 681.533 0 0 0 681.533)
(681.36 0 0 0 681.36 0 0 0 681.36)
(681.163 0 0 0 681.163 0 0 0 681.163)
(680.934 0 0 0 680.934 0 0 0 680.934)
(680.654 0 0 0 680.654 0 0 0 680.654)
(680.307 0 0 0 680.307 0 0 0 680.307)
(679.885 0 0 0 679.885 0 0 0 679.885)
(679.442 0 0 0 679.442 0 0 0 679.442)
(679.158 0 0 0 679.158 0 0 0 679.158)
(679.585 0 0 0 679.585 0 0 0 679.585)
(682.054 0 0 0 682.054 0 0 0 682.054)
(688.936 0 0 0 688.936 0 0 0 688.936)
(693.451 0 0 0 693.451 0 0 0 693.451)
(679.121 0 0 0 679.121 0 0 0 679.121)
(678.615 0 0 0 678.615 0 0 0 678.615)
(678.599 0 0 0 678.599 0 0 0 678.599)
(678.573 0 0 0 678.573 0 0 0 678.573)
(678.538 0 0 0 678.538 0 0 0 678.538)
(678.492 0 0 0 678.492 0 0 0 678.492)
(678.434 0 0 0 678.434 0 0 0 678.434)
(678.362 0 0 0 678.362 0 0 0 678.362)
(678.274 0 0 0 678.274 0 0 0 678.274)
(678.168 0 0 0 678.168 0 0 0 678.168)
(678.044 0 0 0 678.044 0 0 0 678.044)
(677.905 0 0 0 677.905 0 0 0 677.905)
(677.757 0 0 0 677.757 0 0 0 677.757)
(677.606 0 0 0 677.606 0 0 0 677.606)
(677.457 0 0 0 677.457 0 0 0 677.457)
(677.308 0 0 0 677.308 0 0 0 677.308)
(677.147 0 0 0 677.147 0 0 0 677.147)
(676.956 0 0 0 676.956 0 0 0 676.956)
(676.728 0 0 0 676.728 0 0 0 676.728)
(676.522 0 0 0 676.522 0 0 0 676.522)
(676.526 0 0 0 676.526 0 0 0 676.526)
(677.318 0 0 0 677.318 0 0 0 677.318)
(680.273 0 0 0 680.273 0 0 0 680.273)
(687.805 0 0 0 687.805 0 0 0 687.805)
(693.086 0 0 0 693.086 0 0 0 693.086)
(683.403 0 0 0 683.403 0 0 0 683.403)
(682.946 0 0 0 682.946 0 0 0 682.946)
(682.961 0 0 0 682.961 0 0 0 682.961)
(682.966 0 0 0 682.966 0 0 0 682.966)
(682.958 0 0 0 682.958 0 0 0 682.958)
(682.938 0 0 0 682.938 0 0 0 682.938)
(682.904 0 0 0 682.904 0 0 0 682.904)
(682.853 0 0 0 682.853 0 0 0 682.853)
(682.784 0 0 0 682.784 0 0 0 682.784)
(682.694 0 0 0 682.694 0 0 0 682.694)
(682.583 0 0 0 682.583 0 0 0 682.583)
(682.448 0 0 0 682.448 0 0 0 682.448)
(682.29 0 0 0 682.29 0 0 0 682.29)
(682.106 0 0 0 682.106 0 0 0 682.106)
(681.893 0 0 0 681.893 0 0 0 681.893)
(681.64 0 0 0 681.64 0 0 0 681.64)
(681.329 0 0 0 681.329 0 0 0 681.329)
(680.941 0 0 0 680.941 0 0 0 680.941)
(680.469 0 0 0 680.469 0 0 0 680.469)
(679.967 0 0 0 679.967 0 0 0 679.967)
(679.611 0 0 0 679.611 0 0 0 679.611)
(679.946 0 0 0 679.946 0 0 0 679.946)
(682.301 0 0 0 682.301 0 0 0 682.301)
(689.047 0 0 0 689.047 0 0 0 689.047)
(693.468 0 0 0 693.468 0 0 0 693.468)
(683.403 0 0 0 683.403 0 0 0 683.403)
(682.945 0 0 0 682.945 0 0 0 682.945)
(682.961 0 0 0 682.961 0 0 0 682.961)
(682.966 0 0 0 682.966 0 0 0 682.966)
(682.958 0 0 0 682.958 0 0 0 682.958)
(682.938 0 0 0 682.938 0 0 0 682.938)
(682.903 0 0 0 682.903 0 0 0 682.903)
(682.853 0 0 0 682.853 0 0 0 682.853)
(682.783 0 0 0 682.783 0 0 0 682.783)
(682.694 0 0 0 682.694 0 0 0 682.694)
(682.583 0 0 0 682.583 0 0 0 682.583)
(682.448 0 0 0 682.448 0 0 0 682.448)
(682.289 0 0 0 682.289 0 0 0 682.289)
(682.106 0 0 0 682.106 0 0 0 682.106)
(681.893 0 0 0 681.893 0 0 0 681.893)
(681.64 0 0 0 681.64 0 0 0 681.64)
(681.328 0 0 0 681.328 0 0 0 681.328)
(680.94 0 0 0 680.94 0 0 0 680.94)
(680.469 0 0 0 680.469 0 0 0 680.469)
(679.966 0 0 0 679.966 0 0 0 679.966)
(679.61 0 0 0 679.61 0 0 0 679.61)
(679.945 0 0 0 679.945 0 0 0 679.945)
(682.3 0 0 0 682.3 0 0 0 682.3)
(689.046 0 0 0 689.046 0 0 0 689.046)
(693.467 0 0 0 693.467 0 0 0 693.467)
(679.121 0 0 0 679.121 0 0 0 679.121)
(678.615 0 0 0 678.615 0 0 0 678.615)
(678.599 0 0 0 678.599 0 0 0 678.599)
(678.573 0 0 0 678.573 0 0 0 678.573)
(678.538 0 0 0 678.538 0 0 0 678.538)
(678.492 0 0 0 678.492 0 0 0 678.492)
(678.434 0 0 0 678.434 0 0 0 678.434)
(678.362 0 0 0 678.362 0 0 0 678.362)
(678.274 0 0 0 678.274 0 0 0 678.274)
(678.168 0 0 0 678.168 0 0 0 678.168)
(678.044 0 0 0 678.044 0 0 0 678.044)
(677.905 0 0 0 677.905 0 0 0 677.905)
(677.757 0 0 0 677.757 0 0 0 677.757)
(677.606 0 0 0 677.606 0 0 0 677.606)
(677.457 0 0 0 677.457 0 0 0 677.457)
(677.308 0 0 0 677.308 0 0 0 677.308)
(677.147 0 0 0 677.147 0 0 0 677.147)
(676.956 0 0 0 676.956 0 0 0 676.956)
(676.728 0 0 0 676.728 0 0 0 676.728)
(676.522 0 0 0 676.522 0 0 0 676.522)
(676.527 0 0 0 676.527 0 0 0 676.527)
(677.319 0 0 0 677.319 0 0 0 677.319)
(680.274 0 0 0 680.274 0 0 0 680.274)
(687.805 0 0 0 687.805 0 0 0 687.805)
(693.087 0 0 0 693.087 0 0 0 693.087)
)
;

boundaryField
{
    outletCentralUnloaded
    {
        type            zeroGradient;
    }
    inletCentralUnloaded
    {
        type            zeroGradient;
    }
    outletFuelElement
    {
        type            zeroGradient;
    }
    inletFuelElement
    {
        type            zeroGradient;
    }
    defaultFaces
    {
        type            zeroGradient;
    }
    baffle_master
    {
        type            zeroGradient;
    }
    baffle_slave
    {
        type            zeroGradient;
    }
}


// ************************************************************************* //
