/*--------------------------------*- C++ -*----------------------------------*\
| =========                 |                                                 |
| \\      /  F ield         | OpenFOAM: The Open Source CFD Toolbox           |
|  \\    /   O peration     | Version:  2212                                  |
|   \\  /    A nd           | Website:  www.openfoam.com                      |
|    \\/     M anipulation  |                                                 |
\*---------------------------------------------------------------------------*/
FoamFile
{
    version     2.0;
    format      ascii;
    arch        "LSB;label=32;scalar=64";
    class       volScalarField;
    location    "61/fluidRegion";
    object      nut;
}
// * * * * * * * * * * * * * * * * * * * * * * * * * * * * * * * * * * * * * //

dimensions      [0 2 -1 0 0 0 0];

internalField   nonuniform List<scalar> 
350
(
0.000537613
0.000537566
0.000537521
0.000537474
0.000537427
0.000537376
0.000537324
0.000537271
0.000537221
0.000537176
0.000537139
0.000537109
0.000537087
0.000537068
0.000537052
0.000537037
0.000537025
0.000537022
0.000537035
0.000537079
0.000537173
0.000537345
0.000537638
0.000538116
0.000539495
0.000537613
0.000537566
0.000537521
0.000537474
0.000537427
0.000537376
0.000537324
0.000537271
0.000537221
0.000537176
0.000537139
0.000537109
0.000537087
0.000537068
0.000537052
0.000537037
0.000537025
0.000537022
0.000537035
0.000537079
0.000537173
0.000537345
0.000537638
0.000538116
0.000539495
0.0104215
0.010202
0.0099304
0.0096029
0.00922446
0.00880026
0.00833564
0.00783609
0.00730725
0.006755
0.00618547
0.00560526
0.00502149
0.00444192
0.00387482
0.00332867
0.00281165
0.00233112
0.00189332
0.00150348
0.00116619
0.000885908
0.000666898
0.000511767
0.000416364
0.0104888
0.0102683
0.0099957
0.00966673
0.0092864
0.00885992
0.00839265
0.00789011
0.00735798
0.00680214
0.00622876
0.00564445
0.00505638
0.00447237
0.0039008
0.00335024
0.00282901
0.0023446
0.00190333
0.00151048
0.0011707
0.000888468
0.000668086
0.000512148
0.000416431
0.0104106
0.0101911
0.00991973
0.00959251
0.00921441
0.00879061
0.00832645
0.0078274
0.00729912
0.00674747
0.00617858
0.00559904
0.00501597
0.0044371
0.00387072
0.00332526
0.00280889
0.00232896
0.0018917
0.00150232
0.00116541
0.000885418
0.000666616
0.000511618
0.000416316
0.0104739
0.0102536
0.0099812
0.00965252
0.00927259
0.00884659
0.00837989
0.00787799
0.00734658
0.00679152
0.00621899
0.00563558
0.00504848
0.00446546
0.00389489
0.00334533
0.00282506
0.00234153
0.00190105
0.00150889
0.00116968
0.000887892
0.000667825
0.000512072
0.000416422
0.0104739
0.0102536
0.0099812
0.00965252
0.00927259
0.00884659
0.00837989
0.00787799
0.00734658
0.00679152
0.00621899
0.00563558
0.00504848
0.00446546
0.00389489
0.00334533
0.00282506
0.00234153
0.00190105
0.00150889
0.00116968
0.000887892
0.000667825
0.000512072
0.000416422
0.0104106
0.0101911
0.00991974
0.00959251
0.00921441
0.00879061
0.00832645
0.00782741
0.00729913
0.00674747
0.00617858
0.00559904
0.00501597
0.00443711
0.00387072
0.00332526
0.00280889
0.00232896
0.0018917
0.00150232
0.00116541
0.000885418
0.000666615
0.000511617
0.000416315
0.0104888
0.0102683
0.0099957
0.00966673
0.0092864
0.00885992
0.00839265
0.00789011
0.00735798
0.00680214
0.00622876
0.00564445
0.00505638
0.00447237
0.0039008
0.00335024
0.00282901
0.0023446
0.00190333
0.00151048
0.0011707
0.000888468
0.000668087
0.000512148
0.000416431
0.0104215
0.010202
0.0099304
0.0096029
0.00922446
0.00880026
0.00833564
0.00783609
0.00730725
0.006755
0.00618547
0.00560526
0.00502149
0.00444192
0.00387482
0.00332867
0.00281165
0.00233112
0.00189332
0.00150348
0.00116619
0.000885908
0.000666898
0.000511766
0.000416363
0.0104739
0.0102536
0.0099812
0.00965252
0.00927259
0.00884659
0.00837989
0.00787799
0.00734658
0.00679152
0.00621899
0.00563558
0.00504848
0.00446546
0.00389489
0.00334533
0.00282506
0.00234153
0.00190105
0.00150889
0.00116968
0.000887891
0.000667825
0.000512072
0.000416421
0.0104106
0.0101911
0.00991973
0.00959251
0.00921441
0.00879061
0.00832645
0.0078274
0.00729912
0.00674747
0.00617858
0.00559904
0.00501597
0.00443711
0.00387072
0.00332526
0.00280889
0.00232896
0.0018917
0.00150232
0.00116541
0.000885418
0.000666617
0.00051162
0.000416319
0.0104106
0.0101911
0.00991974
0.00959251
0.00921441
0.00879062
0.00832645
0.00782741
0.00729913
0.00674747
0.00617858
0.00559904
0.00501597
0.00443711
0.00387072
0.00332526
0.00280889
0.00232896
0.0018917
0.00150232
0.00116541
0.000885418
0.000666615
0.000511617
0.000416315
0.0104739
0.0102536
0.0099812
0.00965252
0.00927259
0.00884659
0.00837989
0.00787799
0.00734658
0.00679152
0.00621899
0.00563558
0.00504848
0.00446546
0.00389489
0.00334533
0.00282506
0.00234153
0.00190105
0.00150889
0.00116968
0.000887891
0.000667824
0.00051207
0.00041642
)
;

boundaryField
{
    outletCentralUnloaded
    {
        type            zeroGradient;
    }
    inletCentralUnloaded
    {
        type            zeroGradient;
    }
    outletFuelElement
    {
        type            zeroGradient;
    }
    inletFuelElement
    {
        type            zeroGradient;
    }
    defaultFaces
    {
        type            zeroGradient;
    }
    baffle_master
    {
        type            calculated;
        value           nonuniform List<scalar> 
150
(
0.000537613
0.000537613
0.000537613
0.000537566
0.000537566
0.000537566
0.000537521
0.000537521
0.000537521
0.000537474
0.000537474
0.000537474
0.000537427
0.000537427
0.000537427
0.000537376
0.000537376
0.000537376
0.000537324
0.000537324
0.000537324
0.000537271
0.000537271
0.000537271
0.000537221
0.000537221
0.000537221
0.000537176
0.000537176
0.000537176
0.000537139
0.000537139
0.000537139
0.000537109
0.000537109
0.000537109
0.000537087
0.000537087
0.000537087
0.000537068
0.000537068
0.000537068
0.000537052
0.000537052
0.000537052
0.000537037
0.000537037
0.000537037
0.000537025
0.000537025
0.000537025
0.000537022
0.000537022
0.000537022
0.000537035
0.000537035
0.000537035
0.000537079
0.000537079
0.000537079
0.000537173
0.000537173
0.000537173
0.000537345
0.000537345
0.000537345
0.000537638
0.000537638
0.000537638
0.000538116
0.000538116
0.000538116
0.000539495
0.000539495
0.000539495
0.000537613
0.000537613
0.000537613
0.000537566
0.000537566
0.000537566
0.000537521
0.000537521
0.000537521
0.000537474
0.000537474
0.000537474
0.000537427
0.000537427
0.000537427
0.000537376
0.000537376
0.000537376
0.000537324
0.000537324
0.000537324
0.000537271
0.000537271
0.000537271
0.000537221
0.000537221
0.000537221
0.000537176
0.000537176
0.000537176
0.000537139
0.000537139
0.000537139
0.000537109
0.000537109
0.000537109
0.000537087
0.000537087
0.000537087
0.000537068
0.000537068
0.000537068
0.000537052
0.000537052
0.000537052
0.000537037
0.000537037
0.000537037
0.000537025
0.000537025
0.000537025
0.000537022
0.000537022
0.000537022
0.000537035
0.000537035
0.000537035
0.000537079
0.000537079
0.000537079
0.000537173
0.000537173
0.000537173
0.000537345
0.000537345
0.000537345
0.000537638
0.000537638
0.000537638
0.000538116
0.000538116
0.000538116
0.000539495
0.000539495
0.000539495
)
;
    }
    baffle_slave
    {
        type            calculated;
        value           nonuniform List<scalar> 
150
(
0.0104888
0.0104739
0.0104739
0.0102683
0.0102536
0.0102536
0.0099957
0.0099812
0.0099812
0.00966673
0.00965252
0.00965252
0.0092864
0.00927259
0.00927259
0.00885992
0.00884659
0.00884659
0.00839265
0.00837989
0.00837989
0.00789011
0.00787799
0.00787799
0.00735798
0.00734658
0.00734658
0.00680214
0.00679152
0.00679152
0.00622876
0.00621899
0.00621899
0.00564445
0.00563558
0.00563558
0.00505638
0.00504848
0.00504848
0.00447237
0.00446546
0.00446546
0.0039008
0.00389489
0.00389489
0.00335024
0.00334533
0.00334533
0.00282901
0.00282506
0.00282506
0.0023446
0.00234153
0.00234153
0.00190333
0.00190105
0.00190105
0.00151048
0.00150889
0.00150889
0.0011707
0.00116968
0.00116968
0.000888468
0.000887892
0.000887891
0.000668086
0.000667825
0.000667824
0.000512148
0.000512072
0.00051207
0.000416431
0.000416422
0.00041642
0.0104739
0.0104888
0.0104739
0.0102536
0.0102683
0.0102536
0.0099812
0.0099957
0.0099812
0.00965252
0.00966673
0.00965252
0.00927259
0.0092864
0.00927259
0.00884659
0.00885992
0.00884659
0.00837989
0.00839265
0.00837989
0.00787799
0.00789011
0.00787799
0.00734658
0.00735798
0.00734658
0.00679152
0.00680214
0.00679152
0.00621899
0.00622876
0.00621899
0.00563558
0.00564445
0.00563558
0.00504848
0.00505638
0.00504848
0.00446546
0.00447237
0.00446546
0.00389489
0.0039008
0.00389489
0.00334533
0.00335024
0.00334533
0.00282506
0.00282901
0.00282506
0.00234153
0.0023446
0.00234153
0.00190105
0.00190333
0.00190105
0.00150889
0.00151048
0.00150889
0.00116968
0.0011707
0.00116968
0.000887892
0.000888468
0.000887891
0.000667825
0.000668087
0.000667825
0.000512072
0.000512148
0.000512072
0.000416422
0.000416431
0.000416421
)
;
    }
}


// ************************************************************************* //
