/*--------------------------------*- C++ -*----------------------------------*\
| =========                 |                                                 |
| \\      /  F ield         | OpenFOAM: The Open Source CFD Toolbox           |
|  \\    /   O peration     | Version:  2212                                  |
|   \\  /    A nd           | Website:  www.openfoam.com                      |
|    \\/     M anipulation  |                                                 |
\*---------------------------------------------------------------------------*/
FoamFile
{
    version     2.0;
    format      ascii;
    arch        "LSB;label=32;scalar=64";
    class       volScalarField;
    location    "61/fluidRegion";
    object      p;
}
// * * * * * * * * * * * * * * * * * * * * * * * * * * * * * * * * * * * * * //

dimensions      [1 -1 -2 0 0 0 0];

internalField   nonuniform List<scalar> 
350
(
3.44743e+06
3.44772e+06
3.44802e+06
3.44831e+06
3.44861e+06
3.44891e+06
3.4492e+06
3.4495e+06
3.44979e+06
3.45009e+06
3.45038e+06
3.45068e+06
3.45097e+06
3.45127e+06
3.45156e+06
3.45186e+06
3.45216e+06
3.45245e+06
3.45275e+06
3.45304e+06
3.45334e+06
3.45364e+06
3.45393e+06
3.45422e+06
3.45451e+06
3.44743e+06
3.44772e+06
3.44802e+06
3.44831e+06
3.44861e+06
3.44891e+06
3.4492e+06
3.4495e+06
3.44979e+06
3.45009e+06
3.45038e+06
3.45068e+06
3.45097e+06
3.45127e+06
3.45156e+06
3.45186e+06
3.45216e+06
3.45245e+06
3.45275e+06
3.45304e+06
3.45334e+06
3.45364e+06
3.45393e+06
3.45422e+06
3.45451e+06
3.47385e+06
3.52569e+06
3.57691e+06
3.62722e+06
3.67631e+06
3.72389e+06
3.7697e+06
3.81351e+06
3.85511e+06
3.8943e+06
3.93094e+06
3.96489e+06
3.99602e+06
4.02427e+06
4.04959e+06
4.07198e+06
4.09147e+06
4.10816e+06
4.1222e+06
4.13375e+06
4.14301e+06
4.15021e+06
4.15559e+06
4.15945e+06
4.16212e+06
3.47385e+06
3.52569e+06
3.57691e+06
3.62722e+06
3.67631e+06
3.72389e+06
3.7697e+06
3.81351e+06
3.85511e+06
3.8943e+06
3.93094e+06
3.96489e+06
3.99602e+06
4.02427e+06
4.04959e+06
4.07198e+06
4.09147e+06
4.10816e+06
4.1222e+06
4.13375e+06
4.14301e+06
4.15021e+06
4.15559e+06
4.15945e+06
4.16212e+06
3.47385e+06
3.52569e+06
3.57691e+06
3.62722e+06
3.67631e+06
3.72389e+06
3.7697e+06
3.81351e+06
3.85511e+06
3.8943e+06
3.93094e+06
3.96489e+06
3.99602e+06
4.02427e+06
4.04959e+06
4.07197e+06
4.09147e+06
4.10816e+06
4.1222e+06
4.13375e+06
4.14301e+06
4.15021e+06
4.15559e+06
4.15945e+06
4.16212e+06
3.47385e+06
3.52569e+06
3.57691e+06
3.62722e+06
3.67631e+06
3.72389e+06
3.7697e+06
3.81351e+06
3.85511e+06
3.8943e+06
3.93094e+06
3.96489e+06
3.99602e+06
4.02427e+06
4.04959e+06
4.07198e+06
4.09147e+06
4.10816e+06
4.1222e+06
4.13375e+06
4.14301e+06
4.15021e+06
4.15559e+06
4.15945e+06
4.16212e+06
3.47385e+06
3.52569e+06
3.57691e+06
3.62722e+06
3.67631e+06
3.72389e+06
3.7697e+06
3.81351e+06
3.85511e+06
3.8943e+06
3.93094e+06
3.96489e+06
3.99602e+06
4.02427e+06
4.04959e+06
4.07198e+06
4.09147e+06
4.10816e+06
4.1222e+06
4.13375e+06
4.14301e+06
4.15021e+06
4.15559e+06
4.15945e+06
4.16212e+06
3.47385e+06
3.52569e+06
3.57691e+06
3.62722e+06
3.67631e+06
3.72389e+06
3.7697e+06
3.81351e+06
3.85511e+06
3.8943e+06
3.93094e+06
3.96489e+06
3.99602e+06
4.02427e+06
4.04959e+06
4.07197e+06
4.09147e+06
4.10816e+06
4.1222e+06
4.13375e+06
4.14301e+06
4.15021e+06
4.15559e+06
4.15945e+06
4.16212e+06
3.47385e+06
3.52569e+06
3.57691e+06
3.62722e+06
3.67631e+06
3.72389e+06
3.7697e+06
3.81351e+06
3.85511e+06
3.8943e+06
3.93094e+06
3.96489e+06
3.99602e+06
4.02427e+06
4.04959e+06
4.07198e+06
4.09147e+06
4.10816e+06
4.1222e+06
4.13375e+06
4.14301e+06
4.15021e+06
4.15559e+06
4.15945e+06
4.16212e+06
3.47385e+06
3.52569e+06
3.57691e+06
3.62722e+06
3.67631e+06
3.72389e+06
3.7697e+06
3.81351e+06
3.85511e+06
3.8943e+06
3.93094e+06
3.96489e+06
3.99602e+06
4.02427e+06
4.04959e+06
4.07198e+06
4.09147e+06
4.10816e+06
4.1222e+06
4.13375e+06
4.14301e+06
4.15021e+06
4.15559e+06
4.15945e+06
4.16212e+06
3.47385e+06
3.52569e+06
3.57691e+06
3.62722e+06
3.67631e+06
3.72389e+06
3.7697e+06
3.81351e+06
3.85511e+06
3.8943e+06
3.93094e+06
3.96489e+06
3.99602e+06
4.02427e+06
4.04959e+06
4.07198e+06
4.09147e+06
4.10816e+06
4.1222e+06
4.13375e+06
4.14301e+06
4.15021e+06
4.15559e+06
4.15945e+06
4.16212e+06
3.47385e+06
3.52569e+06
3.57691e+06
3.62722e+06
3.67631e+06
3.72389e+06
3.7697e+06
3.81351e+06
3.85511e+06
3.8943e+06
3.93094e+06
3.96489e+06
3.99602e+06
4.02427e+06
4.04959e+06
4.07197e+06
4.09147e+06
4.10816e+06
4.1222e+06
4.13375e+06
4.14301e+06
4.15021e+06
4.15559e+06
4.15945e+06
4.16212e+06
3.47385e+06
3.52569e+06
3.57691e+06
3.62722e+06
3.67631e+06
3.72389e+06
3.7697e+06
3.81351e+06
3.85511e+06
3.8943e+06
3.93094e+06
3.96489e+06
3.99602e+06
4.02427e+06
4.04959e+06
4.07197e+06
4.09147e+06
4.10816e+06
4.1222e+06
4.13375e+06
4.14301e+06
4.15021e+06
4.15559e+06
4.15945e+06
4.16212e+06
3.47385e+06
3.52569e+06
3.57691e+06
3.62722e+06
3.67631e+06
3.72389e+06
3.7697e+06
3.81351e+06
3.85511e+06
3.8943e+06
3.93094e+06
3.96489e+06
3.99602e+06
4.02427e+06
4.04959e+06
4.07198e+06
4.09147e+06
4.10816e+06
4.1222e+06
4.13375e+06
4.14301e+06
4.15021e+06
4.15559e+06
4.15945e+06
4.16212e+06
)
;

boundaryField
{
    outletCentralUnloaded
    {
        type            fixedValue;
        value           uniform 3.44728e+06;
    }
    inletCentralUnloaded
    {
        type            zeroGradient;
    }
    outletFuelElement
    {
        type            fixedValue;
        value           uniform 3.44728e+06;
    }
    inletFuelElement
    {
        type            zeroGradient;
    }
    defaultFaces
    {
        type            zeroGradient;
    }
    baffle_master
    {
        type            zeroGradient;
    }
    baffle_slave
    {
        type            zeroGradient;
    }
}


// ************************************************************************* //
