/*--------------------------------*- C++ -*----------------------------------*\
| =========                 |                                                 |
| \\      /  F ield         | OpenFOAM: The Open Source CFD Toolbox           |
|  \\    /   O peration     | Version:  2212                                  |
|   \\  /    A nd           | Website:  www.openfoam.com                      |
|    \\/     M anipulation  |                                                 |
\*---------------------------------------------------------------------------*/
FoamFile
{
    version     2.0;
    format      ascii;
    arch        "LSB;label=32;scalar=64";
    class       volScalarField;
    location    "61/fluidRegion";
    object      Re;
}
// * * * * * * * * * * * * * * * * * * * * * * * * * * * * * * * * * * * * * //

dimensions      [0 0 0 0 0 0 0];

internalField   nonuniform List<scalar> 
350
(
174033
174034
174034
174034
174033
174030
174026
174021
174017
174015
174016
174020
174027
174035
174043
174049
174053
174053
174051
174048
174044
174041
174038
174035
174395
174033
174034
174034
174034
174033
174030
174026
174021
174017
174015
174016
174020
174027
174035
174043
174049
174053
174053
174051
174048
174044
174041
174038
174035
174395
55431.1
55381.9
55383.1
55383.4
55382.3
55380
55376.1
55370.5
55362.9
55353.3
55341.4
55327.2
55310.7
55292
55270.7
55245.9
55215.7
55178.1
55132.5
55084.6
55053.9
55100
55367.1
56113.2
56604.1
54940.1
54883.3
54880.4
54876.4
54871.5
54865.6
54858.4
54849.7
54839.3
54827
54813
54797.5
54781.4
54765.5
54750.7
54737
54723.1
54707.3
54688.8
54673.9
54683.4
54780.4
55115
55951.4
56551.3
55513.2
55463.6
55465.3
55465.8
55465
55462.8
55459.1
55453.6
55446.1
55436.4
55424.3
55409.8
55392.6
55372.8
55349.7
55322.3
55288.6
55246.7
55195.7
55141.4
55102.8
55139.1
55393.8
56125.3
56605.9
55049.8
54995.2
54993.4
54990.7
54986.9
54981.9
54975.7
54967.9
54958.3
54946.9
54933.5
54918.5
54902.5
54886.2
54870.1
54854
54836.6
54816
54791.4
54769.1
54769.6
54855.2
55174.5
55990.4
56564.4
55049.8
54995.2
54993.4
54990.7
54986.9
54981.9
54975.7
54967.9
54958.3
54946.9
54933.5
54918.5
54902.5
54886.2
54870.1
54854
54836.6
54816
54791.4
54769.1
54769.6
54855.2
55174.5
55990.4
56564.4
55513.2
55463.6
55465.3
55465.8
55465
55462.8
55459.1
55453.5
55446.1
55436.4
55424.3
55409.7
55392.6
55372.7
55349.7
55322.3
55288.6
55246.6
55195.6
55141.3
55102.7
55139
55393.7
56125.2
56605.8
54940.1
54883.3
54880.4
54876.4
54871.5
54865.6
54858.4
54849.7
54839.3
54827
54813
54797.5
54781.4
54765.5
54750.7
54737
54723.1
54707.3
54688.8
54673.9
54683.4
54780.4
55115
55951.4
56551.3
55431.1
55381.9
55383.1
55383.4
55382.3
55380
55376.1
55370.5
55363
55353.3
55341.4
55327.2
55310.7
55292
55270.7
55245.9
55215.7
55178.1
55132.5
55084.6
55053.9
55100
55367.1
56113.2
56604.1
55049.8
54995.2
54993.4
54990.7
54986.9
54981.9
54975.7
54967.9
54958.3
54946.9
54933.5
54918.5
54902.5
54886.2
54870.1
54854
54836.6
54816
54791.4
54769.1
54769.6
54855.1
55174.5
55990.4
56564.4
55513.2
55463.6
55465.3
55465.8
55465
55462.8
55459.1
55453.6
55446.1
55436.4
55424.3
55409.8
55392.6
55372.8
55349.7
55322.3
55288.6
55246.7
55195.7
55141.3
55102.8
55139.1
55393.8
56125.3
56605.9
55513.2
55463.6
55465.3
55465.8
55465
55462.8
55459.1
55453.6
55446.1
55436.4
55424.3
55409.7
55392.6
55372.7
55349.7
55322.3
55288.6
55246.6
55195.6
55141.3
55102.7
55139
55393.7
56125.2
56605.8
55049.8
54995.2
54993.5
54990.7
54986.9
54981.9
54975.7
54967.9
54958.3
54946.9
54933.5
54918.5
54902.5
54886.2
54870.1
54854
54836.6
54816
54791.4
54769.1
54769.7
54855.2
55174.5
55990.5
56564.4
)
;

boundaryField
{
    outletCentralUnloaded
    {
        type            zeroGradient;
    }
    inletCentralUnloaded
    {
        type            zeroGradient;
    }
    outletFuelElement
    {
        type            zeroGradient;
    }
    inletFuelElement
    {
        type            zeroGradient;
    }
    defaultFaces
    {
        type            zeroGradient;
    }
    baffle_master
    {
        type            zeroGradient;
    }
    baffle_slave
    {
        type            zeroGradient;
    }
}


// ************************************************************************* //
