/*--------------------------------*- C++ -*----------------------------------*\
| =========                 |                                                 |
| \\      /  F ield         | OpenFOAM: The Open Source CFD Toolbox           |
|  \\    /   O peration     | Version:  2212                                  |
|   \\  /    A nd           | Website:  www.openfoam.com                      |
|    \\/     M anipulation  |                                                 |
\*---------------------------------------------------------------------------*/
FoamFile
{
    version     2.0;
    format      ascii;
    arch        "LSB;label=32;scalar=64";
    class       volScalarField;
    location    "61/fluidRegion";
    object      Tcav.nuclearFuelPin;
}
// * * * * * * * * * * * * * * * * * * * * * * * * * * * * * * * * * * * * * //

dimensions      [0 0 0 1 0 0 0];

internalField   nonuniform List<scalar> 
350
(
0
0
0
0
0
0
0
0
0
0
0
0
0
0
0
0
0
0
0
0
0
0
0
0
0
0
0
0
0
0
0
0
0
0
0
0
0
0
0
0
0
0
0
0
0
0
0
0
0
0
1845.6
1883.7
1908.85
1921.06
1920.45
1907.29
1882
1845.16
1797.47
1739.78
1673.07
1598.44
1517.1
1430.41
1339.78
1246.7
1152.54
1058.37
964.595
870.383
772.821
665.614
538.012
377.908
186.911
1874.04
1912.76
1938.3
1950.67
1949.99
1936.54
1910.74
1873.18
1824.58
1765.8
1697.83
1621.78
1538.9
1450.55
1358.17
1263.28
1167.3
1071.35
975.902
880.16
781.208
672.67
543.579
381.526
188.134
1840.98
1879
1904.11
1916.31
1915.73
1902.63
1877.45
1840.73
1793.21
1735.7
1669.2
1594.8
1513.72
1427.29
1336.95
1244.15
1150.28
1056.39
962.873
868.9
771.556
664.561
537.193
377.38
186.725
1867.65
1906.2
1931.64
1943.96
1943.28
1929.88
1904.19
1866.78
1818.38
1759.84
1692.15
1616.42
1533.89
1445.91
1353.93
1259.45
1163.89
1068.35
973.288
877.898
779.267
671.036
542.289
380.686
187.851
1867.65
1906.2
1931.64
1943.96
1943.28
1929.88
1904.19
1866.78
1818.38
1759.84
1692.15
1616.42
1533.89
1445.91
1353.93
1259.45
1163.89
1068.35
973.288
877.898
779.267
671.036
542.289
380.686
187.851
1840.98
1879
1904.11
1916.32
1915.73
1902.64
1877.45
1840.74
1793.21
1735.7
1669.2
1594.8
1513.72
1427.29
1336.95
1244.15
1150.28
1056.39
962.873
868.9
771.557
664.562
537.194
377.381
186.725
1874.04
1912.76
1938.3
1950.67
1949.99
1936.54
1910.74
1873.18
1824.58
1765.8
1697.83
1621.78
1538.9
1450.55
1358.17
1263.28
1167.3
1071.35
975.902
880.16
781.208
672.67
543.579
381.526
188.134
1845.6
1883.69
1908.85
1921.06
1920.45
1907.29
1882
1845.16
1797.47
1739.78
1673.07
1598.44
1517.1
1430.41
1339.78
1246.7
1152.54
1058.37
964.595
870.383
772.821
665.614
538.012
377.908
186.911
1867.65
1906.2
1931.64
1943.96
1943.28
1929.88
1904.19
1866.78
1818.38
1759.84
1692.15
1616.42
1533.89
1445.91
1353.93
1259.45
1163.89
1068.35
973.288
877.898
779.267
671.036
542.289
380.686
187.851
1840.98
1879
1904.11
1916.31
1915.73
1902.63
1877.45
1840.73
1793.21
1735.7
1669.2
1594.8
1513.72
1427.29
1336.95
1244.15
1150.28
1056.39
962.873
868.9
771.556
664.561
537.193
377.38
186.725
1840.98
1879
1904.11
1916.32
1915.73
1902.64
1877.45
1840.73
1793.21
1735.7
1669.2
1594.8
1513.72
1427.29
1336.95
1244.15
1150.28
1056.39
962.873
868.9
771.557
664.562
537.194
377.381
186.725
1867.65
1906.2
1931.64
1943.96
1943.28
1929.88
1904.19
1866.78
1818.38
1759.84
1692.15
1616.42
1533.89
1445.91
1353.93
1259.45
1163.89
1068.35
973.288
877.898
779.267
671.036
542.289
380.686
187.851
)
;

boundaryField
{
    outletCentralUnloaded
    {
        type            zeroGradient;
    }
    inletCentralUnloaded
    {
        type            zeroGradient;
    }
    outletFuelElement
    {
        type            zeroGradient;
    }
    inletFuelElement
    {
        type            zeroGradient;
    }
    defaultFaces
    {
        type            zeroGradient;
    }
    baffle_master
    {
        type            zeroGradient;
    }
    baffle_slave
    {
        type            zeroGradient;
    }
}


// ************************************************************************* //
