/*--------------------------------*- C++ -*----------------------------------*\
| =========                 |                                                 |
| \\      /  F ield         | OpenFOAM: The Open Source CFD Toolbox           |
|  \\    /   O peration     | Version:  2212                                  |
|   \\  /    A nd           | Website:  www.openfoam.com                      |
|    \\/     M anipulation  |                                                 |
\*---------------------------------------------------------------------------*/
FoamFile
{
    version     2.0;
    format      ascii;
    arch        "LSB;label=32;scalar=64";
    class       volScalarField;
    location    "61/fluidRegion";
    object      Tfi.nuclearFuelPin;
}
// * * * * * * * * * * * * * * * * * * * * * * * * * * * * * * * * * * * * * //

dimensions      [0 0 0 1 0 0 0];

internalField   nonuniform List<scalar> 
350
(
0
0
0
0
0
0
0
0
0
0
0
0
0
0
0
0
0
0
0
0
0
0
0
0
0
0
0
0
0
0
0
0
0
0
0
0
0
0
0
0
0
0
0
0
0
0
0
0
0
0
2423.45
3611.89
4760.1
5850.38
6865.84
7790.73
8610.69
9312.96
9886.59
10322.6
10614.3
10757
10748.5
10589.1
10281.3
9830.04
9242.31
8526.98
7694.2
6754.91
5719.42
4596.3
3390.73
2107.73
766.719
2458.49
3660.72
4822.19
5924.97
6952.01
7887.36
8716.49
9426.51
10006.3
10447
10741.4
10885.2
10876.1
10714.2
10402.1
9944.93
9349.73
8625.51
7782.59
6832.09
5784.46
4648.38
3428.97
2131.16
774.581
2417.78
3604.04
4750.16
5838.46
6852.1
7775.35
8593.87
9294.92
9867.57
10302.9
10594.1
10736.6
10728.3
10569.3
10262.2
9811.84
9225.29
8511.37
7680.21
6742.69
5709.13
4588.07
3384.71
2104.05
765.475
2450.58
3649.62
4808.02
5907.91
6932.26
7865.19
8692.2
9400.42
9978.82
10418.4
10712.2
10855.7
10846.7
10685.4
10374.3
9918.48
9324.99
8602.81
7762.23
6814.31
5769.48
4636.38
3420.16
2125.76
772.77
2450.58
3649.62
4808.02
5907.91
6932.26
7865.19
8692.2
9400.42
9978.82
10418.4
10712.2
10855.7
10846.7
10685.4
10374.3
9918.48
9324.99
8602.81
7762.23
6814.31
5769.48
4636.38
3420.16
2125.76
772.77
2417.78
3604.04
4750.17
5838.47
6852.1
7775.35
8593.87
9294.92
9867.57
10302.9
10594.1
10736.6
10728.3
10569.3
10262.2
9811.84
9225.3
8511.37
7680.21
6742.69
5709.13
4588.08
3384.71
2104.05
765.475
2458.49
3660.72
4822.19
5924.97
6952.01
7887.36
8716.49
9426.51
10006.3
10447
10741.4
10885.2
10876.1
10714.2
10402.1
9944.93
9349.73
8625.5
7782.59
6832.09
5784.46
4648.38
3428.97
2131.16
774.581
2423.45
3611.89
4760.1
5850.38
6865.84
7790.73
8610.69
9312.96
9886.59
10322.6
10614.3
10757
10748.5
10589.1
10281.3
9830.04
9242.31
8526.98
7694.2
6754.91
5719.42
4596.3
3390.73
2107.73
766.719
2450.58
3649.62
4808.02
5907.91
6932.26
7865.19
8692.2
9400.42
9978.82
10418.4
10712.2
10855.7
10846.7
10685.4
10374.3
9918.48
9324.99
8602.81
7762.23
6814.31
5769.48
4636.38
3420.16
2125.76
772.77
2417.78
3604.04
4750.16
5838.46
6852.1
7775.35
8593.87
9294.91
9867.57
10302.9
10594.1
10736.6
10728.3
10569.3
10262.2
9811.84
9225.29
8511.37
7680.21
6742.69
5709.13
4588.07
3384.71
2104.05
765.475
2417.78
3604.04
4750.16
5838.47
6852.1
7775.35
8593.87
9294.92
9867.57
10302.9
10594.1
10736.6
10728.3
10569.3
10262.2
9811.84
9225.29
8511.37
7680.21
6742.69
5709.13
4588.07
3384.71
2104.05
765.475
2450.58
3649.62
4808.02
5907.91
6932.26
7865.19
8692.2
9400.42
9978.82
10418.4
10712.2
10855.7
10846.7
10685.4
10374.3
9918.48
9324.99
8602.81
7762.23
6814.31
5769.48
4636.38
3420.16
2125.76
772.769
)
;

boundaryField
{
    outletCentralUnloaded
    {
        type            zeroGradient;
    }
    inletCentralUnloaded
    {
        type            zeroGradient;
    }
    outletFuelElement
    {
        type            zeroGradient;
    }
    inletFuelElement
    {
        type            zeroGradient;
    }
    defaultFaces
    {
        type            zeroGradient;
    }
    baffle_master
    {
        type            zeroGradient;
    }
    baffle_slave
    {
        type            zeroGradient;
    }
}


// ************************************************************************* //
