/*--------------------------------*- C++ -*----------------------------------*\
| =========                 |                                                 |
| \\      /  F ield         | OpenFOAM: The Open Source CFD Toolbox           |
|  \\    /   O peration     | Version:  2212                                  |
|   \\  /    A nd           | Website:  www.openfoam.com                      |
|    \\/     M anipulation  |                                                 |
\*---------------------------------------------------------------------------*/
FoamFile
{
    version     2.0;
    format      ascii;
    arch        "LSB;label=32;scalar=64";
    class       scalarFieldField;
    location    "61/fluidRegion";
    object      Trad.nuclearFuelPin;
}
// * * * * * * * * * * * * * * * * * * * * * * * * * * * * * * * * * * * * * //


350
(
0()
0()
0()
0()
0()
0()
0()
0()
0()
0()
0()
0()
0()
0()
0()
0()
0()
0()
0()
0()
0()
0()
0()
0()
0()
0()
0()
0()
0()
0()
0()
0()
0()
0()
0()
0()
0()
0()
0()
0()
0()
0()
0()
0()
0()
0()
0()
0()
0()
0()

20
(
2423.45
2421.67
2416.32
2407.4
2394.93
2378.88
2359.27
2336.09
2309.34
2279.02
2245.13
2207.66
2166.63
2122.02
2073.83
2022.07
1851.69
1847.63
1843.71
1839.91
)


20
(
3611.89
3606.55
3590.55
3563.88
3526.53
3478.52
3419.83
3350.48
3270.45
3179.74
3078.36
2966.31
2843.58
2710.17
2566.07
2411.3
1901.92
1889.79
1878.05
1866.68
)


20
(
4760.1
4751.3
4724.89
4680.88
4619.26
4540.04
4443.21
4328.77
4196.72
4047.07
3879.8
3694.92
3492.43
3272.33
3034.6
2779.27
1938.92
1918.9
1899.54
1880.78
)


20
(
5850.38
5838.24
5801.85
5741.19
5656.27
5547.09
5413.64
5255.93
5073.95
4867.71
4637.19
4382.41
4103.35
3800.03
3472.42
3120.55
1962.5
1934.91
1908.23
1882.38
)


20
(
6865.84
6850.57
6804.76
6728.42
6621.54
6484.12
6316.16
6117.66
5888.62
5629.03
5338.91
5018.24
4667.02
4285.26
3872.95
3430.09
1972.6
1937.88
1904.29
1871.77
)


20
(
7790.73
7772.57
7718.07
7627.25
7500.09
7336.6
7136.78
6900.62
6628.13
6319.31
5974.15
5592.65
5174.82
4720.64
4230.12
3703.26
1969.33
1928.03
1888.07
1849.37
)


20
(
8610.69
8589.92
8527.59
8423.72
8278.29
8091.31
7862.78
7592.69
7281.06
6927.86
6533.11
6096.81
5618.94
5099.52
4538.53
3935.98
1952.96
1905.72
1860.02
1815.77
)


20
(
9312.96
9289.9
9220.73
9105.44
8944.04
8736.52
8482.89
8183.13
7837.26
7445.27
7007.16
6522.92
5992.57
5416.09
4793.48
4124.75
1923.91
1871.48
1820.77
1771.65
)


20
(
9886.59
9861.62
9786.69
9661.81
9486.97
9262.19
8987.45
8662.75
8288.1
7863.5
7388.94
6864.41
6289.93
5665.49
4991.08
4266.71
1882.77
1825.99
1771.05
1717.84
)


20
(
10322.6
10296.1
10216.6
10084.1
9898.62
9660.12
9368.61
9024.09
8626.57
8176.05
7672.52
7115.98
6506.44
5843.88
5128.31
4359.73
1830.29
1770.04
1711.75
1655.3
)


20
(
10614.3
10586.7
10503.8
10365.8
10172.6
9924.1
9620.41
9261.51
8847.4
8378.06
7853.51
7273.73
6638.74
5948.52
5203.07
4402.4
1767.36
1704.59
1643.87
1585.06
)


20
(
10757
10728.7
10643.9
10502.5
10304.5
10050
9738.95
9371.33
8947.14
8466.4
7929.09
7335.23
6684.79
5977.8
5214.23
4394.11
1695.02
1630.72
1568.52
1508.28
)


20
(
10748.5
10720
10634.5
10492
10292.5
10035.9
9722.39
9351.84
8924.28
8439.71
7898.13
7299.54
6643.93
5931.31
5161.67
4335.01
1614.45
1549.64
1486.95
1426.23
)


20
(
10589.1
10560.8
10476
10334.6
10136.6
9882.13
9571.06
9203.43
8779.24
8298.48
7761.17
7167.29
6516.85
5809.84
5046.26
4226.12
1526.99
1462.69
1400.49
1340.25
)


20
(
10281.3
10253.7
10170.9
10032.8
9839.58
9591.1
9287.41
8928.49
8514.36
8045
7520.43
6940.63
6305.61
5615.36
4869.89
4069.2
1434.07
1371.3
1310.57
1251.76
)


20
(
9830.04
9803.54
9724.03
9591.52
9406
9167.48
8875.94
8531.41
8133.86
7683.31
7179.75
6623.18
6013.59
5351
4635.39
3866.77
1337.21
1276.95
1218.66
1162.21
)


20
(
9242.31
9217.33
9142.4
9017.5
8842.65
8617.84
8343.08
8018.35
7643.67
7219.02
6744.41
6219.85
5645.32
5020.83
4346.37
3621.95
1237.85
1181.06
1126.11
1072.91
)


20
(
8526.98
8503.92
8434.74
8319.43
8158.01
7950.46
7696.79
7397
7051.08
6659.04
6220.88
5736.59
5206.18
4629.63
4006.97
3338.17
1137.13
1084.7
1033.98
984.854
)


20
(
7694.2
7673.42
7611.09
7507.19
7361.74
7174.73
6946.16
6676.03
6364.34
6011.09
5616.29
5179.92
4701.98
4182.49
3621.43
3018.81
1035.56
988.316
942.612
898.351
)


20
(
6754.91
6736.74
6682.23
6591.39
6464.2
6300.67
6100.8
5864.6
5592.05
5283.16
4937.93
4556.36
4138.44
3684.19
3193.59
2666.64
932.436
891.125
851.161
812.457
)


20
(
5719.42
5704.14
5658.32
5581.96
5475.04
5337.58
5169.57
4971.01
4741.9
4482.25
4192.05
3871.29
3519.99
3138.13
2725.73
2282.77
824.983
790.257
756.662
724.128
)


20
(
4596.3
4584.16
4547.75
4487.07
4402.11
4292.88
4159.37
4001.6
3819.54
3613.21
3382.61
3127.73
2848.58
2545.15
2217.44
1865.46
707.063
679.469
652.774
626.921
)


20
(
3390.73
3381.92
3355.49
3311.45
3249.8
3170.52
3073.63
2959.12
2826.99
2677.25
2509.89
2324.91
2122.31
1902.1
1664.26
1408.81
568.094
548.067
528.693
509.93
)


20
(
2107.73
2102.39
2086.36
2059.66
2022.27
1974.2
1915.45
1846.01
1765.89
1675.09
1573.61
1461.44
1338.59
1205.05
1060.84
905.936
396.149
384.005
372.257
360.88
)


20
(
766.719
764.928
759.557
750.605
738.072
721.959
702.265
678.99
652.134
621.698
587.681
550.084
508.906
464.148
415.81
363.891
193.025
188.955
185.017
181.204
)


20
(
2458.49
2456.69
2451.28
2442.26
2429.64
2413.41
2393.58
2370.13
2343.08
2312.41
2278.14
2240.25
2198.74
2153.62
2104.88
2052.53
1880.21
1876.11
1872.13
1868.29
)


20
(
3660.72
3655.33
3639.14
3612.16
3574.39
3525.83
3466.47
3396.32
3315.38
3223.64
3121.1
3007.76
2883.62
2748.69
2602.95
2446.4
1931.19
1918.92
1907.05
1895.55
)


20
(
4822.19
4813.29
4786.58
4742.06
4679.74
4599.61
4501.67
4385.92
4252.36
4100.99
3931.81
3744.82
3540.01
3317.38
3076.94
2818.68
1968.72
1948.47
1928.88
1909.91
)


20
(
5924.97
5912.7
5875.89
5814.54
5728.65
5618.22
5483.24
5323.72
5139.66
4931.05
4697.9
4440.2
4157.95
3851.15
3519.8
3163.89
1992.58
1964.68
1937.69
1911.55
)


20
(
6952.01
6936.56
6890.23
6813.01
6704.91
6565.91
6396.03
6195.26
5963.6
5701.04
5407.59
5083.25
4728.01
4341.88
3924.85
3476.92
2002.74
1967.62
1933.65
1900.75
)


20
(
7887.36
7868.98
7813.86
7722
7593.38
7428.02
7225.91
6987.05
6711.45
6399.08
6049.97
5664.11
5241.49
4782.11
4285.97
3753.08
1999.29
1957.51
1917.1
1877.96
)


20
(
8716.49
8695.48
8632.44
8527.37
8380.28
8191.16
7960.01
7686.84
7371.63
7014.39
6615.12
6173.82
5690.48
5165.11
4597.7
3988.25
1982.51
1934.73
1888.51
1843.75
)


20
(
9426.51
9403.19
9333.22
9216.62
9053.36
8843.47
8586.93
8283.74
7933.91
7537.43
7094.3
6604.52
6068.09
5485.01
4855.27
4178.88
1952.84
1899.81
1848.51
1798.83
)


20
(
10006.3
9981.08
9905.3
9778.99
9602.15
9374.79
9096.91
8768.49
8389.55
7960.08
7480.09
6949.56
6368.49
5736.9
5054.77
4322.1
1910.86
1853.42
1797.86
1744.04
)


20
(
10447
10420.1
10339.7
10205.7
10018.1
9776.84
9482
9133.54
8731.47
8275.78
7766.49
7203.57
6587.05
5916.9
5193.14
4415.76
1857.34
1796.4
1737.44
1680.34
)


20
(
10741.4
10713.5
10629.7
10490.1
10294.7
10043.4
9736.19
9373.18
8954.32
8479.61
7949.05
7362.64
6720.37
6022.24
5268.26
4458.42
1793.19
1729.71
1668.29
1608.8
)


20
(
10885.2
10856.6
10770.8
10627.8
10427.6
10170.2
9855.53
9483.7
9054.66
8568.41
8024.95
7424.28
6766.4
6051.3
5278.99
4449.47
1719.47
1654.43
1591.52
1530.59
)


20
(
10876.1
10847.2
10760.7
10616.6
10414.8
10155.3
9838.18
9463.38
9030.92
8540.8
7993.02
7387.57
6724.45
6003.67
5225.21
4389.09
1637.36
1571.82
1508.4
1446.99
)


20
(
10714.2
10685.6
10599.7
10456.7
10256.5
9999.08
9684.44
9312.6
8883.55
8397.29
7853.82
7253.14
6595.24
5880.14
5107.82
4278.28
1548.23
1483.2
1420.29
1359.36
)


20
(
10402.1
10374.2
10290.4
10150.8
9955.33
9704
9396.83
9033.8
8614.92
8140.19
7609.61
7023.17
6380.88
5682.73
4928.72
4118.85
1453.54
1390.05
1328.63
1269.14
)


20
(
9944.93
9918.13
9837.71
9703.68
9516.04
9274.78
8979.91
8631.43
8229.33
7773.61
7264.28
6701.34
6084.77
5414.59
4690.79
3913.36
1354.83
1293.88
1234.92
1177.82
)


20
(
9349.73
9324.46
9248.67
9122.35
8945.49
8718.11
8440.2
8111.75
7732.77
7303.26
6823.22
6292.65
5711.54
5079.89
4397.71
3664.99
1253.58
1196.14
1140.57
1086.75
)


20
(
8625.51
8602.18
8532.21
8415.58
8252.31
8042.38
7785.81
7482.58
7132.7
6736.17
6292.99
5803.16
5266.67
4683.52
4053.72
3377.26
1151.01
1097.98
1046.68
996.992
)


20
(
7782.59
7761.58
7698.53
7593.44
7446.32
7257.17
7025.98
6752.76
6437.5
6080.21
5680.87
5239.51
4756.1
4230.66
3663.17
3053.65
1047.68
999.895
953.667
908.899
)


20
(
6832.09
6813.71
6758.58
6666.69
6538.05
6372.65
6170.49
5931.58
5655.91
5343.48
4994.3
4608.36
4185.65
3726.19
3229.97
2696.99
942.923
901.139
860.717
821.57
)


20
(
5784.46
5769.02
5722.67
5645.43
5537.29
5398.25
5228.32
5027.48
4795.75
4533.13
4239.6
3915.17
3559.84
3173.61
2756.49
2308.46
833.968
798.844
764.864
731.957
)


20
(
4648.38
4636.1
4599.27
4537.89
4451.96
4341.48
4206.45
4046.86
3862.72
3654.03
3420.79
3162.99
2880.64
2573.73
2242.27
1886.26
714.594
686.684
659.683
633.534
)


20
(
3428.97
3420.06
3393.33
3348.79
3286.42
3206.24
3108.24
2992.42
2858.78
2707.32
2538.04
2350.94
2146.03
1923.29
1682.73
1424.35
574.006
553.75
534.154
515.176
)


20
(
2131.16
2125.76
2109.55
2082.54
2044.72
1996.1
1936.67
1866.44
1785.41
1693.57
1590.92
1477.47
1353.21
1218.15
1072.28
915.602
399.976
387.693
375.81
364.303
)


20
(
774.581
772.77
767.337
758.283
745.606
729.308
709.389
685.847
658.684
627.9
593.493
555.466
513.816
468.546
419.654
367.14
194.318
190.201
186.218
182.361
)


20
(
2417.78
2416
2410.66
2401.76
2389.31
2373.29
2353.71
2330.57
2303.87
2273.61
2239.78
2202.39
2161.42
2116.89
2068.8
2017.13
1847.06
1843.01
1839.09
1835.3
)


20
(
3604.04
3598.72
3582.74
3556.12
3518.84
3470.91
3412.34
3343.11
3263.22
3172.68
3071.49
2959.64
2837.13
2703.96
2560.13
2405.64
1897.19
1885.08
1873.36
1862.01
)


20
(
4750.16
4741.38
4715.02
4671.09
4609.58
4530.5
4433.85
4319.62
4187.81
4038.43
3871.47
3686.93
3484.8
3265.1
3027.81
2772.94
1934.12
1914.14
1894.81
1876.09
)


20
(
5838.46
5826.36
5790.03
5729.48
5644.72
5535.73
5402.53
5245.1
5063.46
4857.58
4627.49
4373.17
4094.63
3791.85
3464.85
3113.61
1957.68
1930.14
1903.5
1877.7
)


20
(
6852.1
6836.86
6791.14
6714.93
6608.25
6471.08
6303.42
6105.29
5876.66
5617.55
5327.96
5007.87
4657.3
4276.23
3864.67
3422.62
1967.79
1933.13
1899.61
1867.14
)


20
(
7775.35
7757.22
7702.82
7612.16
7485.23
7322.04
7122.59
6886.86
6614.87
6306.61
5962.08
5581.28
5164.2
4710.86
4221.23
3695.33
1964.56
1923.34
1883.45
1844.82
)


20
(
8593.87
8573.13
8510.92
8407.23
8262.07
8075.43
7847.32
7577.72
7266.65
6914.11
6520.08
6084.57
5607.57
5089.09
4529.13
3927.68
1948.27
1901.12
1855.51
1811.33
)


20
(
9294.92
9271.9
9202.85
9087.78
8926.67
8719.53
8466.35
8167.15
7821.91
7430.63
6993.32
6509.97
5980.58
5405.15
4783.68
4116.17
1919.34
1867.01
1816.38
1767.36
)


20
(
9867.57
9842.64
9767.85
9643.2
9468.68
9244.31
8970.07
8645.97
8272
7848.17
7374.47
6850.9
6277.47
5654.17
4980.99
4257.94
1878.35
1821.67
1766.83
1713.72
)


20
(
10302.9
10276.4
10197.1
10064.8
9879.66
9641.59
9350.61
9006.73
8609.93
8160.23
7657.62
7102.1
6493.66
5832.31
5118.05
4350.87
1826.05
1765.9
1707.72
1651.37
)


20
(
10594.1
10566.5
10483.9
10346.1
10153.2
9905.18
9602.05
9243.8
8830.44
8361.96
7838.36
7259.65
6625.81
5936.85
5192.76
4393.56
1763.32
1700.66
1640.05
1581.35
)


20
(
10736.6
10708.4
10623.7
10482.6
10285
10031
9720.47
9353.51
8930.1
8450.24
7913.91
7321.13
6671.88
5966.17
5204
4385.37
1691.2
1627.02
1564.94
1504.81
)


20
(
10728.3
10699.9
10614.5
10472.2
10273.1
10017
9704.04
9334.17
8907.39
8423.7
7883.11
7285.61
6631.19
5919.87
5151.64
4326.49
1610.89
1546.2
1483.62
1423.01
)


20
(
10569.3
10541.1
10456.4
10315.2
10117.7
9863.6
9553.1
9186.14
8762.72
8282.84
7746.51
7153.71
6504.45
5798.73
5036.55
4217.9
1523.69
1459.52
1397.43
1337.3
)


20
(
10262.2
10234.6
10151.9
10014.2
9821.24
9573.22
9270.08
8911.81
8498.44
8029.94
7506.32
6927.58
6293.71
5604.73
4860.62
4061.38
1431.06
1368.41
1307.79
1249.09
)


20
(
9811.84
9785.38
9706.02
9573.75
9388.57
9150.48
8859.48
8515.57
8118.75
7669.02
7166.38
6610.82
6002.35
5340.96
4626.66
3859.45
1334.5
1274.35
1216.16
1159.81
)


20
(
9225.29
9200.36
9125.56
9000.9
8826.36
8601.97
8327.7
8003.57
7629.56
7205.69
6731.95
6208.34
5634.86
5011.51
4338.28
3615.18
1235.43
1178.74
1123.9
1070.79
)


20
(
8511.37
8488.35
8419.3
8304.2
8143.07
7935.9
7682.7
7383.45
7038.17
6646.84
6209.48
5726.07
5196.63
4621.14
3999.6
3332.03
1135
1082.67
1032.04
983.004
)


20
(
7680.21
7659.47
7597.24
7493.54
7348.35
7161.68
6933.53
6663.89
6352.77
6000.17
5606.08
5170.5
4693.44
4174.9
3614.86
3013.34
1033.71
986.55
940.93
896.749
)


20
(
6742.69
6724.56
6670.15
6579.47
6452.51
6289.28
6089.78
5854
5581.95
5273.63
4929.03
4548.15
4131
3677.57
3187.86
2661.88
930.839
889.604
849.712
811.079
)


20
(
5709.13
5693.88
5648.15
5571.92
5465.2
5327.99
5160.28
4962.09
4733.4
4474.22
4184.54
3864.38
3513.71
3132.56
2720.9
2278.75
823.624
788.961
755.427
722.952
)


20
(
4588.07
4575.96
4539.62
4479.04
4394.24
4285.21
4151.95
3994.46
3812.74
3606.78
3376.6
3122.19
2843.54
2540.67
2213.56
1862.22
705.935
678.391
651.744
625.939
)


20
(
3384.71
3375.91
3349.54
3305.58
3244.03
3164.9
3068.18
2953.88
2822
2672.53
2505.47
2320.83
2118.6
1898.79
1661.39
1406.4
567.22
547.23
527.891
509.163
)


20
(
2104.05
2098.71
2082.72
2056.06
2018.74
1970.76
1912.11
1842.81
1762.83
1672.2
1570.9
1458.94
1336.31
1203.02
1059.06
904.445
395.588
383.467
371.74
360.384
)


20
(
765.475
763.688
758.327
749.391
736.881
720.797
701.139
677.906
651.1
620.719
586.764
549.236
508.133
463.457
415.206
363.382
192.827
188.765
184.834
181.028
)


20
(
2450.58
2448.78
2443.38
2434.39
2421.8
2405.62
2385.83
2362.45
2335.46
2304.88
2270.69
2232.9
2191.5
2146.5
2097.89
2045.67
1873.8
1869.7
1865.74
1861.91
)


20
(
3649.62
3644.24
3628.09
3601.18
3563.51
3515.07
3455.87
3385.9
3305.17
3213.67
3111.4
2998.35
2874.54
2739.95
2594.59
2438.46
1924.59
1912.35
1900.51
1889.04
)


20
(
4808.02
4799.14
4772.5
4728.1
4665.94
4586.02
4488.33
4372.89
4239.68
4088.7
3919.96
3733.45
3529.18
3307.13
3067.32
2809.73
1961.98
1941.78
1922.25
1903.33
)


20
(
5907.91
5895.67
5858.95
5797.76
5712.09
5601.95
5467.33
5308.22
5124.64
4916.58
4684.03
4427
4145.49
3839.49
3509
3154.02
1985.76
1957.93
1931.01
1904.94
)


20
(
6932.26
6916.86
6870.65
6793.63
6685.81
6547.18
6377.74
6177.49
5946.43
5684.56
5391.87
5068.38
4714.07
4328.94
3912.99
3466.23
1995.89
1960.87
1926.98
1894.17
)


20
(
7865.19
7846.87
7791.89
7700.26
7571.98
7407.05
7205.47
6967.23
6692.34
6380.8
6032.59
5647.73
5226.22
4768.04
4273.19
3741.69
1992.47
1950.8
1910.49
1871.45
)


20
(
8692.2
8671.24
8608.37
8503.58
8356.87
8168.24
7937.69
7665.23
7350.84
6994.54
6596.31
6156.15
5674.08
5150.07
4584.14
3976.28
1975.77
1928.12
1882.02
1837.37
)


20
(
9400.42
9377.16
9307.38
9191.08
9028.25
8818.9
8563.03
8260.63
7911.71
7516.27
7074.29
6585.79
6050.76
5469.19
4841.1
4166.47
1946.23
1893.34
1842.17
1792.62
)


20
(
9978.82
9953.62
9878.03
9752.05
9575.68
9348.91
9071.75
8744.19
8366.24
7937.89
7459.14
6930
6350.45
5720.5
5040.15
4309.39
1904.44
1847.15
1791.72
1738.05
)


20
(
10418.4
10391.6
10311.4
10177.8
9990.61
9750
9455.92
9108.37
8707.35
8252.85
7744.88
7183.44
6568.52
5900.12
5178.24
4402.89
1851.15
1790.36
1731.56
1674.61
)


20
(
10712.2
10684.3
10600.8
10461.5
10266.6
10015.9
9709.56
9347.5
8929.73
8456.26
7927.08
7342.19
6701.59
6005.29
5253.27
4445.54
1787.27
1723.94
1662.68
1603.36
)


20
(
10855.7
10827.2
10741.6
10599
10399.3
10142.5
9828.71
9457.84
9029.92
8544.94
8002.89
7403.79
6747.62
6034.39
5264.1
4436.74
1713.85
1648.99
1586.24
1525.47
)


20
(
10846.7
10817.9
10731.7
10587.9
10386.6
10127.8
9811.53
9437.71
9006.38
8517.54
7971.18
7367.31
6705.92
5987.01
5210.59
4376.65
1632.09
1566.71
1503.47
1442.21
)


20
(
10685.4
10656.8
10571.3
10428.6
10228.9
9972.16
9658.34
9287.47
8859.54
8374.54
7832.49
7233.37
6577.2
5863.95
5093.64
4266.27
1543.34
1478.48
1415.73
1354.96
)


20
(
10374.3
10346.5
10262.9
10123.6
9928.68
9678.01
9371.63
9009.55
8591.77
8118.27
7589.07
7004.16
6363.54
5667.21
4915.17
4107.41
1449.05
1385.73
1324.47
1265.14
)


20
(
9918.48
9891.74
9811.53
9677.85
9490.7
9250.07
8955.97
8608.39
8207.34
7752.82
7244.81
6683.33
6068.38
5399.94
4678.03
3902.63
1350.76
1289.97
1231.17
1174.21
)


20
(
9324.99
9299.79
9224.19
9098.2
8921.81
8695.02
8417.83
8090.24
7712.25
7283.86
6805.07
6275.88
5696.28
5066.28
4385.88
3655.07
1249.95
1192.65
1137.23
1083.55
)


20
(
8602.81
8579.55
8509.76
8393.44
8230.59
8021.21
7765.3
7462.87
7113.9
6718.41
6276.38
5787.82
5252.73
4671.1
4042.95
3368.25
1147.8
1094.91
1043.74
994.186
)


20
(
7762.23
7741.27
7678.39
7573.58
7426.84
7238.18
7007.6
6735.08
6420.65
6064.28
5665.99
5225.78
4743.63
4219.56
3653.55
3045.62
1044.88
997.218
951.111
906.459
)


20
(
6814.31
6795.98
6740.99
6649.35
6521.04
6356.07
6154.44
5916.15
5641.2
5329.59
4981.31
4596.38
4174.78
3716.51
3221.59
2689.99
940.498
898.823
858.506
819.462
)


20
(
5769.48
5754.07
5707.85
5630.81
5522.95
5384.27
5214.78
5014.47
4783.35
4521.4
4228.64
3905.06
3550.66
3165.44
2749.4
2302.53
831.89
796.857
762.966
730.145
)


20
(
4636.38
4624.13
4587.4
4526.18
4440.48
4330.28
4195.6
4036.43
3852.77
3644.63
3411.99
3154.87
2873.25
2567.14
2236.55
1881.46
712.851
685.013
658.083
632.002
)


20
(
3420.16
3411.27
3384.61
3340.18
3277.98
3198.01
3100.26
2984.74
2851.45
2700.39
2531.55
2344.94
2140.56
1918.4
1678.47
1420.76
572.636
552.433
532.888
513.96
)


20
(
2125.76
2120.37
2104.2
2077.26
2039.55
1991.05
1931.78
1861.73
1780.91
1689.31
1586.93
1473.77
1349.84
1215.13
1069.64
913.37
399.088
386.837
374.986
363.508
)


20
(
772.77
770.963
765.545
756.514
743.871
727.615
707.747
684.267
657.175
626.471
592.154
554.226
512.685
467.532
418.768
366.391
194.019
189.913
185.94
182.093
)


20
(
2450.58
2448.78
2443.38
2434.39
2421.8
2405.62
2385.83
2362.45
2335.46
2304.88
2270.69
2232.9
2191.5
2146.5
2097.89
2045.67
1873.8
1869.7
1865.74
1861.91
)


20
(
3649.62
3644.24
3628.09
3601.18
3563.51
3515.07
3455.87
3385.9
3305.17
3213.67
3111.4
2998.35
2874.54
2739.95
2594.59
2438.46
1924.59
1912.35
1900.51
1889.04
)


20
(
4808.02
4799.14
4772.5
4728.1
4665.94
4586.02
4488.33
4372.89
4239.68
4088.7
3919.96
3733.45
3529.18
3307.13
3067.32
2809.73
1961.98
1941.78
1922.25
1903.33
)


20
(
5907.91
5895.67
5858.95
5797.76
5712.1
5601.95
5467.33
5308.22
5124.64
4916.58
4684.03
4427
4145.49
3839.49
3509
3154.02
1985.76
1957.93
1931.01
1904.94
)


20
(
6932.26
6916.86
6870.65
6793.63
6685.81
6547.18
6377.74
6177.49
5946.43
5684.56
5391.87
5068.38
4714.07
4328.94
3912.99
3466.23
1995.89
1960.87
1926.98
1894.17
)


20
(
7865.19
7846.86
7791.89
7700.26
7571.98
7407.05
7205.47
6967.23
6692.34
6380.8
6032.59
5647.73
5226.22
4768.04
4273.19
3741.69
1992.47
1950.8
1910.49
1871.45
)


20
(
8692.2
8671.24
8608.37
8503.58
8356.87
8168.24
7937.69
7665.23
7350.84
6994.54
6596.31
6156.15
5674.08
5150.07
4584.14
3976.28
1975.77
1928.12
1882.02
1837.37
)


20
(
9400.42
9377.16
9307.38
9191.07
9028.25
8818.9
8563.03
8260.63
7911.71
7516.26
7074.29
6585.79
6050.76
5469.19
4841.1
4166.47
1946.23
1893.34
1842.17
1792.62
)


20
(
9978.82
9953.62
9878.03
9752.05
9575.68
9348.91
9071.75
8744.19
8366.24
7937.89
7459.14
6930
6350.45
5720.5
5040.15
4309.39
1904.44
1847.15
1791.72
1738.05
)


20
(
10418.4
10391.6
10311.4
10177.8
9990.61
9750
9455.92
9108.37
8707.35
8252.85
7744.88
7183.44
6568.52
5900.12
5178.24
4402.89
1851.15
1790.36
1731.56
1674.61
)


20
(
10712.2
10684.3
10600.8
10461.5
10266.6
10015.9
9709.56
9347.5
8929.73
8456.25
7927.08
7342.19
6701.59
6005.29
5253.27
4445.54
1787.27
1723.94
1662.68
1603.36
)


20
(
10855.7
10827.2
10741.6
10599
10399.3
10142.5
9828.71
9457.84
9029.92
8544.94
8002.89
7403.79
6747.62
6034.39
5264.1
4436.74
1713.85
1648.99
1586.24
1525.47
)


20
(
10846.7
10817.9
10731.7
10587.9
10386.6
10127.8
9811.53
9437.71
9006.38
8517.54
7971.18
7367.31
6705.92
5987.01
5210.59
4376.65
1632.09
1566.71
1503.47
1442.21
)


20
(
10685.4
10656.8
10571.3
10428.6
10228.9
9972.16
9658.34
9287.47
8859.54
8374.54
7832.49
7233.37
6577.19
5863.95
5093.64
4266.27
1543.34
1478.48
1415.73
1354.96
)


20
(
10374.3
10346.5
10262.9
10123.6
9928.67
9678.01
9371.63
9009.55
8591.77
8118.27
7589.07
7004.16
6363.54
5667.21
4915.17
4107.41
1449.05
1385.73
1324.47
1265.14
)


20
(
9918.48
9891.74
9811.53
9677.85
9490.7
9250.07
8955.97
8608.39
8207.34
7752.82
7244.81
6683.33
6068.38
5399.94
4678.03
3902.63
1350.76
1289.97
1231.17
1174.21
)


20
(
9324.99
9299.79
9224.19
9098.2
8921.81
8695.02
8417.83
8090.24
7712.25
7283.86
6805.07
6275.88
5696.28
5066.28
4385.88
3655.07
1249.95
1192.65
1137.23
1083.55
)


20
(
8602.81
8579.55
8509.76
8393.44
8230.59
8021.21
7765.3
7462.87
7113.9
6718.41
6276.38
5787.82
5252.73
4671.1
4042.95
3368.25
1147.8
1094.91
1043.74
994.186
)


20
(
7762.23
7741.27
7678.39
7573.58
7426.84
7238.18
7007.6
6735.08
6420.65
6064.28
5665.99
5225.78
4743.63
4219.56
3653.55
3045.62
1044.88
997.218
951.111
906.459
)


20
(
6814.31
6795.98
6740.99
6649.34
6521.04
6356.07
6154.44
5916.15
5641.2
5329.59
4981.31
4596.37
4174.78
3716.51
3221.58
2689.99
940.498
898.823
858.506
819.462
)


20
(
5769.48
5754.07
5707.85
5630.81
5522.95
5384.27
5214.78
5014.47
4783.35
4521.4
4228.64
3905.06
3550.66
3165.44
2749.4
2302.53
831.89
796.857
762.966
730.145
)


20
(
4636.38
4624.13
4587.4
4526.18
4440.48
4330.28
4195.6
4036.43
3852.77
3644.63
3411.99
3154.87
2873.25
2567.14
2236.55
1881.46
712.851
685.013
658.083
632.002
)


20
(
3420.16
3411.27
3384.61
3340.18
3277.98
3198.01
3100.26
2984.75
2851.45
2700.39
2531.55
2344.94
2140.56
1918.4
1678.47
1420.76
572.636
552.433
532.888
513.96
)


20
(
2125.76
2120.37
2104.2
2077.26
2039.55
1991.05
1931.78
1861.73
1780.91
1689.31
1586.93
1473.77
1349.84
1215.13
1069.64
913.37
399.088
386.837
374.986
363.508
)


20
(
772.77
770.963
765.545
756.514
743.871
727.615
707.748
684.268
657.175
626.471
592.154
554.226
512.685
467.532
418.768
366.391
194.019
189.913
185.94
182.093
)


20
(
2417.78
2416
2410.66
2401.76
2389.31
2373.29
2353.71
2330.58
2303.87
2273.61
2239.78
2202.39
2161.43
2116.9
2068.8
2017.13
1847.06
1843.01
1839.09
1835.3
)


20
(
3604.04
3598.72
3582.74
3556.12
3518.84
3470.92
3412.34
3343.11
3263.22
3172.68
3071.49
2959.64
2837.13
2703.96
2560.13
2405.64
1897.19
1885.08
1873.36
1862.01
)


20
(
4750.17
4741.38
4715.02
4671.09
4609.58
4530.5
4433.85
4319.62
4187.81
4038.43
3871.47
3686.93
3484.81
3265.1
3027.81
2772.94
1934.13
1914.14
1894.81
1876.09
)


20
(
5838.47
5826.36
5790.03
5729.48
5644.72
5535.73
5402.53
5245.1
5063.46
4857.59
4627.49
4373.17
4094.63
3791.85
3464.85
3113.62
1957.68
1930.14
1903.5
1877.7
)


20
(
6852.1
6836.86
6791.14
6714.93
6608.25
6471.08
6303.42
6105.29
5876.66
5617.55
5327.96
5007.87
4657.3
4276.23
3864.67
3422.62
1967.79
1933.13
1899.61
1867.14
)


20
(
7775.35
7757.22
7702.82
7612.16
7485.24
7322.04
7122.59
6886.86
6614.87
6306.61
5962.08
5581.28
5164.21
4710.86
4221.23
3695.34
1964.57
1923.34
1883.45
1844.82
)


20
(
8593.87
8573.13
8510.92
8407.23
8262.07
8075.43
7847.32
7577.73
7266.66
6914.11
6520.08
6084.57
5607.57
5089.1
4529.13
3927.68
1948.27
1901.12
1855.51
1811.33
)


20
(
9294.92
9271.9
9202.85
9087.78
8926.67
8719.53
8466.35
8167.15
7821.91
7430.63
6993.32
6509.97
5980.58
5405.15
4783.68
4116.17
1919.34
1867.01
1816.38
1767.36
)


20
(
9867.57
9842.64
9767.85
9643.2
9468.69
9244.31
8970.07
8645.97
8272
7848.17
7374.47
6850.91
6277.47
5654.17
4980.99
4257.94
1878.35
1821.67
1766.83
1713.72
)


20
(
10302.9
10276.4
10197.1
10064.8
9879.66
9641.59
9350.61
9006.73
8609.93
8160.23
7657.62
7102.1
6493.66
5832.31
5118.05
4350.87
1826.05
1765.9
1707.72
1651.37
)


20
(
10594.1
10566.5
10483.9
10346.1
10153.2
9905.18
9602.05
9243.8
8830.44
8361.96
7838.37
7259.65
6625.81
5936.85
5192.77
4393.56
1763.32
1700.66
1640.05
1581.35
)


20
(
10736.6
10708.4
10623.7
10482.6
10285
10031
9720.47
9353.51
8930.1
8450.24
7913.91
7321.13
6671.88
5966.17
5204
4385.37
1691.2
1627.03
1564.94
1504.81
)


20
(
10728.3
10699.9
10614.5
10472.2
10273.1
10017
9704.04
9334.17
8907.39
8423.7
7883.11
7285.61
6631.2
5919.87
5151.64
4326.49
1610.89
1546.2
1483.62
1423.01
)


20
(
10569.3
10541.1
10456.4
10315.2
10117.7
9863.6
9553.1
9186.14
8762.72
8282.84
7746.51
7153.71
6504.45
5798.73
5036.55
4217.9
1523.7
1459.52
1397.43
1337.3
)


20
(
10262.2
10234.6
10151.9
10014.2
9821.24
9573.22
9270.08
8911.82
8498.44
8029.94
7506.32
6927.58
6293.72
5604.73
4860.62
4061.39
1431.07
1368.41
1307.79
1249.09
)


20
(
9811.84
9785.38
9706.02
9573.75
9388.57
9150.48
8859.48
8515.57
8118.75
7669.02
7166.38
6610.82
6002.35
5340.97
4626.67
3859.45
1334.5
1274.35
1216.16
1159.81
)


20
(
9225.3
9200.36
9125.56
9000.9
8826.37
8601.97
8327.7
8003.57
7629.57
7205.69
6731.95
6208.34
5634.86
5011.51
4338.28
3615.19
1235.43
1178.74
1123.9
1070.79
)


20
(
8511.37
8488.35
8419.3
8304.2
8143.07
7935.91
7682.7
7383.45
7038.17
6646.84
6209.48
5726.07
5196.63
4621.14
3999.61
3332.03
1135
1082.67
1032.04
983.005
)


20
(
7680.21
7659.47
7597.24
7493.54
7348.35
7161.68
6933.53
6663.89
6352.77
6000.17
5606.08
5170.51
4693.45
4174.9
3614.87
3013.34
1033.71
986.551
940.93
896.749
)


20
(
6742.69
6724.56
6670.15
6579.47
6452.51
6289.28
6089.78
5854
5581.95
5273.63
4929.03
4548.15
4131
3677.57
3187.86
2661.88
930.84
889.605
849.713
811.08
)


20
(
5709.13
5693.88
5648.15
5571.92
5465.2
5327.99
5160.28
4962.09
4733.4
4474.22
4184.54
3864.38
3513.71
3132.56
2720.9
2278.76
823.624
788.961
755.428
722.953
)


20
(
4588.08
4575.96
4539.62
4479.04
4394.24
4285.21
4151.95
3994.46
3812.74
3606.79
3376.6
3122.19
2843.55
2540.67
2213.56
1862.22
705.936
678.392
651.745
625.94
)


20
(
3384.71
3375.91
3349.54
3305.58
3244.03
3164.9
3068.19
2953.89
2822
2672.53
2505.47
2320.83
2118.6
1898.79
1661.39
1406.4
567.221
547.231
527.892
509.163
)


20
(
2104.05
2098.71
2082.72
2056.06
2018.74
1970.76
1912.11
1842.81
1762.83
1672.2
1570.9
1458.94
1336.31
1203.02
1059.06
904.446
395.589
383.467
371.741
360.384
)


20
(
765.475
763.688
758.327
749.391
736.881
720.797
701.139
677.907
651.1
620.719
586.765
549.236
508.133
463.457
415.206
363.382
192.827
188.765
184.834
181.028
)


20
(
2458.49
2456.69
2451.28
2442.26
2429.64
2413.41
2393.58
2370.13
2343.08
2312.41
2278.14
2240.25
2198.74
2153.62
2104.88
2052.53
1880.21
1876.11
1872.13
1868.29
)


20
(
3660.72
3655.33
3639.14
3612.16
3574.39
3525.83
3466.47
3396.32
3315.38
3223.64
3121.1
3007.76
2883.62
2748.69
2602.95
2446.4
1931.19
1918.92
1907.05
1895.55
)


20
(
4822.19
4813.29
4786.58
4742.06
4679.74
4599.61
4501.67
4385.92
4252.36
4101
3931.81
3744.82
3540.01
3317.39
3076.94
2818.68
1968.72
1948.47
1928.88
1909.91
)


20
(
5924.97
5912.7
5875.89
5814.54
5728.65
5618.22
5483.24
5323.72
5139.66
4931.05
4697.9
4440.2
4157.95
3851.15
3519.8
3163.89
1992.58
1964.68
1937.69
1911.55
)


20
(
6952.01
6936.56
6890.23
6813.01
6704.91
6565.91
6396.03
6195.26
5963.6
5701.04
5407.59
5083.25
4728.01
4341.88
3924.85
3476.92
2002.74
1967.62
1933.65
1900.75
)


20
(
7887.36
7868.98
7813.86
7722
7593.38
7428.02
7225.91
6987.05
6711.44
6399.08
6049.97
5664.11
5241.49
4782.11
4285.97
3753.08
1999.29
1957.51
1917.1
1877.96
)


20
(
8716.49
8695.48
8632.44
8527.37
8380.28
8191.16
7960.01
7686.84
7371.63
7014.39
6615.12
6173.82
5690.48
5165.11
4597.7
3988.25
1982.51
1934.73
1888.51
1843.75
)


20
(
9426.51
9403.19
9333.22
9216.61
9053.36
8843.47
8586.93
8283.74
7933.91
7537.43
7094.3
6604.52
6068.09
5485.01
4855.27
4178.88
1952.84
1899.81
1848.51
1798.83
)


20
(
10006.3
9981.08
9905.3
9778.99
9602.15
9374.79
9096.91
8768.49
8389.55
7960.08
7480.09
6949.56
6368.49
5736.9
5054.77
4322.1
1910.86
1853.42
1797.86
1744.04
)


20
(
10447
10420.1
10339.7
10205.7
10018.1
9776.85
9482
9133.54
8731.47
8275.78
7766.49
7203.57
6587.05
5916.9
5193.14
4415.76
1857.34
1796.4
1737.44
1680.34
)


20
(
10741.4
10713.5
10629.7
10490.1
10294.7
10043.4
9736.19
9373.18
8954.32
8479.61
7949.05
7362.63
6720.37
6022.24
5268.26
4458.42
1793.19
1729.71
1668.29
1608.8
)


20
(
10885.2
10856.6
10770.8
10627.8
10427.6
10170.2
9855.53
9483.7
9054.66
8568.41
8024.95
7424.28
6766.4
6051.3
5278.99
4449.47
1719.47
1654.43
1591.52
1530.59
)


20
(
10876.1
10847.2
10760.7
10616.6
10414.8
10155.3
9838.17
9463.38
9030.92
8540.8
7993.02
7387.57
6724.45
6003.67
5225.21
4389.09
1637.36
1571.82
1508.4
1446.99
)


20
(
10714.2
10685.6
10599.7
10456.7
10256.5
9999.08
9684.44
9312.6
8883.55
8397.29
7853.82
7253.14
6595.24
5880.14
5107.82
4278.28
1548.23
1483.2
1420.29
1359.36
)


20
(
10402.1
10374.2
10290.4
10150.8
9955.33
9704
9396.83
9033.8
8614.92
8140.19
7609.61
7023.17
6380.88
5682.72
4928.72
4118.85
1453.54
1390.05
1328.63
1269.14
)


20
(
9944.93
9918.13
9837.71
9703.68
9516.04
9274.78
8979.91
8631.43
8229.33
7773.61
7264.28
6701.34
6084.77
5414.59
4690.79
3913.36
1354.83
1293.88
1234.92
1177.82
)


20
(
9349.73
9324.46
9248.67
9122.35
8945.49
8718.11
8440.2
8111.75
7732.77
7303.26
6823.22
6292.65
5711.54
5079.89
4397.71
3664.99
1253.58
1196.14
1140.57
1086.75
)


20
(
8625.5
8602.18
8532.21
8415.58
8252.31
8042.38
7785.81
7482.58
7132.7
6736.17
6292.99
5803.16
5266.67
4683.52
4053.72
3377.26
1151.01
1097.98
1046.68
996.992
)


20
(
7782.59
7761.58
7698.53
7593.44
7446.32
7257.17
7025.98
6752.76
6437.5
6080.21
5680.87
5239.51
4756.1
4230.66
3663.17
3053.65
1047.68
999.895
953.667
908.899
)


20
(
6832.09
6813.71
6758.58
6666.69
6538.05
6372.65
6170.49
5931.58
5655.91
5343.48
4994.3
4608.36
4185.65
3726.19
3229.97
2696.99
942.923
901.139
860.717
821.57
)


20
(
5784.46
5769.02
5722.67
5645.43
5537.29
5398.25
5228.32
5027.48
4795.75
4533.12
4239.6
3915.17
3559.84
3173.61
2756.49
2308.46
833.968
798.844
764.864
731.957
)


20
(
4648.38
4636.1
4599.27
4537.9
4451.97
4341.48
4206.45
4046.86
3862.73
3654.03
3420.79
3162.99
2880.64
2573.73
2242.27
1886.26
714.594
686.684
659.683
633.534
)


20
(
3428.97
3420.06
3393.33
3348.79
3286.42
3206.24
3108.24
2992.42
2858.78
2707.32
2538.04
2350.95
2146.03
1923.29
1682.73
1424.35
574.006
553.75
534.154
515.176
)


20
(
2131.16
2125.76
2109.55
2082.54
2044.72
1996.1
1936.67
1866.44
1785.41
1693.57
1590.92
1477.47
1353.21
1218.15
1072.28
915.602