/*--------------------------------*- C++ -*----------------------------------*\
| =========                 |                                                 |
| \\      /  F ield         | OpenFOAM: The Open Source CFD Toolbox           |
|  \\    /   O peration     | Version:  2212                                  |
|   \\  /    A nd           | Website:  www.openfoam.com                      |
|    \\/     M anipulation  |                                                 |
\*---------------------------------------------------------------------------*/
FoamFile
{
    version     2.0;
    format      ascii;
    arch        "LSB;label=32;scalar=64";
    class       volScalarField;
    location    "54/neutroRegion";
    object      TCool;
}
// * * * * * * * * * * * * * * * * * * * * * * * * * * * * * * * * * * * * * //

dimensions      [0 0 0 1 0 0 0];

internalField   nonuniform List<scalar> 
350
(
83.2889
83.2893
83.2898
83.2903
83.2908
83.2913
83.2918
83.2923
83.2927
83.2932
83.2936
83.2941
83.2946
83.2951
83.2956
83.2961
83.2965
83.297
83.2974
83.2979
83.2983
83.2987
83.2991
83.2995
83.3
83.2889
83.2893
83.2898
83.2903
83.2908
83.2913
83.2918
83.2923
83.2927
83.2932
83.2936
83.2941
83.2946
83.2951
83.2956
83.2961
83.2965
83.297
83.2974
83.2979
83.2983
83.2987
83.2991
83.2995
83.3
1822.9
1816.76
1798.22
1767.49
1724.91
1670.99
1606.34
1531.7
1447.97
1356.14
1257.37
1152.98
1044.49
933.662
822.443
712.932
607.238
507.323
414.898
331.402
258.084
196.139
146.794
111.21
90.088
1851.13
1845.22
1826.67
1795.72
1752.71
1698.14
1632.64
1556.97
1472.01
1378.78
1278.45
1172.35
1062.01
949.203
835.924
724.325
616.583
514.731
420.541
335.493
260.859
197.848
147.697
111.574
90.1654
1818.31
1812.16
1793.64
1762.96
1720.47
1666.67
1602.17
1527.72
1444.19
1352.6
1254.08
1149.98
1041.79
931.279
820.387
711.205
605.83
506.215
414.06
330.8
257.679
195.892
146.664
111.157
90.0757
1844.78
1838.8
1820.24
1789.33
1746.4
1691.97
1626.65
1551.21
1466.52
1373.6
1273.62
1167.9
1057.98
945.626
832.816
721.695
614.423
513.017
419.234
334.545
260.215
197.452
147.487
111.489
90.1476
1844.78
1838.8
1820.24
1789.33
1746.4
1691.97
1626.65
1551.21
1466.52
1373.6
1273.62
1167.9
1057.98
945.626
832.816
721.695
614.423
513.018
419.234
334.545
260.215
197.452
147.487
111.489
90.1476
1818.31
1812.16
1793.64
1762.96
1720.48
1666.67
1602.17
1527.72
1444.19
1352.6
1254.08
1149.98
1041.79
931.28
820.388
711.206
605.831
506.216
414.06
330.801
257.679
195.893
146.664
111.157
90.0757
1851.13
1845.22
1826.67
1795.72
1752.71
1698.14
1632.64
1556.97
1472.01
1378.78
1278.45
1172.35
1062.01
949.203
835.924
724.325
616.583
514.731
420.541
335.493
260.859
197.848
147.697
111.574
90.1654
1822.9
1816.76
1798.22
1767.49
1724.91
1670.99
1606.34
1531.7
1447.97
1356.14
1257.37
1152.98
1044.49
933.662
822.443
712.932
607.238
507.323
414.898
331.402
258.084
196.139
146.794
111.21
90.088
1844.78
1838.8
1820.24
1789.33
1746.4
1691.97
1626.65
1551.21
1466.52
1373.6
1273.62
1167.9
1057.98
945.626
832.816
721.695
614.423
513.018
419.234
334.545
260.215
197.452
147.487
111.489
90.1476
1818.31
1812.16
1793.64
1762.96
1720.47
1666.67
1602.17
1527.72
1444.19
1352.6
1254.08
1149.98
1041.79
931.279
820.387
711.205
605.831
506.215
414.06
330.8
257.679
195.892
146.664
111.157
90.0757
1818.31
1812.16
1793.64
1762.96
1720.48
1666.67
1602.17
1527.72
1444.19
1352.6
1254.08
1149.98
1041.79
931.28
820.388
711.206
605.831
506.216
414.06
330.8
257.679
195.892
146.664
111.157
90.0757
1844.78
1838.8
1820.24
1789.33
1746.4
1691.97
1626.65
1551.21
1466.52
1373.6
1273.62
1167.9
1057.98
945.626
832.816
721.695
614.423
513.017
419.234
334.545
260.215
197.452
147.487
111.489
90.1476
)
;

boundaryField
{
    outletCentralUnloaded
    {
        type            zeroGradient;
    }
    inletCentralUnloaded
    {
        type            zeroGradient;
    }
    outletFuelElement
    {
        type            zeroGradient;
    }
    inletFuelElement
    {
        type            zeroGradient;
    }
    defaultFaces
    {
        type            zeroGradient;
    }
}


// ************************************************************************* //
