/*--------------------------------*- C++ -*----------------------------------*\
| =========                 |                                                 |
| \\      /  F ield         | OpenFOAM: The Open Source CFD Toolbox           |
|  \\    /   O peration     | Version:  2212                                  |
|   \\  /    A nd           | Website:  www.openfoam.com                      |
|    \\/     M anipulation  |                                                 |
\*---------------------------------------------------------------------------*/
FoamFile
{
    version     2.0;
    format      ascii;
    arch        "LSB;label=32;scalar=64";
    class       volScalarField;
    location    "46/fluidRegion";
    object      alphat;
}
// * * * * * * * * * * * * * * * * * * * * * * * * * * * * * * * * * * * * * //

dimensions      [1 -1 -1 0 0 0 0];

internalField   nonuniform List<scalar> 
350
(
0.00258564
0.00258564
0.00258564
0.00258564
0.00258565
0.00258566
0.00258566
0.00258567
0.00258567
0.00258568
0.0025857
0.00258573
0.00258579
0.00258588
0.00258602
0.00258623
0.00258654
0.00258699
0.00258768
0.00258873
0.00259033
0.00259278
0.00259654
0.00260228
0.00261106
0.00258564
0.00258564
0.00258564
0.00258564
0.00258565
0.00258566
0.00258566
0.00258567
0.00258567
0.00258568
0.0025857
0.00258573
0.00258579
0.00258588
0.00258602
0.00258623
0.00258654
0.00258699
0.00258768
0.00258873
0.00259033
0.00259278
0.00259654
0.00260228
0.00261106
0.000895783
0.000884154
0.000872728
0.000861144
0.000849295
0.000837076
0.000824381
0.000811114
0.000797186
0.000782536
0.000767131
0.000750977
0.000734118
0.000716623
0.000698574
0.000680064
0.000661271
0.000642652
0.000625389
0.00061232
0.000609841
0.000631328
0.000699555
0.000832171
0.0010019
0.000887937
0.000876321
0.00086493
0.000853388
0.00084159
0.000829428
0.000816799
0.000803602
0.000789751
0.00077518
0.000759861
0.000743804
0.000727061
0.000709714
0.000691856
0.000673591
0.000655095
0.000636811
0.000619899
0.000607172
0.000605008
0.000626823
0.000695615
0.000829482
0.00100116
0.000897036
0.000885393
0.000873957
0.000862361
0.0008505
0.000838266
0.000825557
0.000812273
0.00079833
0.000783662
0.000768238
0.000752063
0.00073518
0.000717656
0.000699569
0.000681014
0.000662167
0.000643488
0.000626161
0.000613028
0.000610487
0.000631913
0.000700058
0.000832519
0.00100203
0.000889738
0.000878124
0.000866728
0.000855179
0.000843371
0.000831199
0.000818556
0.000805345
0.000791476
0.000776888
0.000761549
0.000745469
0.000728699
0.000711318
0.000693415
0.000675093
0.000656528
0.000638166
0.000621173
0.000608366
0.000606128
0.000627867
0.000696528
0.000830106
0.00100133
0.000889738
0.000878124
0.000866728
0.000855179
0.000843371
0.000831199
0.000818556
0.000805344
0.000791476
0.000776888
0.000761549
0.000745469
0.000728699
0.000711317
0.000693414
0.000675092
0.000656527
0.000638165
0.000621172
0.000608365
0.000606128
0.000627867
0.000696529
0.000830108
0.00100133
0.000897035
0.000885393
0.000873957
0.000862361
0.000850499
0.000838266
0.000825557
0.000812273
0.000798329
0.000783661
0.000768237
0.000752062
0.000735178
0.000717654
0.000699567
0.000681011
0.000662164
0.000643484
0.000626156
0.000613021
0.000610479
0.000631904
0.000700048
0.000832508
0.00100202
0.000887937
0.000876321
0.00086493
0.000853388
0.00084159
0.000829429
0.000816799
0.000803602
0.000789751
0.000775181
0.000759861
0.000743804
0.000727061
0.000709715
0.000691857
0.000673591
0.000655095
0.000636811
0.000619899
0.000607172
0.000605007
0.000626823
0.000695615
0.000829484
0.00100116
0.000895783
0.000884154
0.000872728
0.000861144
0.000849295
0.000837076
0.000824381
0.000811114
0.000797186
0.000782536
0.000767131
0.000750977
0.000734118
0.000716623
0.000698573
0.000680063
0.00066127
0.000642651
0.000625387
0.000612316
0.000609834
0.000631316
0.000699535
0.000832143
0.00100186
0.000889738
0.000878124
0.000866728
0.000855179
0.000843371
0.000831199
0.000818556
0.000805344
0.000791476
0.000776888
0.000761549
0.000745469
0.000728699
0.000711317
0.000693415
0.000675093
0.000656527
0.000638166
0.000621172
0.000608365
0.000606127
0.000627864
0.000696523
0.000830097
0.00100132
0.000897036
0.000885393
0.000873957
0.000862361
0.0008505
0.000838267
0.000825557
0.000812274
0.00079833
0.000783662
0.000768238
0.000752063
0.00073518
0.000717656
0.00069957
0.000681015
0.000662169
0.000643491
0.000626166
0.000613036
0.000610501
0.000631936
0.000700095
0.000832573
0.00100209
0.000897035
0.000885393
0.000873957
0.000862361
0.000850499
0.000838266
0.000825556
0.000812272
0.000798328
0.00078366
0.000768236
0.000752061
0.000735177
0.000717652
0.000699565
0.000681009
0.000662162
0.000643481
0.000626153
0.000613019
0.000610477
0.000631904
0.000700051
0.000832517
0.00100203
0.000889738
0.000878124
0.000866728
0.000855179
0.000843371
0.000831199
0.000818556
0.000805344
0.000791476
0.000776888
0.000761548
0.000745468
0.000728698
0.000711316
0.000693414
0.000675091
0.000656525
0.000638163
0.000621168
0.000608358
0.000606116
0.000627848
0.000696498
0.000830063
0.00100128
)
;

boundaryField
{
    outletCentralUnloaded
    {
        type            zeroGradient;
    }
    inletCentralUnloaded
    {
        type            zeroGradient;
    }
    outletFuelElement
    {
        type            zeroGradient;
    }
    inletFuelElement
    {
        type            zeroGradient;
    }
    defaultFaces
    {
        type            zeroGradient;
    }
    baffle_master
    {
        type            calculated;
        value           nonuniform List<scalar> 
150
(
0.00258564
0.00258564
0.00258564
0.00258564
0.00258564
0.00258564
0.00258564
0.00258564
0.00258564
0.00258564
0.00258564
0.00258564
0.00258565
0.00258565
0.00258565
0.00258566
0.00258566
0.00258566
0.00258566
0.00258566
0.00258566
0.00258567
0.00258567
0.00258567
0.00258567
0.00258567
0.00258567
0.00258568
0.00258568
0.00258568
0.0025857
0.0025857
0.0025857
0.00258573
0.00258573
0.00258573
0.00258579
0.00258579
0.00258579
0.00258588
0.00258588
0.00258588
0.00258602
0.00258602
0.00258602
0.00258623
0.00258623
0.00258623
0.00258654
0.00258654
0.00258654
0.00258699
0.00258699
0.00258699
0.00258768
0.00258768
0.00258768
0.00258873
0.00258873
0.00258873
0.00259033
0.00259033
0.00259033
0.00259278
0.00259278
0.00259278
0.00259654
0.00259654
0.00259654
0.00260228
0.00260228
0.00260228
0.00261106
0.00261106
0.00261106
0.00258564
0.00258564
0.00258564
0.00258564
0.00258564
0.00258564
0.00258564
0.00258564
0.00258564
0.00258564
0.00258564
0.00258564
0.00258565
0.00258565
0.00258565
0.00258566
0.00258566
0.00258566
0.00258566
0.00258566
0.00258566
0.00258567
0.00258567
0.00258567
0.00258567
0.00258567
0.00258567
0.00258568
0.00258568
0.00258568
0.0025857
0.0025857
0.0025857
0.00258573
0.00258573
0.00258573
0.00258579
0.00258579
0.00258579
0.00258588
0.00258588
0.00258588
0.00258602
0.00258602
0.00258602
0.00258623
0.00258623
0.00258623
0.00258654
0.00258654
0.00258654
0.00258699
0.00258699
0.00258699
0.00258768
0.00258768
0.00258768
0.00258873
0.00258873
0.00258873
0.00259033
0.00259033
0.00259033
0.00259278
0.00259278
0.00259278
0.00259654
0.00259654
0.00259654
0.00260228
0.00260228
0.00260228
0.00261106
0.00261106
0.00261106
)
;
    }
    baffle_slave
    {
        type            calculated;
        value           nonuniform List<scalar> 
150
(
0.000887937
0.000889738
0.000889738
0.000876321
0.000878124
0.000878124
0.00086493
0.000866728
0.000866728
0.000853388
0.000855179
0.000855179
0.00084159
0.000843371
0.000843371
0.000829428
0.000831199
0.000831199
0.000816799
0.000818556
0.000818556
0.000803602
0.000805345
0.000805344
0.000789751
0.000791476
0.000791476
0.00077518
0.000776888
0.000776888
0.000759861
0.000761549
0.000761548
0.000743804
0.000745469
0.000745468
0.000727061
0.000728699
0.000728698
0.000709714
0.000711318
0.000711316
0.000691856
0.000693415
0.000693414
0.000673591
0.000675093
0.000675091
0.000655095
0.000656528
0.000656525
0.000636811
0.000638166
0.000638163
0.000619899
0.000621173
0.000621168
0.000607172
0.000608366
0.000608358
0.000605008
0.000606128
0.000606116
0.000626823
0.000627867
0.000627848
0.000695615
0.000696528
0.000696498
0.000829482
0.000830106
0.000830063
0.00100116
0.00100133
0.00100128
0.000889738
0.000887937
0.000889738
0.000878124
0.000876321
0.000878124
0.000866728
0.00086493
0.000866728
0.000855179
0.000853388
0.000855179
0.000843371
0.00084159
0.000843371
0.000831199
0.000829429
0.000831199
0.000818556
0.000816799
0.000818556
0.000805344
0.000803602
0.000805344
0.000791476
0.000789751
0.000791476
0.000776888
0.000775181
0.000776888
0.000761549
0.000759861
0.000761549
0.000745469
0.000743804
0.000745469
0.000728699
0.000727061
0.000728699
0.000711317
0.000709715
0.000711317
0.000693414
0.000691857
0.000693415
0.000675092
0.000673591
0.000675093
0.000656527
0.000655095
0.000656527
0.000638165
0.000636811
0.000638166
0.000621172
0.000619899
0.000621172
0.000608365
0.000607172
0.000608365
0.000606128
0.000605007
0.000606127
0.000627867
0.000626823
0.000627864
0.000696529
0.000695615
0.000696523
0.000830108
0.000829484
0.000830097
0.00100133
0.00100116
0.00100132
)
;
    }
}


// ************************************************************************* //
