/*--------------------------------*- C++ -*----------------------------------*\
| =========                 |                                                 |
| \\      /  F ield         | OpenFOAM: The Open Source CFD Toolbox           |
|  \\    /   O peration     | Version:  2212                                  |
|   \\  /    A nd           | Website:  www.openfoam.com                      |
|    \\/     M anipulation  |                                                 |
\*---------------------------------------------------------------------------*/
FoamFile
{
    version     2.0;
    format      ascii;
    arch        "LSB;label=32;scalar=64";
    class       volScalarField;
    location    "46/fluidRegion";
    object      p_rgh;
}
// * * * * * * * * * * * * * * * * * * * * * * * * * * * * * * * * * * * * * //

dimensions      [1 -1 -2 0 0 0 0];

internalField   nonuniform List<scalar> 
350
(
3.44743e+06
3.44772e+06
3.44802e+06
3.44832e+06
3.44861e+06
3.44891e+06
3.4492e+06
3.4495e+06
3.44979e+06
3.45009e+06
3.45038e+06
3.45068e+06
3.45097e+06
3.45127e+06
3.45157e+06
3.45186e+06
3.45216e+06
3.45245e+06
3.45275e+06
3.45304e+06
3.45334e+06
3.45363e+06
3.45393e+06
3.45422e+06
3.45451e+06
3.44743e+06
3.44772e+06
3.44802e+06
3.44832e+06
3.44861e+06
3.44891e+06
3.4492e+06
3.4495e+06
3.44979e+06
3.45009e+06
3.45038e+06
3.45068e+06
3.45097e+06
3.45127e+06
3.45157e+06
3.45186e+06
3.45216e+06
3.45245e+06
3.45275e+06
3.45304e+06
3.45334e+06
3.45363e+06
3.45393e+06
3.45422e+06
3.45451e+06
3.47379e+06
3.52551e+06
3.57664e+06
3.62685e+06
3.67584e+06
3.72334e+06
3.76907e+06
3.81281e+06
3.85434e+06
3.89348e+06
3.93007e+06
3.96396e+06
3.99506e+06
4.02327e+06
4.04856e+06
4.07091e+06
4.09038e+06
4.10706e+06
4.12107e+06
4.13261e+06
4.14187e+06
4.14906e+06
4.15443e+06
4.15829e+06
4.16096e+06
3.47379e+06
3.52551e+06
3.57664e+06
3.62685e+06
3.67584e+06
3.72334e+06
3.76907e+06
3.81281e+06
3.85434e+06
3.89348e+06
3.93007e+06
3.96396e+06
3.99506e+06
4.02327e+06
4.04856e+06
4.07091e+06
4.09038e+06
4.10706e+06
4.12107e+06
4.13261e+06
4.14187e+06
4.14906e+06
4.15443e+06
4.15829e+06
4.16096e+06
3.47379e+06
3.52551e+06
3.57664e+06
3.62685e+06
3.67584e+06
3.72334e+06
3.76907e+06
3.81281e+06
3.85434e+06
3.89348e+06
3.93007e+06
3.96396e+06
3.99506e+06
4.02327e+06
4.04856e+06
4.07091e+06
4.09038e+06
4.10706e+06
4.12107e+06
4.13261e+06
4.14187e+06
4.14906e+06
4.15443e+06
4.15829e+06
4.16096e+06
3.47379e+06
3.52551e+06
3.57664e+06
3.62685e+06
3.67584e+06
3.72334e+06
3.76907e+06
3.81281e+06
3.85434e+06
3.89348e+06
3.93007e+06
3.96396e+06
3.99506e+06
4.02327e+06
4.04856e+06
4.07091e+06
4.09038e+06
4.10706e+06
4.12107e+06
4.13261e+06
4.14187e+06
4.14906e+06
4.15443e+06
4.15829e+06
4.16096e+06
3.47379e+06
3.52551e+06
3.57664e+06
3.62685e+06
3.67584e+06
3.72334e+06
3.76907e+06
3.81281e+06
3.85434e+06
3.89348e+06
3.93007e+06
3.96396e+06
3.99506e+06
4.02327e+06
4.04856e+06
4.07091e+06
4.09038e+06
4.10706e+06
4.12107e+06
4.13261e+06
4.14187e+06
4.14906e+06
4.15443e+06
4.15829e+06
4.16096e+06
3.47379e+06
3.52551e+06
3.57664e+06
3.62685e+06
3.67584e+06
3.72334e+06
3.76907e+06
3.81281e+06
3.85434e+06
3.89348e+06
3.93007e+06
3.96396e+06
3.99506e+06
4.02327e+06
4.04856e+06
4.07091e+06
4.09038e+06
4.10706e+06
4.12107e+06
4.13261e+06
4.14187e+06
4.14906e+06
4.15443e+06
4.15829e+06
4.16096e+06
3.47379e+06
3.52551e+06
3.57664e+06
3.62685e+06
3.67584e+06
3.72334e+06
3.76907e+06
3.81281e+06
3.85434e+06
3.89348e+06
3.93007e+06
3.96396e+06
3.99506e+06
4.02327e+06
4.04856e+06
4.07091e+06
4.09038e+06
4.10706e+06
4.12107e+06
4.13261e+06
4.14187e+06
4.14906e+06
4.15443e+06
4.15829e+06
4.16096e+06
3.47379e+06
3.52551e+06
3.57664e+06
3.62685e+06
3.67584e+06
3.72334e+06
3.76907e+06
3.81281e+06
3.85434e+06
3.89348e+06
3.93007e+06
3.96396e+06
3.99506e+06
4.02327e+06
4.04856e+06
4.07091e+06
4.09038e+06
4.10706e+06
4.12107e+06
4.13261e+06
4.14187e+06
4.14906e+06
4.15443e+06
4.15829e+06
4.16096e+06
3.47379e+06
3.52551e+06
3.57664e+06
3.62685e+06
3.67584e+06
3.72334e+06
3.76907e+06
3.81281e+06
3.85434e+06
3.89348e+06
3.93007e+06
3.96396e+06
3.99506e+06
4.02327e+06
4.04856e+06
4.07091e+06
4.09038e+06
4.10706e+06
4.12107e+06
4.13261e+06
4.14187e+06
4.14906e+06
4.15443e+06
4.15829e+06
4.16096e+06
3.47379e+06
3.52551e+06
3.57664e+06
3.62685e+06
3.67584e+06
3.72334e+06
3.76907e+06
3.81281e+06
3.85434e+06
3.89348e+06
3.93007e+06
3.96396e+06
3.99506e+06
4.02327e+06
4.04856e+06
4.07091e+06
4.09038e+06
4.10706e+06
4.12107e+06
4.13261e+06
4.14187e+06
4.14906e+06
4.15443e+06
4.15829e+06
4.16096e+06
3.47379e+06
3.52551e+06
3.57664e+06
3.62685e+06
3.67584e+06
3.72334e+06
3.76907e+06
3.81281e+06
3.85434e+06
3.89348e+06
3.93007e+06
3.96396e+06
3.99506e+06
4.02327e+06
4.04856e+06
4.07091e+06
4.09038e+06
4.10706e+06
4.12107e+06
4.13261e+06
4.14187e+06
4.14906e+06
4.15443e+06
4.15829e+06
4.16096e+06
3.47379e+06
3.52551e+06
3.57664e+06
3.62685e+06
3.67584e+06
3.72334e+06
3.76907e+06
3.81281e+06
3.85434e+06
3.89348e+06
3.93007e+06
3.96396e+06
3.99506e+06
4.02327e+06
4.04856e+06
4.07091e+06
4.09038e+06
4.10706e+06
4.12107e+06
4.13261e+06
4.14187e+06
4.14906e+06
4.15443e+06
4.15829e+06
4.16096e+06
)
;

boundaryField
{
    outletCentralUnloaded
    {
        type            fixedValue;
        value           uniform 3.44728e+06;
    }
    inletCentralUnloaded
    {
        type            zeroGradient;
    }
    outletFuelElement
    {
        type            fixedValue;
        value           uniform 3.44728e+06;
    }
    inletFuelElement
    {
        type            zeroGradient;
    }
    defaultFaces
    {
        type            zeroGradient;
    }
    baffle_master
    {
        type            zeroGradient;
    }
    baffle_slave
    {
        type            zeroGradient;
    }
}


// ************************************************************************* //
