/*--------------------------------*- C++ -*----------------------------------*\
| =========                 |                                                 |
| \\      /  F ield         | OpenFOAM: The Open Source CFD Toolbox           |
|  \\    /   O peration     | Version:  2212                                  |
|   \\  /    A nd           | Website:  www.openfoam.com                      |
|    \\/     M anipulation  |                                                 |
\*---------------------------------------------------------------------------*/
FoamFile
{
    version     2.0;
    format      ascii;
    arch        "LSB;label=32;scalar=64";
    class       volScalarField;
    location    "46/fluidRegion";
    object      T.cladAvForNeutronics;
}
// * * * * * * * * * * * * * * * * * * * * * * * * * * * * * * * * * * * * * //

dimensions      [0 0 0 1 0 0 0];

internalField   nonuniform List<scalar> 
350
(
0
0
0
0
0
0
0
0
0
0
0
0
0
0
0
0
0
0
0
0
0
0
0
0
0
0
0
0
0
0
0
0
0
0
0
0
0
0
0
0
0
0
0
0
0
0
0
0
0
0
1842.24
1880.52
1905.85
1918.24
1917.79
1904.79
1879.67
1842.99
1795.45
1737.92
1671.35
1596.86
1515.67
1429.11
1338.62
1245.66
1151.62
1057.57
963.886
869.753
772.251
665.094
537.572
377.671
187.046
1870.6
1909.5
1935.22
1947.77
1947.26
1933.98
1908.35
1870.95
1822.51
1763.88
1696.06
1620.16
1537.43
1449.22
1356.98
1262.22
1166.36
1070.53
975.176
879.515
780.626
672.139
543.129
381.281
188.266
1837.63
1875.84
1901.12
1913.5
1913.08
1900.15
1875.12
1838.57
1791.19
1733.84
1667.49
1593.23
1512.29
1426
1335.79
1243.12
1149.37
1055.59
962.166
868.271
770.988
664.043
536.755
377.145
186.86
1864.22
1902.96
1928.58
1941.07
1940.57
1927.33
1901.81
1864.56
1816.32
1757.93
1690.39
1614.81
1532.43
1444.59
1352.74
1258.4
1162.95
1067.53
972.566
877.257
778.688
670.508
541.841
380.443
187.984
1864.22
1902.96
1928.58
1941.07
1940.57
1927.33
1901.81
1864.56
1816.32
1757.93
1690.39
1614.81
1532.43
1444.59
1352.74
1258.4
1162.95
1067.53
972.566
877.257
778.688
670.508
541.841
380.443
187.984
1837.64
1875.84
1901.13
1913.5
1913.08
1900.15
1875.12
1838.57
1791.2
1733.84
1667.49
1593.23
1512.29
1426
1335.79
1243.12
1149.37
1055.59
962.167
868.272
770.989
664.044
536.755
377.145
186.861
1870.6
1909.5
1935.22
1947.77
1947.26
1933.98
1908.35
1870.95
1822.51
1763.88
1696.06
1620.16
1537.43
1449.22
1356.98
1262.22
1166.36
1070.53
975.176
879.515
780.626
672.139
543.129
381.281
188.266
1842.24
1880.52
1905.85
1918.24
1917.79
1904.79
1879.67
1842.99
1795.45
1737.92
1671.35
1596.86
1515.67
1429.11
1338.62
1245.66
1151.62
1057.57
963.886
869.753
772.251
665.094
537.572
377.671
187.046
1864.22
1902.96
1928.58
1941.07
1940.57
1927.33
1901.81
1864.56
1816.32
1757.93
1690.39
1614.81
1532.43
1444.59
1352.74
1258.4
1162.95
1067.53
972.566
877.257
778.688
670.508
541.841
380.443
187.984
1837.63
1875.83
1901.12
1913.5
1913.08
1900.15
1875.12
1838.57
1791.19
1733.84
1667.49
1593.23
1512.29
1426
1335.79
1243.12
1149.37
1055.59
962.166
868.271
770.988
664.043
536.755
377.145
186.86
1837.64
1875.84
1901.13
1913.5
1913.08
1900.15
1875.12
1838.57
1791.2
1733.84
1667.49
1593.23
1512.29
1426
1335.79
1243.12
1149.37
1055.59
962.167
868.272
770.989
664.043
536.755
377.145
186.861
1864.22
1902.96
1928.58
1941.07
1940.57
1927.33
1901.81
1864.56
1816.32
1757.93
1690.39
1614.81
1532.43
1444.59
1352.74
1258.4
1162.95
1067.53
972.566
877.257
778.688
670.508
541.841
380.443
187.984
)
;

boundaryField
{
    outletCentralUnloaded
    {
        type            zeroGradient;
    }
    inletCentralUnloaded
    {
        type            zeroGradient;
    }
    outletFuelElement
    {
        type            zeroGradient;
    }
    inletFuelElement
    {
        type            zeroGradient;
    }
    defaultFaces
    {
        type            zeroGradient;
    }
    baffle_master
    {
        type            zeroGradient;
    }
    baffle_slave
    {
        type            zeroGradient;
    }
}


// ************************************************************************* //
