/*--------------------------------*- C++ -*----------------------------------*\
| =========                 |                                                 |
| \\      /  F ield         | OpenFOAM: The Open Source CFD Toolbox           |
|  \\    /   O peration     | Version:  2212                                  |
|   \\  /    A nd           | Website:  www.openfoam.com                      |
|    \\/     M anipulation  |                                                 |
\*---------------------------------------------------------------------------*/
FoamFile
{
    version     2.0;
    format      ascii;
    arch        "LSB;label=32;scalar=64";
    class       volScalarField;
    location    "46/fluidRegion";
    object      Tci.nuclearFuelPin;
}
// * * * * * * * * * * * * * * * * * * * * * * * * * * * * * * * * * * * * * //

dimensions      [0 0 0 1 0 0 0];

internalField   nonuniform List<scalar> 
350
(
0
0
0
0
0
0
0
0
0
0
0
0
0
0
0
0
0
0
0
0
0
0
0
0
0
0
0
0
0
0
0
0
0
0
0
0
0
0
0
0
0
0
0
0
0
0
0
0
0
0
1848.17
1898.58
1935.75
1959.5
1969.77
1966.66
1950.45
1921.56
1880.58
1828.25
1765.47
1693.28
1612.86
1525.54
1432.77
1336.05
1236.82
1136.22
1034.76
931.724
824.344
706.487
567.613
395.892
193.166
1876.6
1927.76
1965.46
1989.5
1999.83
1996.55
1979.93
1950.42
1908.61
1855.25
1791.26
1717.68
1635.73
1546.75
1452.21
1353.63
1252.52
1150.08
1046.86
942.196
833.315
714.005
573.513
399.71
194.456
1843.56
1893.86
1930.97
1954.69
1964.96
1961.9
1945.77
1917
1876.16
1824.01
1761.44
1689.47
1609.3
1522.26
1429.77
1333.34
1234.4
1134.09
1032.91
930.129
822.986
705.36
566.74
395.332
192.969
1870.21
1921.18
1958.74
1982.7
1993
1989.74
1973.21
1943.83
1902.19
1849.06
1785.34
1712.08
1630.47
1541.87
1447.73
1349.58
1248.9
1146.88
1044.06
939.774
831.24
712.265
572.146
398.824
194.158
1870.21
1921.18
1958.74
1982.7
1993
1989.74
1973.21
1943.83
1902.19
1849.06
1785.34
1712.08
1630.47
1541.87
1447.73
1349.58
1248.9
1146.88
1044.06
939.774
831.24
712.265
572.147
398.824
194.158
1843.56
1893.86
1930.97
1954.69
1964.96
1961.9
1945.77
1917
1876.17
1824.01
1761.44
1689.47
1609.31
1522.26
1429.77
1333.34
1234.4
1134.1
1032.91
930.13
822.986
705.361
566.741
395.333
192.97
1876.6
1927.76
1965.46
1989.5
1999.83
1996.55
1979.93
1950.42
1908.61
1855.25
1791.26
1717.68
1635.73
1546.75
1452.21
1353.63
1252.52
1150.08
1046.86
942.196
833.315
714.006
573.514
399.71
194.456
1848.17
1898.58
1935.75
1959.5
1969.77
1966.66
1950.45
1921.56
1880.58
1828.25
1765.47
1693.28
1612.86
1525.54
1432.77
1336.05
1236.82
1136.22
1034.76
931.724
824.344
706.487
567.613
395.892
193.166
1870.21
1921.18
1958.74
1982.7
1993
1989.74
1973.21
1943.83
1902.19
1849.06
1785.34
1712.08
1630.47
1541.87
1447.73
1349.58
1248.9
1146.88
1044.06
939.774
831.24
712.265
572.147
398.824
194.158
1843.56
1893.86
1930.97
1954.69
1964.96
1961.9
1945.77
1917
1876.16
1824.01
1761.44
1689.47
1609.3
1522.26
1429.77
1333.34
1234.4
1134.09
1032.91
930.129
822.986
705.36
566.741
395.332
192.969
1843.56
1893.86
1930.97
1954.69
1964.96
1961.9
1945.77
1917
1876.17
1824.01
1761.44
1689.47
1609.31
1522.26
1429.77
1333.34
1234.4
1134.1
1032.91
930.13
822.986
705.361
566.741
395.333
192.97
1870.21
1921.18
1958.74
1982.7
1993
1989.74
1973.21
1943.83
1902.19
1849.06
1785.34
1712.08
1630.47
1541.87
1447.73
1349.58
1248.9
1146.88
1044.06
939.774
831.24
712.265
572.147
398.824
194.158
)
;

boundaryField
{
    outletCentralUnloaded
    {
        type            zeroGradient;
    }
    inletCentralUnloaded
    {
        type            zeroGradient;
    }
    outletFuelElement
    {
        type            zeroGradient;
    }
    inletFuelElement
    {
        type            zeroGradient;
    }
    defaultFaces
    {
        type            zeroGradient;
    }
    baffle_master
    {
        type            zeroGradient;
    }
    baffle_slave
    {
        type            zeroGradient;
    }
}


// ************************************************************************* //
