/*--------------------------------*- C++ -*----------------------------------*\
| =========                 |                                                 |
| \\      /  F ield         | OpenFOAM: The Open Source CFD Toolbox           |
|  \\    /   O peration     | Version:  2212                                  |
|   \\  /    A nd           | Website:  www.openfoam.com                      |
|    \\/     M anipulation  |                                                 |
\*---------------------------------------------------------------------------*/
FoamFile
{
    version     2.0;
    format      ascii;
    arch        "LSB;label=32;scalar=64";
    class       volScalarField;
    location    "46/fluidRegion";
    object      Tco.nuclearFuelPin;
}
// * * * * * * * * * * * * * * * * * * * * * * * * * * * * * * * * * * * * * //

dimensions      [0 0 0 1 0 0 0];

internalField   nonuniform List<scalar> 
350
(
0
0
0
0
0
0
0
0
0
0
0
0
0
0
0
0
0
0
0
0
0
0
0
0
0
0
0
0
0
0
0
0
0
0
0
0
0
0
0
0
0
0
0
0
0
0
0
0
0
0
1836.7
1863.66
1877.94
1879.72
1869.27
1847.04
1813.6
1769.64
1715.99
1653.59
1583.5
1506.86
1424.94
1339.09
1250.73
1161.29
1072.1
984.147
897.729
811.903
723.623
626.454
509.529
360.663
181.333
1865
1892.45
1906.99
1908.81
1898.19
1875.57
1841.52
1796.76
1742.14
1678.59
1607.2
1529.13
1445.67
1358.17
1268.08
1176.88
1085.92
996.267
908.262
821.003
731.441
633.057
514.765
364.078
182.488
1832.1
1859.01
1873.27
1875.05
1864.65
1842.51
1809.17
1765.36
1711.87
1649.67
1579.79
1503.39
1421.73
1336.15
1248.06
1158.9
1069.99
982.3
896.129
810.527
722.449
625.473
508.763
360.167
181.158
1858.63
1885.96
1900.43
1902.22
1891.62
1869.08
1835.16
1790.57
1736.16
1672.86
1601.76
1524.02
1440.9
1353.77
1264.08
1173.28
1082.73
993.465
905.826
818.898
729.632
631.527
513.551
363.285
182.221
1858.63
1885.96
1900.43
1902.22
1891.62
1869.08
1835.16
1790.57
1736.16
1672.86
1601.76
1524.02
1440.9
1353.77
1264.08
1173.28
1082.73
993.465
905.826
818.898
729.632
631.528
513.551
363.285
182.221
1832.11
1859.01
1873.27
1875.05
1864.66
1842.51
1809.18
1765.36
1711.88
1649.67
1579.79
1503.39
1421.73
1336.15
1248.06
1158.9
1069.99
982.301
896.13
810.528
722.449
625.474
508.764
360.168
181.158
1865
1892.45
1906.99
1908.81
1898.19
1875.57
1841.52
1796.76
1742.14
1678.59
1607.2
1529.13
1445.67
1358.17
1268.08
1176.88
1085.92
996.267
908.262
821.003
731.441
633.057
514.765
364.078
182.488
1836.7
1863.66
1877.94
1879.72
1869.27
1847.04
1813.6
1769.64
1715.99
1653.59
1583.5
1506.86
1424.94
1339.09
1250.73
1161.29
1072.1
984.147
897.729
811.903
723.623
626.454
509.529
360.663
181.333
1858.63
1885.96
1900.43
1902.22
1891.62
1869.08
1835.16
1790.57
1736.16
1672.86
1601.76
1524.02
1440.9
1353.77
1264.08
1173.28
1082.73
993.465
905.826
818.898
729.632
631.528
513.551
363.285
182.221
1832.1
1859.01
1873.27
1875.05
1864.65
1842.51
1809.17
1765.36
1711.87
1649.67
1579.79
1503.39
1421.73
1336.15
1248.06
1158.9
1069.99
982.3
896.129
810.527
722.449
625.473
508.763
360.167
181.158
1832.11
1859.01
1873.27
1875.05
1864.66
1842.51
1809.18
1765.36
1711.88
1649.67
1579.79
1503.39
1421.73
1336.15
1248.06
1158.9
1069.99
982.301
896.13
810.528
722.449
625.474
508.764
360.168
181.158
1858.63
1885.96
1900.43
1902.22
1891.62
1869.08
1835.16
1790.57
1736.16
1672.86
1601.76
1524.02
1440.9
1353.77
1264.08
1173.28
1082.73
993.465
905.826
818.898
729.632
631.528
513.551
363.285
182.221
)
;

boundaryField
{
    outletCentralUnloaded
    {
        type            zeroGradient;
    }
    inletCentralUnloaded
    {
        type            zeroGradient;
    }
    outletFuelElement
    {
        type            zeroGradient;
    }
    inletFuelElement
    {
        type            zeroGradient;
    }
    defaultFaces
    {
        type            zeroGradient;
    }
    baffle_master
    {
        type            zeroGradient;
    }
    baffle_slave
    {
        type            zeroGradient;
    }
}


// ************************************************************************* //
