/*--------------------------------*- C++ -*----------------------------------*\
| =========                 |                                                 |
| \\      /  F ield         | OpenFOAM: The Open Source CFD Toolbox           |
|  \\    /   O peration     | Version:  2212                                  |
|   \\  /    A nd           | Website:  www.openfoam.com                      |
|    \\/     M anipulation  |                                                 |
\*---------------------------------------------------------------------------*/
FoamFile
{
    version     2.0;
    format      ascii;
    arch        "LSB;label=32;scalar=64";
    class       volScalarField;
    location    "46/fluidRegion";
    object      Tfo.nuclearFuelPin;
}
// * * * * * * * * * * * * * * * * * * * * * * * * * * * * * * * * * * * * * //

dimensions      [0 0 0 1 0 0 0];

internalField   nonuniform List<scalar> 
350
(
0
0
0
0
0
0
0
0
0
0
0
0
0
0
0
0
0
0
0
0
0
0
0
0
0
0
0
0
0
0
0
0
0
0
0
0
0
0
0
0
0
0
0
0
0
0
0
0
0
0
2014.17
2403.43
2771.44
3112.79
3422.42
3695.71
3928.57
4117.51
4259.68
4352.94
4395.88
4387.89
4329.13
4220.61
4064.08
3862.08
3617.68
3334.34
3015.42
2663.67
2280.21
1863.32
1407.19
905.109
364.2
2044.44
2438.34
2810.67
3155.95
3469.07
3745.35
3980.67
4171.48
4314.92
4408.82
4451.76
4443.13
4383.09
4272.66
4113.63
3908.57
3660.64
3373.37
3050.2
2693.97
2305.85
1884.08
1422.7
914.752
367.442
2009.26
2397.8
2765.15
3105.89
3414.97
3687.8
3920.29
4108.95
4250.93
4344.1
4387.05
4379.17
4320.63
4212.41
4056.28
3854.76
3610.93
3328.21
3009.96
2658.92
2276.2
1860.08
1404.78
903.622
363.692
2037.62
2430.44
2801.76
3146.12
3458.42
3734
3968.74
4159.11
4302.24
4395.98
4438.92
4430.42
4370.67
4260.67
4102.22
3897.86
3650.74
3364.37
3042.18
2686.98
2299.94
1879.29
1419.12
912.525
366.694
2037.62
2430.44
2801.76
3146.12
3458.42
3734
3968.74
4159.11
4302.24
4395.98
4438.92
4430.42
4370.67
4260.67
4102.22
3897.86
3650.74
3364.37
3042.18
2686.98
2299.94
1879.29
1419.12
912.525
366.694
2009.26
2397.81
2765.15
3105.89
3414.98
3687.81
3920.29
4108.95
4250.93
4344.1
4387.05
4379.17
4320.63
4212.41
4056.28
3854.76
3610.93
3328.21
3009.96
2658.92
2276.2
1860.08
1404.78
903.622
363.692
2044.44
2438.34
2810.67
3155.95
3469.07
3745.35
3980.67
4171.48
4314.92
4408.82
4451.76
4443.13
4383.09
4272.66
4113.63
3908.57
3660.64
3373.37
3050.2
2693.97
2305.85
1884.08
1422.7
914.752
367.442
2014.17
2403.43
2771.44
3112.79
3422.42
3695.71
3928.57
4117.51
4259.68
4352.94
4395.88
4387.89
4329.13
4220.61
4064.08
3862.08
3617.68
3334.34
3015.42
2663.67
2280.21
1863.32
1407.19
905.109
364.2
2037.62
2430.44
2801.76
3146.12
3458.42
3734
3968.74
4159.11
4302.24
4395.98
4438.92
4430.42
4370.67
4260.67
4102.22
3897.86
3650.74
3364.37
3042.18
2686.98
2299.94
1879.29
1419.12
912.525
366.694
2009.26
2397.8
2765.15
3105.89
3414.97
3687.8
3920.29
4108.95
4250.93
4344.1
4387.05
4379.17
4320.63
4212.41
4056.28
3854.76
3610.93
3328.21
3009.96
2658.92
2276.2
1860.08
1404.78
903.622
363.692
2009.26
2397.81
2765.15
3105.89
3414.98
3687.81
3920.29
4108.95
4250.93
4344.1
4387.05
4379.17
4320.63
4212.41
4056.28
3854.76
3610.93
3328.21
3009.96
2658.92
2276.2
1860.08
1404.78
903.623
363.692
2037.62
2430.44
2801.76
3146.12
3458.42
3734
3968.74
4159.11
4302.24
4395.98
4438.92
4430.42
4370.67
4260.67
4102.22
3897.86
3650.74
3364.37
3042.18
2686.98
2299.94
1879.29
1419.12
912.525
366.694
)
;

boundaryField
{
    outletCentralUnloaded
    {
        type            zeroGradient;
    }
    inletCentralUnloaded
    {
        type            zeroGradient;
    }
    outletFuelElement
    {
        type            zeroGradient;
    }
    inletFuelElement
    {
        type            zeroGradient;
    }
    defaultFaces
    {
        type            zeroGradient;
    }
    baffle_master
    {
        type            zeroGradient;
    }
    baffle_slave
    {
        type            zeroGradient;
    }
}


// ************************************************************************* //
