/*--------------------------------*- C++ -*----------------------------------*\
| =========                 |                                                 |
| \\      /  F ield         | OpenFOAM: The Open Source CFD Toolbox           |
|  \\    /   O peration     | Version:  2212                                  |
|   \\  /    A nd           | Website:  www.openfoam.com                      |
|    \\/     M anipulation  |                                                 |
\*---------------------------------------------------------------------------*/
FoamFile
{
    version     2.0;
    format      ascii;
    arch        "LSB;label=32;scalar=64";
    class       scalarFieldField;
    location    "46/fluidRegion";
    object      Trad.nuclearFuelPin;
}
// * * * * * * * * * * * * * * * * * * * * * * * * * * * * * * * * * * * * * //


350
(
0()
0()
0()
0()
0()
0()
0()
0()
0()
0()
0()
0()
0()
0()
0()
0()
0()
0()
0()
0()
0()
0()
0()
0()
0()
0()
0()
0()
0()
0()
0()
0()
0()
0()
0()
0()
0()
0()
0()
0()
0()
0()
0()
0()
0()
0()
0()
0()
0()
0()

20
(
2402.86
2401.15
2396
2387.42
2375.41
2359.95
2341.05
2318.69
2292.86
2263.57
2230.78
2194.51
2154.72
2111.41
2064.56
2014.17
1848.17
1844.22
1840.4
1836.7
)


20
(
3590.83
3585.57
3569.78
3543.45
3506.59
3459.19
3401.25
3332.75
3253.68
3164.04
3063.82
2952.99
2831.56
2699.49
2556.79
2403.43
1898.58
1886.56
1874.93
1863.66
)


20
(
4738.65
4729.92
4703.73
4660.08
4598.97
4520.38
4424.32
4310.77
4179.72
4031.17
3865.09
3681.48
3480.33
3261.62
3025.33
2771.44
1935.75
1915.85
1896.59
1877.94
)


20
(
5828.61
5816.56
5780.39
5720.11
5635.71
5527.18
5394.52
5237.72
5056.77
4851.66
4622.37
4368.89
4091.21
3789.31
3463.18
3112.79
1959.5
1932.03
1905.45
1879.72
)


20
(
6843.87
6828.68
6783.11
6707.14
6600.79
6464.05
6296.9
6099.33
5871.34
5612.92
5324.04
5004.71
4654.89
4274.58
3863.76
3422.42
1969.77
1935.16
1901.69
1869.27
)


20
(
7768.68
7750.59
7696.33
7605.9
7479.28
7316.47
7117.47
6882.27
6610.85
6303.2
5959.31
5579.16
5162.75
4710.04
4221.04
3695.71
1966.66
1925.47
1885.63
1847.04
)


20
(
8588.68
8567.98
8505.89
8402.41
8257.53
8071.24
7843.54
7574.41
7263.85
6911.84
6518.37
6083.43
5606.99
5089.05
4529.58
3928.57
1950.45
1903.33
1857.74
1813.6
)


20
(
9291.12
9268.14
9199.21
9084.31
8923.46
8716.63
8463.82
8165.03
7820.24
7429.43
6992.6
6509.73
5980.8
5405.8
4784.71
4117.51
1921.56
1869.25
1818.65
1769.64
)


20
(
9865.06
9840.16
9765.47
9640.99
9466.7
9242.6
8968.68
8644.94
8271.37
7847.94
7374.65
6851.47
6278.41
5655.43
4982.53
4259.68
1880.58
1823.91
1769.08
1715.99
)


20
(
10301.6
10275.1
10195.9
10063.8
9878.78
9640.96
9350.26
9006.69
8610.23
8160.86
7658.59
7103.38
6495.23
5834.11
5120.02
4352.94
1828.25
1768.11
1709.93
1653.59
)


20
(
10593.8
10566.3
10483.7
10346
10153.3
9905.5
9602.61
9244.63
8831.55
8363.35
7840.02
7261.54
6627.91
5939.1
5195.09
4395.88
1765.47
1702.81
1642.2
1583.5
)


20
(
10737.2
10709
10624.4
10483.4
10286
10032.1
9721.81
9355.08
8931.9
8452.25
7916.13
7323.52
6674.41
5968.78
5206.61
4387.89
1693.28
1629.09
1567
1506.86
)


20
(
10729.7
10701.2
10616
10473.8
10274.8
10018.8
9706.04
9336.34
8909.75
8426.23
7885.79
7288.4
6634.06
5922.74
5154.44
4329.13
1612.86
1548.16
1485.56
1424.94
)


20
(
10571.3
10543.1
10458.4
10317.4
10119.9
9865.97
9555.6
9188.79
8765.51
8285.76
7749.52
7156.79
6507.55
5801.78
5039.47
4220.61
1525.54
1461.35
1399.24
1339.09
)


20
(
10264.6
10237.1
10154.5
10016.7
9823.91
9575.98
9272.95
8914.8
8501.52
8033.11
7509.55
6930.83
6296.94
5607.86
4863.58
4064.08
1432.77
1370.09
1309.45
1250.73
)


20
(
9814.61
9788.17
9708.84
9576.62
9391.51
9153.5
8862.58
8518.75
8122
7672.33
7169.71
6614.13
6005.6
5344.08
4629.58
3862.08
1336.05
1275.88
1217.67
1161.29
)


20
(
9228.22
9203.3
9128.52
9003.9
8829.42
8605.08
8330.88
8006.8
7632.85
7209
6735.26
6211.61
5638.04
5014.53
4341.09
3617.68
1236.82
1180.1
1125.24
1072.1
)


20
(
8514.28
8491.27
8422.24
8307.17
8146.08
7938.96
7685.8
7386.6
7041.34
6650.02
6212.64
5729.18
5199.63
4623.98
4002.22
3334.34
1136.22
1083.86
1033.2
984.147
)


20
(
7682.93
7662.2
7599.99
7496.31
7351.16
7164.52
6936.41
6666.8
6355.7
6003.09
5608.97
5173.34
4696.17
4177.47
3617.22
3015.42
1034.76
987.576
941.932
897.729
)


20
(
6745.08
6726.95
6672.55
6581.89
6454.96
6291.76
6092.29
5856.54
5584.5
5276.17
4931.55
4550.61
4133.37
3679.8
3189.9
2663.67
931.724
890.468
850.556
811.903
)


20
(
5711.03
5695.79
5650.06
5573.86
5467.16
5329.98
5162.3
4964.13
4735.46
4476.28
4186.58
3866.37
3515.64
3134.37
2722.56
2280.21
824.344
789.664
756.114
723.623
)


20
(
4589.43
4577.32
4540.99
4480.43
4395.66
4286.65
4153.42
3995.95
3814.25
3608.3
3378.12
3123.68
2844.99
2542.03
2214.81
1863.32
706.487
678.93
652.272
626.454
)


20
(
3385.68
3376.89
3350.52
3306.57
3245.04
3165.93
3069.24
2954.95
2823.08
2673.62
2506.56
2321.9
2119.63
1899.76
1662.28
1407.19
567.613
547.614
528.266
509.529
)


20
(
2105.19
2099.86
2083.87
2057.21
2019.88
1971.89
1913.24
1843.91
1763.92
1673.26
1571.93
1459.92
1337.23
1203.87
1059.83
905.109
395.892
383.762
372.027
360.663
)


20
(
767.513
765.72
760.341
751.376
738.826
722.69
702.968
679.662
652.771
622.296
588.237
550.594
509.369
464.561
416.171
364.2
193.166
189.092
185.15
181.333
)


20
(
2437.42
2435.68
2430.48
2421.81
2409.66
2394.04
2374.92
2352.32
2326.21
2296.59
2263.45
2226.77
2186.54
2142.75
2095.39
2044.44
1876.6
1872.6
1868.74
1865
)


20
(
3639.18
3633.86
3617.89
3591.27
3553.99
3506.06
3447.46
3378.18
3298.22
3207.57
3106.21
2994.13
2871.32
2737.76
2593.44
2438.34
1927.76
1915.6
1903.84
1892.45
)


20
(
4800.25
4791.43
4764.94
4720.79
4658.99
4579.51
4482.35
4367.51
4234.97
4084.73
3916.77
3731.07
3527.63
3306.43
3067.44
2810.67
1965.46
1945.33
1925.85
1906.99
)


20
(
5902.73
5890.54
5853.96
5792.99
5707.63
5597.87
5463.7
5305.11
5122.1
4914.65
4682.75
4426.38
4145.53
3840.19
3510.34
3155.95
1989.5
1961.72
1934.84
1908.81
)


20
(
6929.57
6914.21
6868.11
6791.28
6683.72
6545.41
6376.36
6176.54
5945.95
5684.57
5392.4
5069.42
4715.61
4330.96
3915.45
3469.07
1999.83
1964.83
1930.97
1898.19
)


20
(
7864.84
7846.55
7791.67
7700.2
7572.14
7407.47
7206.2
6968.31
6693.79
6382.63
6034.81
5650.33
5229.15
4771.28
4276.68
3745.35
1996.55
1954.89
1914.59
1875.57
)


20
(
8694.03
8673.09
8610.3
8505.63
8359.09
8170.68
7940.38
7668.17
7354.07
6998.04
6600.07
6160.16
5678.28
5154.41
4588.55
3980.67
1979.93
1932.27
1886.17
1841.52
)


20
(
9404.23
9380.99
9311.27
9195.06
9032.37
8823.18
8567.48
8265.27
7916.54
7521.27
7079.44
6591.05
6056.08
5474.5
4846.31
4171.48
1950.42
1897.51
1846.33
1796.76
)


20
(
9984.39
9959.21
9883.67
9757.76
9581.47
9354.81
9077.77
8750.33
8372.48
7944.21
7465.51
6936.35
6356.74
5726.64
5046.04
4314.92
1908.61
1851.29
1795.84
1742.14
)


20
(
10425.5
10398.7
10318.6
10184.9
9997.86
9757.31
9463.29
9115.79
8714.8
8260.3
7752.28
7190.72
6575.61
5906.94
5184.68
4408.82
1855.25
1794.42
1735.58
1678.59
)


20
(
10720.6
10692.7
10609.2
10470
10275
10024.4
9718.05
9355.98
8938.17
8464.61
7935.3
7350.21
6709.32
6012.63
5260.12
4451.76
1791.26
1727.88
1666.57
1607.2
)


20
(
10865.1
10836.6
10751
10608.4
10408.7
10151.9
9838.07
9467.14
9039.12
8553.99
8011.74
7412.35
6755.81
6042.1
5271.22
4443.13
1717.68
1652.76
1589.96
1529.13
)


20
(
10856.9
10828.1
10741.8
10598
10396.7
10137.9
9821.52
9447.59
9016.11
8527.07
7980.44
7376.22
6714.39
5994.94
5217.84
4383.09
1635.73
1570.29
1506.98
1445.67
)


20
(
10696
10667.5
10581.9
10439.2
10239.4
9982.62
9668.7
9297.69
8869.57
8384.33
7841.96
7242.44
6585.77
5871.92
5100.89
4272.66
1546.75
1481.82
1419
1358.17
)


20
(
10385.1
10357.3
10273.7
10134.4
9939.37
9688.61
9382.11
9019.86
8601.86
8128.08
7598.53
7013.19
6372.04
5675.08
4922.28
4113.63
1452.21
1388.81
1327.48
1268.08
)


20
(
9929.23
9902.49
9822.25
9688.52
9501.29
9260.55
8966.31
8618.54
8217.26
7762.43
7254.06
6692.13
6076.63
5407.55
4684.86
3908.57
1353.63
1292.77
1233.9
1176.88
)


20
(
9335.39
9310.18
9234.56
9108.5
8932.03
8705.12
8427.78
8100
7721.76
7293.07
6813.9
6284.26
5704.12
5073.48
4392.33
3660.64
1252.52
1195.16
1139.67
1085.92
)


20
(
8612.6
8589.32
8519.49
8403.12
8240.18
8030.69
7774.63
7472
7122.8
6727
6284.61
5795.61
5260
4677.76
4048.89
3373.37
1150.08
1097.12
1045.88
996.267
)


20
(
7771.14
7750.17
7687.25
7582.38
7435.57
7246.8
7016.07
6743.37
6428.71
6072.07
5673.44
5232.82
4750.19
4225.55
3658.89
3050.2
1046.86
999.137
952.971
908.262
)


20
(
6822.1
6803.76
6748.74
6657.04
6528.66
6363.6
6161.84
5923.39
5648.24
5336.38
4987.81
4602.52
4180.49
3721.73
3226.23
2693.97
942.196
900.467
860.098
821.003
)


20
(
5775.94
5760.53
5714.28
5637.2
5529.28
5390.53
5220.93
5020.49
4789.2
4527.05
4234.05
3910.17
3555.42
3169.79
2753.27
2305.85
833.315
798.238
764.304
731.441
)


20
(
4641.4
4629.15
4592.4
4531.15
4445.4
4335.15
4200.39
4041.12
3857.34
3649.04
3416.22
3158.87
2876.98
2570.56
2239.6
1884.08
714.005
686.133
659.17
633.057
)


20
(
3423.83
3414.94
3388.27
3343.81
3281.58
3201.57
3103.76
2988.17
2854.79
2703.62
2534.65
2347.87
2143.3
1920.91
1680.71
1422.7
573.513
553.285
533.716
514.765
)


20
(
2128.56
2123.17
2106.99
2080.02
2042.27
1993.73
1934.41
1864.29
1783.39
1691.69
1589.19
1475.9
1351.82
1216.93
1071.24
914.752
399.71
387.441
375.572
364.078
)


20
(
775.353
773.54
768.1
759.033
746.339
730.019
710.073
686.501
659.304
628.481
594.034
555.962
514.267
468.948
420.006
367.442
194.456
190.336
186.349
182.488
)


20
(
2397.27
2395.56
2390.42
2381.86
2369.86
2354.43
2335.56
2313.24
2287.46
2258.22
2225.49
2189.28
2149.56
2106.33
2059.56
2009.26
1843.56
1839.61
1835.8
1832.1
)


20
(
3583.06
3577.81
3562.04
3535.76
3498.97
3451.66
3393.82
3325.44
3246.52
3157.04
3056.99
2946.37
2825.15
2693.33
2550.88
2397.8
1893.86
1881.86
1870.25
1859.01
)


20
(
4728.78
4720.07
4693.93
4650.36
4589.36
4510.91
4415.02
4301.68
4170.87
4022.58
3856.81
3673.54
3472.75
3254.43
3018.57
2765.15
1930.97
1911.1
1891.88
1873.27
)


20
(
5816.78
5804.74
5768.64
5708.47
5624.22
5515.89
5383.47
5226.96
5046.34
4841.6
4612.72
4359.71
4082.53
3781.18
3455.63
3105.89
1954.69
1927.27
1900.74
1875.05
)


20
(
6830.21
6815.04
6769.55
6693.73
6587.57
6451.07
6284.23
6087.02
5859.45
5601.49
5313.14
4994.38
4645.21
4265.59
3855.52
3414.97
1964.96
1930.42
1897.01
1864.65
)


20
(
7753.37
7735.31
7681.15
7590.88
7464.49
7301.98
7103.34
6868.57
6597.64
6290.55
5947.29
5567.83
5152.17
4700.29
4212.18
3687.8
1961.9
1920.79
1881.02
1842.51
)


20
(
8571.92
8551.26
8489.29
8385.99
8241.37
8055.42
7828.14
7559.5
7249.5
6898.14
6505.38
6071.23
5595.66
5078.66
4520.21
3920.29
1945.77
1898.74
1853.24
1809.17
)


20
(
9273.14
9250.2
9181.4
9066.71
8906.15
8699.7
8447.35
8149.1
7804.94
7414.84
6978.81
6496.81
5968.85
5394.89
4774.93
4108.95
1917
1864.78
1814.27
1765.36
)


20
(
9846.11
9821.25
9746.7
9622.44
9448.47
9224.78
8951.36
8628.21
8255.31
7832.65
7360.22
6838.01
6265.98
5644.14
4972.46
4250.93
1876.16
1819.6
1764.87
1711.87
)


20
(
10281.9
10255.5
10176.4
10044.5
9859.88
9622.49
9332.32
8989.37
8593.63
8145.09
7643.73
7089.53
6482.49
5822.58
5109.79
4344.1
1824.01
1763.98
1705.91
1649.67
)


20
(
10573.7
10546.2
10463.8
10326.4
10134
9886.63
9584.3
9226.97
8814.64
8347.29
7824.91
7247.49
6615.01
5927.46
5184.81
4387.05
1761.44
1698.89
1638.39
1579.79
)


20
(
10717
10688.8
10604.4
10463.6
10266.5
10013.1
9703.38
9337.31
8914.9
8436.13
7900.99
7309.46
6661.53
5957.18
5196.4
4379.17
1689.47
1625.4
1563.42
1503.39
)


20
(
10709.5
10681.1
10596
10454.1
10255.4
9999.96
9687.73
9318.71
8892.89
8410.26
7870.8
7274.5
6621.35
5911.33
5144.43
4320.63
1609.3
1544.72
1482.24
1421.73
)


20
(
10551.5
10523.4
10438.9
10298.1
10100.9
9847.48
9537.68
9171.53
8749.03
8270.15
7734.89
7143.24
6495.18
5790.7
5029.78
4212.41
1522.26
1458.18
1396.18
1336.15
)


20
(
10245.5
10218
10135.6
9998.08
9805.61
9558.14
9255.66
8898.16
8485.64
8018.08
7495.47
6917.81
6285.07
5597.24
4854.32
4056.28
1429.77
1367.2
1306.68
1248.06
)


20
(
9796.45
9770.05
9690.87
9558.89
9374.11
9136.54
8846.15
8502.95
8106.93
7658.07
7156.36
6601.8
5994.38
5334.07
4620.87
3854.76
1333.34
1273.28
1215.17
1158.9
)


20
(
9211.24
9186.36
9111.72
8987.33
8813.16
8589.23
8315.53
7992.05
7618.77
7195.7
6722.82
6200.12
5627.6
5005.23
4333.01
3610.93
1234.4
1177.79
1123.02
1069.99
)


20
(
8498.71
8475.74
8406.83
8291.98
8131.18
7924.44
7671.74
7373.08
7028.45
6637.85
6201.26
5718.68
5190.09
4615.49
3994.87
3328.21
1134.09
1081.83
1031.27
982.3
)


20
(
7668.96
7648.27
7586.17
7482.68
7337.79
7151.5
6923.8
6654.68
6344.15
5992.18
5598.79
5163.94
4687.65
4169.89
3610.67
3009.96
1032.91
985.812
940.252
896.129
)


20
(
6732.88
6714.79
6660.49
6569.99
6443.3
6280.4
6081.29
5845.97
5574.42
5266.66
4922.66
4542.42
4125.93
3673.19
3184.19
2658.92
930.129
888.948
849.109
810.527
)


20
(
5700.76
5685.55
5639.91
5563.84
5457.34
5320.4
5153.03
4955.22
4726.97
4468.26
4179.1
3859.47
3509.37
3128.8
2717.75
2276.2
822.986
788.369
754.88
722.449
)


20
(
4581.23
4569.14
4532.87
4472.43
4387.8
4279
4146
3988.83
3807.45
3601.89
3372.12
3118.14
2839.96
2537.56
2210.93
1860.08
705.36
677.853
651.244
625.473
)


20
(
3379.67
3370.9
3344.58
3300.71
3239.29
3160.32
3063.8
2949.73
2818.1
2668.91
2502.15
2317.83
2115.93
1896.46
1659.41
1404.78
566.74
546.778
527.466
508.763
)


20
(
2101.52
2096.2
2080.23
2053.62
2016.37
1968.46
1909.91
1840.72
1760.87
1670.37
1569.22
1457.42
1334.96
1201.84
1058.06
903.622
395.332
383.224
371.511
360.167
)


20
(
766.273
764.483
759.114
750.166
737.638
721.531
701.845
678.581
651.739
621.319
587.322
549.748
508.597
463.871
415.569
363.692
192.969
188.902
184.968
181.158
)


20
(
2429.61
2427.88
2422.69
2414.04
2401.93
2386.34
2367.28
2344.73
2318.68
2289.14
2256.08
2219.49
2179.37
2135.69
2088.44
2037.62
1870.21
1866.22
1862.37
1858.63
)


20
(
3628.19
3622.88
3606.95
3580.39
3543.21
3495.4
3436.95
3367.86
3288.1
3197.68
3096.58
2984.79
2862.3
2729.09
2585.14
2430.44
1921.18
1909.05
1897.32
1885.96
)


20
(
4786.19
4777.39
4750.97
4706.94
4645.29
4566.02
4469.11
4354.57
4222.37
4072.52
3904.99
3719.78
3516.86
3296.23
3057.87
2801.76
1958.74
1938.66
1919.24
1900.43
)


20
(
5885.78
5873.61
5837.13
5776.32
5691.18
5581.7
5447.88
5289.71
5107.17
4900.25
4668.95
4413.25
4133.13
3828.58
3499.58
3146.12
1982.7
1954.99
1928.18
1902.22
)


20
(
6909.93
6894.61
6848.63
6772.01
6664.72
6526.77
6358.15
6158.85
5928.86
5668.17
5376.76
5054.61
4701.73
4318.07
3903.65
3458.42
1993
1958.09
1924.32
1891.62
)


20
(
7842.78
7824.54
7769.8
7678.57
7550.84
7386.6
7185.85
6948.58
6674.77
6364.42
6017.51
5634.02
5213.94
4757.26
4263.95
3734
1989.74
1948.2
1908
1869.08
)


20
(
8669.84
8648.96
8586.33
8481.93
8335.78
8147.85
7918.15
7646.65
7333.36
6978.26
6581.33
6142.56
5661.93
5139.43
4575.04
3968.74
1973.21
1925.67
1879.69
1835.16
)


20
(
9378.24
9355.06
9285.52
9169.62
9007.35
8798.7
8543.67
8242.25
7894.42
7500.18
7059.5
6572.38
6038.8
5458.74
4832.18
4159.11
1943.83
1891.06
1840.01
1790.57
)


20
(
9956.96
9931.85
9856.5
9730.92
9555.09
9329.02
9052.7
8726.11
8349.24
7922.09
7444.63
6916.86
6338.75
5710.28
5031.46
4302.24
1902.19
1845.02
1789.72
1736.16
)


20
(
10397
10370.3
10290.4
10157.1
9970.48
9730.56
9437.3
9090.71
8690.75
8237.44
7730.74
7170.64
6557.14
5890.2
5169.82
4395.98
1849.06
1788.4
1729.7
1672.86
)


20
(
10691.4
10663.6
10580.3
10441.5
10247
9997.05
9691.49
9330.36
8913.64
8441.32
7913.38
7329.81
6690.6
5995.72
5245.17
4438.92
1785.34
1722.13
1660.98
1601.76
)


20
(
10835.7
10807.2
10721.9
10579.6
10380.4
10124.3
9811.32
9441.36
9014.45
8530.58
7989.74
7391.91
6737.08
6025.24
5256.35
4430.42
1712.08
1647.32
1584.68
1524.02
)


20
(
10827.6
10798.9
10712.9
10569.4
10368.7
10110.5
9794.94
9421.99
8991.63
8503.86
7958.66
7356.01
6695.9
5978.32
5203.25
4370.67
1630.47
1565.2
1502.05
1440.9
)


20
(
10667.3
10638.8
10553.5
10411.2
10211.9
9955.77
9642.67
9272.62
8845.61
8361.63
7820.68
7222.72
6567.76
5855.77
5086.75
4260.67
1541.87
1477.1
1414.45
1353.77
)


20
(
10357.4
10329.6
10246.2
10107.3
9912.79
9662.68
9356.97
8995.67
8578.75
8106.21
7578.04
6994.22
6354.75
5659.6
4908.76
4102.22
1447.73
1384.49
1323.32
1264.08
)


20
(
9902.84
9876.16
9796.13
9662.75
9476.01
9235.9
8942.42
8595.56
8195.32
7741.68
7234.63
6674.17
6060.27
5392.93
4672.13
3897.86
1349.58
1288.87
1230.15
1173.28
)


20
(
9310.71
9285.57
9210.14
9084.41
8908.4
8682.08
8405.46
8078.53
7701.28
7273.71
6795.79
6267.52
5688.9
5059.9
4380.52
3650.74
1248.9
1191.68
1136.33
1082.73
)


20
(
8589.95
8566.74
8497.09
8381.02
8218.51
8009.56
7754.17
7452.33
7104.03
6709.27
6268.03
5780.31
5246.09
4665.37
4038.13
3364.37
1146.88
1094.05
1042.95
993.465
)


20
(
7750.82
7729.91
7667.15
7562.56
7416.12
7227.85
6997.72
6725.74
6411.89
6056.18
5658.59
5219.11
4737.75
4214.47
3649.29
3042.18
1044.06
996.464
950.418
905.826
)


20
(
6804.36
6786.07
6731.19
6639.73
6511.69
6347.05
6145.82
5907.99
5633.56
5322.51
4974.85
4590.56
4169.63
3712.07
3217.86
2686.98
939.774
898.155
857.891
818.898
)


20
(
5760.99
5745.61
5699.49
5622.61
5514.97
5376.58
5207.43
5007.51
4776.82
4515.36
4223.11
3900.08
3546.25
3161.63
2746.19
2299.94
831.24
796.254
762.409
729.632
)


20
(
4629.42
4617.21
4580.55
4519.47
4433.94
4323.98
4189.57
4030.71
3847.41
3639.65
3407.44
3150.76
2869.61
2563.99
2233.88
1879.29
712.265
684.466
657.572
631.527
)


20
(
3415.04
3406.17
3379.57
3335.23
3273.16
3193.35
3095.81
2980.52
2847.48
2696.7
2528.17
2341.88
2137.84
1916.03
1676.46
1419.12
572.146
551.971
532.453
513.551
)


20
(
2123.17
2117.79
2101.66
2074.76
2037.11
1988.7
1929.53
1859.59
1778.9
1687.44
1585.21
1472.22
1348.45
1213.92
1068.61
912.525
398.824
386.587
374.749
363.285
)


20
(
773.547
771.738
766.312
757.269
744.608
728.331
708.436
684.926
657.799
627.056
592.698
554.725
513.138
467.936
419.122
366.694
194.158
190.048
186.072
182.221
)


20
(
2429.61
2427.88
2422.69
2414.04
2401.93
2386.34
2367.28
2344.73
2318.68
2289.14
2256.08
2219.49
2179.37
2135.69
2088.44
2037.62
1870.21
1866.22
1862.37
1858.63
)


20
(
3628.19
3622.88
3606.95
3580.39
3543.21
3495.4
3436.95
3367.86
3288.1
3197.68
3096.58
2984.79
2862.3
2729.09
2585.14
2430.44
1921.18
1909.05
1897.32
1885.96
)


20
(
4786.19
4777.39
4750.97
4706.94
4645.29
4566.02
4469.11
4354.57
4222.37
4072.52
3904.99
3719.78
3516.86
3296.23
3057.87
2801.76
1958.74
1938.66
1919.24
1900.43
)


20
(
5885.78
5873.62
5837.13
5776.32
5691.18
5581.7
5447.88
5289.71
5107.17
4900.26
4668.95
4413.25
4133.13
3828.58
3499.59
3146.12
1982.7
1954.99
1928.18
1902.22
)


20
(
6909.93
6894.61
6848.63
6772
6664.72
6526.77
6358.15
6158.85
5928.86
5668.17
5376.76
5054.61
4701.73
4318.07
3903.65
3458.42
1993
1958.09
1924.32
1891.62
)


20
(
7842.78
7824.53
7769.8
7678.57
7550.84
7386.6
7185.85
6948.58
6674.77
6364.42
6017.51
5634.02
5213.94
4757.26
4263.95
3734
1989.74
1948.2
1908
1869.08
)


20
(
8669.84
8648.96
8586.33
8481.93
8335.78
8147.85
7918.15
7646.65
7333.36
6978.26
6581.33
6142.56
5661.93
5139.43
4575.04
3968.74
1973.21
1925.67
1879.69
1835.16
)


20
(
9378.24
9355.06
9285.52
9169.62
9007.35
8798.7
8543.67
8242.25
7894.42
7500.18
7059.5
6572.38
6038.8
5458.74
4832.18
4159.11
1943.83
1891.06
1840.01
1790.57
)


20
(
9956.96
9931.85
9856.5
9730.92
9555.09
9329.02
9052.7
8726.11
8349.24
7922.09
7444.63
6916.85
6338.75
5710.28
5031.46
4302.24
1902.19
1845.02
1789.72
1736.16
)


20
(
10397
10370.3
10290.4
10157.1
9970.48
9730.56
9437.3
9090.71
8690.75
8237.44
7730.74
7170.64
6557.14
5890.2
5169.82
4395.98
1849.06
1788.4
1729.7
1672.86
)


20
(
10691.4
10663.6
10580.3
10441.5
10247
9997.05
9691.49
9330.36
8913.64
8441.32
7913.38
7329.81
6690.6
5995.72
5245.17
4438.92
1785.34
1722.13
1660.98
1601.76
)


20
(
10835.7
10807.2
10721.9
10579.6
10380.4
10124.3
9811.32
9441.36
9014.45
8530.58
7989.74
7391.91
6737.08
6025.24
5256.35
4430.42
1712.08
1647.32
1584.68
1524.02
)


20
(
10827.6
10798.9
10712.9
10569.4
10368.7
10110.5
9794.94
9421.99
8991.63
8503.86
7958.66
7356.01
6695.9
5978.32
5203.25
4370.67
1630.47
1565.2
1502.05
1440.9
)


20
(
10667.3
10638.8
10553.5
10411.2
10211.9
9955.76
9642.66
9272.62
8845.61
8361.63
7820.67
7222.72
6567.76
5855.77
5086.75
4260.67
1541.87
1477.1
1414.45
1353.77
)


20
(
10357.4
10329.6
10246.2
10107.3
9912.79
9662.68
9356.97
8995.67
8578.75
8106.21
7578.04
6994.22
6354.75
5659.6
4908.76
4102.22
1447.73
1384.49
1323.32
1264.08
)


20
(
9902.84
9876.16
9796.13
9662.75
9476.01
9235.9
8942.42
8595.56
8195.32
7741.68
7234.63
6674.17
6060.27
5392.93
4672.13
3897.86
1349.58
1288.87
1230.15
1173.28
)


20
(
9310.71
9285.57
9210.14
9084.41
8908.4
8682.08
8405.46
8078.53
7701.28
7273.71
6795.79
6267.52
5688.9
5059.9
4380.52
3650.74
1248.9
1191.68
1136.33
1082.73
)


20
(
8589.95
8566.74
8497.09
8381.02
8218.51
8009.56
7754.17
7452.33
7104.03
6709.27
6268.03
5780.31
5246.09
4665.37
4038.13
3364.37
1146.88
1094.05
1042.95
993.465
)


20
(
7750.82
7729.9
7667.15
7562.56
7416.12
7227.85
6997.72
6725.74
6411.89
6056.18
5658.59
5219.11
4737.75
4214.47
3649.29
3042.18
1044.06
996.464
950.418
905.826
)


20
(
6804.36
6786.07
6731.19
6639.73
6511.69
6347.05
6145.82
5907.99
5633.56
5322.51
4974.85
4590.56
4169.63
3712.07
3217.86
2686.98
939.774
898.154
857.891
818.898
)


20
(
5760.99
5745.61
5699.49
5622.61
5514.97
5376.58
5207.43
5007.51
4776.82
4515.36
4223.11
3900.08
3546.25
3161.62
2746.19
2299.94
831.24
796.254
762.409
729.632
)


20
(
4629.43
4617.21
4580.56
4519.47
4433.94
4323.98
4189.57
4030.71
3847.41
3639.65
3407.44
3150.76
2869.61
2563.99
2233.88
1879.29
712.265
684.466
657.572
631.528
)


20
(
3415.04
3406.17
3379.57
3335.23
3273.16
3193.35
3095.81
2980.52
2847.48
2696.7
2528.17
2341.88
2137.84
1916.03
1676.46
1419.12
572.147
551.971
532.453
513.551
)


20
(
2123.17
2117.79
2101.66
2074.76
2037.11
1988.7
1929.53
1859.59
1778.9
1687.44
1585.21
1472.22
1348.45
1213.92
1068.61
912.525
398.824
386.587
374.749
363.285
)


20
(
773.547
771.739
766.312
757.269
744.608
728.331
708.437
684.926
657.799
627.056
592.698
554.725
513.138
467.937
419.122
366.694
194.158
190.048
186.072
182.221
)


20
(
2397.27
2395.56
2390.42
2381.86
2369.86
2354.43
2335.56
2313.24
2287.46
2258.22
2225.49
2189.28
2149.56
2106.33
2059.56
2009.26
1843.56
1839.62
1835.8
1832.11
)


20
(
3583.06
3577.81
3562.04
3535.77
3498.97
3451.66
3393.82
3325.44
3246.52
3157.04
3057
2946.37
2825.15
2693.33
2550.89
2397.81
1893.86
1881.86
1870.25
1859.01
)


20
(
4728.79
4720.07
4693.93
4650.36
4589.36
4510.91
4415.02
4301.68
4170.87
4022.58
3856.81
3673.54
3472.75
3254.43
3018.57
2765.15
1930.97
1911.1
1891.88
1873.27
)


20
(
5816.78
5804.75
5768.64
5708.47
5624.22
5515.89
5383.48
5226.96
5046.34
4841.6
4612.73
4359.71
4082.53
3781.18
3455.64
3105.89
1954.69
1927.27
1900.74
1875.05
)


20
(
6830.21
6815.04
6769.55
6693.73
6587.57
6451.07
6284.23
6087.02
5859.45
5601.49
5313.14
4994.39
4645.21
4265.59
3855.52
3414.98
1964.96
1930.43
1897.01
1864.66
)


20
(
7753.37
7735.31
7681.15
7590.88
7464.49
7301.98
7103.35
6868.57
6597.64
6290.55
5947.29
5567.83
5152.18
4700.29
4212.18
3687.81
1961.9
1920.79
1881.02
1842.51
)


20
(
8571.92
8551.26
8489.29
8385.99
8241.38
8055.43
7828.14
7559.5
7249.51
6898.14
6505.38
6071.23
5595.66
5078.66
4520.21
3920.29
1945.77
1898.74
1853.24
1809.18
)


20
(
9273.14
9250.2
9181.4
9066.71
8906.15
8699.7
8447.35
8149.1
7804.94
7414.84
6978.81
6496.81
5968.85
5394.89
4774.93
4108.95
1917
1864.79
1814.27
1765.36
)


20
(
9846.11
9821.26
9746.7
9622.44
9448.47
9224.78
8951.36
8628.21
8255.31
7832.66
7360.23
6838.01
6265.99
5644.14
4972.47
4250.93
1876.17
1819.6
1764.87
1711.88
)


20
(
10281.9
10255.5
10176.4
10044.5
9859.88
9622.49
9332.32
8989.37
8593.63
8145.09
7643.73
7089.53
6482.49
5822.58
5109.79
4344.1
1824.01
1763.99
1705.91
1649.67
)


20
(
10573.7
10546.2
10463.8
10326.4
10134
9886.63
9584.3
9226.97
8814.64
8347.29
7824.91
7247.49
6615.01
5927.46
5184.81
4387.05
1761.44
1698.89
1638.39
1579.79
)


20
(
10717
10688.8
10604.4
10463.6
10266.5
10013.1
9703.38
9337.31
8914.9
8436.13
7900.99
7309.46
6661.53
5957.18
5196.4
4379.17
1689.47
1625.4
1563.42
1503.39
)


20
(
10709.5
10681.1
10596
10454.1
10255.4
9999.96
9687.73
9318.71
8892.89
8410.26
7870.8
7274.5
6621.35
5911.33
5144.43
4320.63
1609.31
1544.72
1482.24
1421.73
)


20
(
10551.5
10523.4
10438.9
10298.1
10100.9
9847.48
9537.68
9171.53
8749.03
8270.15
7734.89
7143.24
6495.18
5790.7
5029.78
4212.41
1522.26
1458.18
1396.18
1336.15
)


20
(
10245.5
10218
10135.6
9998.09
9805.61
9558.14
9255.66
8898.16
8485.64
8018.08
7495.47
6917.81
6285.07
5597.24
4854.32
4056.28
1429.77
1367.2
1306.68
1248.06
)


20
(
9796.45
9770.06
9690.87
9558.89
9374.12
9136.54
8846.15
8502.95
8106.93
7658.07
7156.36
6601.81
5994.38
5334.07
4620.87
3854.76
1333.34
1273.28
1215.17
1158.9
)


20
(
9211.24
9186.36
9111.72
8987.33
8813.17
8589.24
8315.53
7992.05
7618.77
7195.7
6722.82
6200.13
5627.6
5005.23
4333.01
3610.93
1234.4
1177.79
1123.03
1069.99
)


20
(
8498.71
8475.74
8406.83
8291.98
8131.18
7924.44
7671.74
7373.08
7028.45
6637.85
6201.26
5718.68
5190.09
4615.5
3994.87
3328.21
1134.1
1081.83
1031.27
982.301
)


20
(
7668.97
7648.27
7586.17
7482.68
7337.79
7151.5
6923.8
6654.68
6344.15
5992.18
5598.79
5163.94
4687.65
4169.89
3610.67
3009.96
1032.91
985.813
940.253
896.13
)


20
(
6732.88
6714.79
6660.49
6569.99
6443.3
6280.4
6081.29
5845.97
5574.42
5266.66
4922.66
4542.42
4125.93
3673.19
3184.19
2658.92
930.13
888.949
849.11
810.528
)


20
(
5700.76
5685.55
5639.91
5563.84
5457.34
5320.4
5153.03
4955.22
4726.97
4468.26
4179.1
3859.47
3509.37
3128.8
2717.75
2276.2
822.986
788.37
754.881
722.449
)


20
(
4581.23
4569.14
4532.87
4472.43
4387.8
4279
4146.01
3988.83
3807.46
3601.89
3372.12
3118.15
2839.96
2537.56
2210.94
1860.08
705.361
677.854
651.244
625.474
)


20
(
3379.67
3370.9
3344.58
3300.71
3239.29
3160.33
3063.81
2949.73
2818.1
2668.91
2502.15
2317.83
2115.93
1896.46
1659.42
1404.78
566.741
546.779
527.466
508.764
)


20
(
2101.52
2096.2
2080.23
2053.62
2016.37
1968.46
1909.91
1840.72
1760.87
1670.37
1569.22
1457.42
1334.96
1201.84
1058.06
903.622
395.333
383.225
371.512
360.168
)


20
(
766.273
764.484
759.114
750.166
737.638
721.531
701.846
678.582
651.739
621.319
587.322
549.748
508.597
463.871
415.569
363.692
192.97
188.903
184.968
181.158
)


20
(
2437.42
2435.68
2430.48
2421.81
2409.66
2394.04
2374.92
2352.32
2326.21
2296.59
2263.45
2226.77
2186.54
2142.75
2095.39
2044.44
1876.6
1872.6
1868.74
1865
)


20
(
3639.18
3633.86
3617.89
3591.27
3553.99
3506.06
3447.46
3378.18
3298.22
3207.57
3106.21
2994.13
2871.32
2737.76
2593.44
2438.34
1927.76
1915.6
1903.84
1892.45
)


20
(
4800.25
4791.43
4764.94
4720.8
4658.99
4579.51
4482.35
4367.51
4234.97
4084.73
3916.77
3731.07
3527.63
3306.43
3067.44
2810.67
1965.46
1945.33
1925.85
1906.99
)


20
(
5902.74
5890.54
5853.96
5792.99
5707.63
5597.87
5463.7
5305.11
5122.1
4914.65
4682.75
4426.38
4145.53
3840.19
3510.34
3155.95
1989.5
1961.72
1934.84
1908.81
)


20
(
6929.57
6914.2
6868.11
6791.28
6683.72
6545.41
6376.35
6176.54
5945.95
5684.57
5392.4
5069.42
4715.61
4330.96
3915.45
3469.07
1999.83
1964.83
1930.97
1898.19
)


20
(
7864.84
7846.55
7791.67
7700.2
7572.14
7407.47
7206.2
6968.31
6693.79
6382.63
6034.81
5650.33
5229.15
4771.28
4276.68
3745.35
1996.55
1954.89
1914.59
1875.57
)


20
(
8694.03
8673.09
8610.3
8505.63
8359.09
8170.68
7940.38
7668.17
7354.07
6998.04
6600.07
6160.16
5678.28
5154.41
4588.55
3980.67
1979.93
1932.27
1886.17
1841.52
)


20
(
9404.23
9380.99
9311.27
9195.06
9032.37
8823.17
8567.48
8265.27
7916.54
7521.27
7079.44
6591.05
6056.08
5474.5
4846.31
4171.48
1950.42
1897.51
1846.33
1796.76
)


20
(
9984.39
9959.21
9883.67
9757.76
9581.47
9354.81
9077.77
8750.33
8372.48
7944.21
7465.51
6936.35
6356.74
5726.64
5046.04
4314.92
1908.61
1851.29
1795.84
1742.14
)


20
(
10425.5
10398.7
10318.6
10184.9
9997.86
9757.31
9463.29
9115.79
8714.8
8260.3
7752.28
7190.72
6575.61
5906.94
5184.68
4408.82
1855.25
1794.42
1735.58
1678.59
)


20
(
10720.6
10692.7
10609.2
10470
10275
10024.4
9718.05
9355.97
8938.17
8464.61
7935.3
7350.2
6709.32
6012.63
5260.12
4451.76
1791.26
1727.88
1666.57
1607.2
)


20
(
10865.1
10836.6
10751
10608.4
10408.7
10151.9
9838.07
9467.14
9039.12
8553.99
8011.74
7412.35
6755.81
6042.1
5271.21
4443.13
1717.68
1652.76
1589.96
1529.13
)


20
(
10856.9
10828.1
10741.8
10598
10396.7
10137.9
9821.51
9447.59
9016.11
8527.07
7980.44
7376.22
6714.39
5994.94
5217.84
4383.09
1635.73
1570.29
1506.98
1445.67
)


20
(
10696
10667.5
10581.9
10439.2
10239.4
9982.62
9668.7
9297.69
8869.57
8384.33
7841.95
7242.44
6585.77
5871.92
5100.89
4272.66
1546.75
1481.82
1419
1358.17
)


20
(
10385.1
10357.3
10273.7
10134.4
9939.37
9688.61
9382.11
9019.86
8601.86
8128.08
7598.53
7013.19
6372.04
5675.08
4922.28
4113.63
1452.21
1388.81
1327.48
1268.08
)


20
(
9929.23
9902.49
9822.25
9688.52
9501.29
9260.55
8966.31
8618.54
8217.26
7762.43
7254.06
6692.13
6076.63
5407.55
4684.86
3908.57
1353.63
1292.77
1233.9
1176.88
)


20
(
9335.39
9310.18
9234.56
9108.5
8932.03
8705.12
8427.78
8100
7721.76
7293.07
6813.9
6284.26
5704.12
5073.48
4392.33
3660.64
1252.52
1195.16
1139.67
1085.92
)


20
(
8612.59
8589.32
8519.49
8403.12
8240.18
8030.69
7774.63
7472
7122.8
6727
6284.61
5795.61
5260
4677.76
4048.89
3373.37
1150.08
1097.12
1045.88
996.267
)


20
(
7771.14
7750.17
7687.25
7582.38
7435.57
7246.8
7016.07
6743.37
6428.71
6072.07
5673.44
5232.82
4750.19
4225.55
3658.89
3050.2
1046.86
999.137
952.971
908.262
)


20
(
6822.1
6803.76
6748.74
6657.04
6528.66
6363.6
6161.84
5923.39
5648.24
5336.38
4987.81
4602.52
4180.49
3721.73
3226.23
2693.97
942.196
900.467
860.098
821.003
)


20
(
5775.94
5760.53
5714.28
5637.2
5529.28
5390.53
5220.93
5020.49
4789.2
4527.05
4234.05
3910.17
3555.42
3169.79
2753.27
2305.85
833.315
798.238
764.304
731.441
)


20
(
4641.4
4629.15
4592.4
4531.15
4445.4
4335.15
4200.39
4041.12
3857.34
3649.04
3416.22
3158.87
2876.98
2570.56
2239.6
1884.08
714.006
686.134
659.17
633.057
)


20
(
3423.83
3414.94
3388.27
3343.82
3281.58
3201.57
3103.76
2988.17
2854.79
2703.62
2534.65
2347.87
2143.3
1920.91
1680.71
1422.7
573.514
553.286
533.717
514.765
)


20
(
2128.56
2123.16
2106.99
2080.02
2042.27
1993.73
1934.41
1864.29
1783.39
1691.69
1589.19
1475.9
1351.82
1216.93
1071.24