/*--------------------------------*- C++ -*----------------------------------*\
| =========                 |                                                 |
| \\      /  F ield         | OpenFOAM: The Open Source CFD Toolbox           |
|  \\    /   O peration     | Version:  2212                                  |
|   \\  /    A nd           | Website:  www.openfoam.com                      |
|    \\/     M anipulation  |                                                 |
\*---------------------------------------------------------------------------*/
FoamFile
{
    version     2.0;
    format      ascii;
    arch        "LSB;label=32;scalar=64";
    class       volTensorField;
    location    "29/fluidRegion";
    object      Kd;
}
// * * * * * * * * * * * * * * * * * * * * * * * * * * * * * * * * * * * * * //

dimensions      [1 -3 -1 0 0 0 0];

internalField   nonuniform List<tensor> 
350
(
(84.7318 0 0 0 84.7318 0 0 0 84.7318)
(84.7318 0 0 0 84.7318 0 0 0 84.7318)
(84.732 0 0 0 84.732 0 0 0 84.732)
(84.7322 0 0 0 84.7322 0 0 0 84.7322)
(84.7324 0 0 0 84.7324 0 0 0 84.7324)
(84.7327 0 0 0 84.7327 0 0 0 84.7327)
(84.733 0 0 0 84.733 0 0 0 84.733)
(84.7333 0 0 0 84.7333 0 0 0 84.7333)
(84.7334 0 0 0 84.7334 0 0 0 84.7334)
(84.7336 0 0 0 84.7336 0 0 0 84.7336)
(84.7336 0 0 0 84.7336 0 0 0 84.7336)
(84.7335 0 0 0 84.7335 0 0 0 84.7335)
(84.7334 0 0 0 84.7334 0 0 0 84.7334)
(84.7331 0 0 0 84.7331 0 0 0 84.7331)
(84.7328 0 0 0 84.7328 0 0 0 84.7328)
(84.7324 0 0 0 84.7324 0 0 0 84.7324)
(84.732 0 0 0 84.732 0 0 0 84.732)
(84.7317 0 0 0 84.7317 0 0 0 84.7317)
(84.7314 0 0 0 84.7314 0 0 0 84.7314)
(84.7313 0 0 0 84.7313 0 0 0 84.7313)
(84.7313 0 0 0 84.7313 0 0 0 84.7313)
(84.7314 0 0 0 84.7314 0 0 0 84.7314)
(84.7316 0 0 0 84.7316 0 0 0 84.7316)
(84.732 0 0 0 84.732 0 0 0 84.732)
(84.8689 0 0 0 84.8689 0 0 0 84.8689)
(84.7318 0 0 0 84.7318 0 0 0 84.7318)
(84.7318 0 0 0 84.7318 0 0 0 84.7318)
(84.732 0 0 0 84.732 0 0 0 84.732)
(84.7322 0 0 0 84.7322 0 0 0 84.7322)
(84.7324 0 0 0 84.7324 0 0 0 84.7324)
(84.7327 0 0 0 84.7327 0 0 0 84.7327)
(84.733 0 0 0 84.733 0 0 0 84.733)
(84.7333 0 0 0 84.7333 0 0 0 84.7333)
(84.7334 0 0 0 84.7334 0 0 0 84.7334)
(84.7336 0 0 0 84.7336 0 0 0 84.7336)
(84.7336 0 0 0 84.7336 0 0 0 84.7336)
(84.7335 0 0 0 84.7335 0 0 0 84.7335)
(84.7334 0 0 0 84.7334 0 0 0 84.7334)
(84.7331 0 0 0 84.7331 0 0 0 84.7331)
(84.7328 0 0 0 84.7328 0 0 0 84.7328)
(84.7324 0 0 0 84.7324 0 0 0 84.7324)
(84.732 0 0 0 84.732 0 0 0 84.732)
(84.7317 0 0 0 84.7317 0 0 0 84.7317)
(84.7314 0 0 0 84.7314 0 0 0 84.7314)
(84.7313 0 0 0 84.7313 0 0 0 84.7313)
(84.7313 0 0 0 84.7313 0 0 0 84.7313)
(84.7314 0 0 0 84.7314 0 0 0 84.7314)
(84.7316 0 0 0 84.7316 0 0 0 84.7316)
(84.732 0 0 0 84.732 0 0 0 84.732)
(84.8689 0 0 0 84.8689 0 0 0 84.8689)
(679.395 0 0 0 679.395 0 0 0 679.395)
(678.793 0 0 0 678.793 0 0 0 678.793)
(678.808 0 0 0 678.808 0 0 0 678.808)
(678.813 0 0 0 678.813 0 0 0 678.813)
(678.806 0 0 0 678.806 0 0 0 678.806)
(678.787 0 0 0 678.787 0 0 0 678.787)
(678.753 0 0 0 678.753 0 0 0 678.753)
(678.704 0 0 0 678.704 0 0 0 678.704)
(678.637 0 0 0 678.637 0 0 0 678.637)
(678.551 0 0 0 678.551 0 0 0 678.551)
(678.444 0 0 0 678.444 0 0 0 678.444)
(678.317 0 0 0 678.317 0 0 0 678.317)
(678.169 0 0 0 678.169 0 0 0 678.169)
(678.001 0 0 0 678.001 0 0 0 678.001)
(677.809 0 0 0 677.809 0 0 0 677.809)
(677.584 0 0 0 677.584 0 0 0 677.584)
(677.309 0 0 0 677.309 0 0 0 677.309)
(676.97 0 0 0 676.97 0 0 0 676.97)
(676.564 0 0 0 676.564 0 0 0 676.564)
(676.148 0 0 0 676.148 0 0 0 676.148)
(675.906 0 0 0 675.906 0 0 0 675.906)
(676.381 0 0 0 676.381 0 0 0 676.381)
(678.834 0 0 0 678.834 0 0 0 678.834)
(685.416 0 0 0 685.416 0 0 0 685.416)
(689.267 0 0 0 689.267 0 0 0 689.267)
(674.954 0 0 0 674.954 0 0 0 674.954)
(674.28 0 0 0 674.28 0 0 0 674.28)
(674.254 0 0 0 674.254 0 0 0 674.254)
(674.218 0 0 0 674.218 0 0 0 674.218)
(674.173 0 0 0 674.173 0 0 0 674.173)
(674.118 0 0 0 674.118 0 0 0 674.118)
(674.052 0 0 0 674.052 0 0 0 674.052)
(673.972 0 0 0 673.972 0 0 0 673.972)
(673.877 0 0 0 673.877 0 0 0 673.877)
(673.766 0 0 0 673.766 0 0 0 673.766)
(673.64 0 0 0 673.64 0 0 0 673.64)
(673.503 0 0 0 673.503 0 0 0 673.503)
(673.36 0 0 0 673.36 0 0 0 673.36)
(673.221 0 0 0 673.221 0 0 0 673.221)
(673.092 0 0 0 673.092 0 0 0 673.092)
(672.971 0 0 0 672.971 0 0 0 672.971)
(672.849 0 0 0 672.849 0 0 0 672.849)
(672.709 0 0 0 672.709 0 0 0 672.709)
(672.552 0 0 0 672.552 0 0 0 672.552)
(672.438 0 0 0 672.438 0 0 0 672.438)
(672.568 0 0 0 672.568 0 0 0 672.568)
(673.512 0 0 0 673.512 0 0 0 673.512)
(676.586 0 0 0 676.586 0 0 0 676.586)
(683.989 0 0 0 683.989 0 0 0 683.989)
(688.805 0 0 0 688.805 0 0 0 688.805)
(680.138 0 0 0 680.138 0 0 0 680.138)
(679.533 0 0 0 679.533 0 0 0 679.533)
(679.553 0 0 0 679.553 0 0 0 679.553)
(679.561 0 0 0 679.561 0 0 0 679.561)
(679.557 0 0 0 679.557 0 0 0 679.557)
(679.539 0 0 0 679.539 0 0 0 679.539)
(679.507 0 0 0 679.507 0 0 0 679.507)
(679.459 0 0 0 679.459 0 0 0 679.459)
(679.393 0 0 0 679.393 0 0 0 679.393)
(679.307 0 0 0 679.307 0 0 0 679.307)
(679.199 0 0 0 679.199 0 0 0 679.199)
(679.068 0 0 0 679.068 0 0 0 679.068)
(678.914 0 0 0 678.914 0 0 0 678.914)
(678.735 0 0 0 678.735 0 0 0 678.735)
(678.526 0 0 0 678.526 0 0 0 678.526)
(678.277 0 0 0 678.277 0 0 0 678.277)
(677.971 0 0 0 677.971 0 0 0 677.971)
(677.592 0 0 0 677.592 0 0 0 677.592)
(677.136 0 0 0 677.136 0 0 0 677.136)
(676.661 0 0 0 676.661 0 0 0 676.661)
(676.348 0 0 0 676.348 0 0 0 676.348)
(676.733 0 0 0 676.733 0 0 0 676.733)
(679.073 0 0 0 679.073 0 0 0 679.073)
(685.524 0 0 0 685.524 0 0 0 685.524)
(689.283 0 0 0 689.283 0 0 0 689.283)
(675.948 0 0 0 675.948 0 0 0 675.948)
(675.294 0 0 0 675.294 0 0 0 675.294)
(675.279 0 0 0 675.279 0 0 0 675.279)
(675.254 0 0 0 675.254 0 0 0 675.254)
(675.22 0 0 0 675.22 0 0 0 675.22)
(675.175 0 0 0 675.175 0 0 0 675.175)
(675.118 0 0 0 675.118 0 0 0 675.118)
(675.047 0 0 0 675.047 0 0 0 675.047)
(674.96 0 0 0 674.96 0 0 0 674.96)
(674.857 0 0 0 674.857 0 0 0 674.857)
(674.737 0 0 0 674.737 0 0 0 674.737)
(674.603 0 0 0 674.603 0 0 0 674.603)
(674.461 0 0 0 674.461 0 0 0 674.461)
(674.317 0 0 0 674.317 0 0 0 674.317)
(674.176 0 0 0 674.176 0 0 0 674.176)
(674.033 0 0 0 674.033 0 0 0 674.033)
(673.877 0 0 0 673.877 0 0 0 673.877)
(673.694 0 0 0 673.694 0 0 0 673.694)
(673.48 0 0 0 673.48 0 0 0 673.48)
(673.299 0 0 0 673.299 0 0 0 673.299)
(673.345 0 0 0 673.345 0 0 0 673.345)
(674.184 0 0 0 674.184 0 0 0 674.184)
(677.117 0 0 0 677.117 0 0 0 677.117)
(684.333 0 0 0 684.333 0 0 0 684.333)
(688.919 0 0 0 688.919 0 0 0 688.919)
(675.948 0 0 0 675.948 0 0 0 675.948)
(675.294 0 0 0 675.294 0 0 0 675.294)
(675.279 0 0 0 675.279 0 0 0 675.279)
(675.254 0 0 0 675.254 0 0 0 675.254)
(675.22 0 0 0 675.22 0 0 0 675.22)
(675.175 0 0 0 675.175 0 0 0 675.175)
(675.118 0 0 0 675.118 0 0 0 675.118)
(675.047 0 0 0 675.047 0 0 0 675.047)
(674.96 0 0 0 674.96 0 0 0 674.96)
(674.857 0 0 0 674.857 0 0 0 674.857)
(674.737 0 0 0 674.737 0 0 0 674.737)
(674.603 0 0 0 674.603 0 0 0 674.603)
(674.461 0 0 0 674.461 0 0 0 674.461)
(674.317 0 0 0 674.317 0 0 0 674.317)
(674.176 0 0 0 674.176 0 0 0 674.176)
(674.033 0 0 0 674.033 0 0 0 674.033)
(673.877 0 0 0 673.877 0 0 0 673.877)
(673.694 0 0 0 673.694 0 0 0 673.694)
(673.48 0 0 0 673.48 0 0 0 673.48)
(673.299 0 0 0 673.299 0 0 0 673.299)
(673.345 0 0 0 673.345 0 0 0 673.345)
(674.184 0 0 0 674.184 0 0 0 674.184)
(677.117 0 0 0 677.117 0 0 0 677.117)
(684.333 0 0 0 684.333 0 0 0 684.333)
(688.919 0 0 0 688.919 0 0 0 688.919)
(680.138 0 0 0 680.138 0 0 0 680.138)
(679.533 0 0 0 679.533 0 0 0 679.533)
(679.553 0 0 0 679.553 0 0 0 679.553)
(679.561 0 0 0 679.561 0 0 0 679.561)
(679.557 0 0 0 679.557 0 0 0 679.557)
(679.539 0 0 0 679.539 0 0 0 679.539)
(679.507 0 0 0 679.507 0 0 0 679.507)
(679.459 0 0 0 679.459 0 0 0 679.459)
(679.393 0 0 0 679.393 0 0 0 679.393)
(679.306 0 0 0 679.306 0 0 0 679.306)
(679.198 0 0 0 679.198 0 0 0 679.198)
(679.068 0 0 0 679.068 0 0 0 679.068)
(678.913 0 0 0 678.913 0 0 0 678.913)
(678.735 0 0 0 678.735 0 0 0 678.735)
(678.526 0 0 0 678.526 0 0 0 678.526)
(678.277 0 0 0 678.277 0 0 0 678.277)
(677.97 0 0 0 677.97 0 0 0 677.97)
(677.591 0 0 0 677.591 0 0 0 677.591)
(677.135 0 0 0 677.135 0 0 0 677.135)
(676.66 0 0 0 676.66 0 0 0 676.66)
(676.347 0 0 0 676.347 0 0 0 676.347)
(676.732 0 0 0 676.732 0 0 0 676.732)
(679.071 0 0 0 679.071 0 0 0 679.071)
(685.522 0 0 0 685.522 0 0 0 685.522)
(689.282 0 0 0 689.282 0 0 0 689.282)
(674.954 0 0 0 674.954 0 0 0 674.954)
(674.28 0 0 0 674.28 0 0 0 674.28)
(674.254 0 0 0 674.254 0 0 0 674.254)
(674.218 0 0 0 674.218 0 0 0 674.218)
(674.173 0 0 0 674.173 0 0 0 674.173)
(674.118 0 0 0 674.118 0 0 0 674.118)
(674.052 0 0 0 674.052 0 0 0 674.052)
(673.972 0 0 0 673.972 0 0 0 673.972)
(673.877 0 0 0 673.877 0 0 0 673.877)
(673.766 0 0 0 673.766 0 0 0 673.766)
(673.64 0 0 0 673.64 0 0 0 673.64)
(673.503 0 0 0 673.503 0 0 0 673.503)
(673.36 0 0 0 673.36 0 0 0 673.36)
(673.221 0 0 0 673.221 0 0 0 673.221)
(673.092 0 0 0 673.092 0 0 0 673.092)
(672.971 0 0 0 672.971 0 0 0 672.971)
(672.849 0 0 0 672.849 0 0 0 672.849)
(672.709 0 0 0 672.709 0 0 0 672.709)
(672.552 0 0 0 672.552 0 0 0 672.552)
(672.438 0 0 0 672.438 0 0 0 672.438)
(672.568 0 0 0 672.568 0 0 0 672.568)
(673.512 0 0 0 673.512 0 0 0 673.512)
(676.586 0 0 0 676.586 0 0 0 676.586)
(683.989 0 0 0 683.989 0 0 0 683.989)
(688.805 0 0 0 688.805 0 0 0 688.805)
(679.395 0 0 0 679.395 0 0 0 679.395)
(678.793 0 0 0 678.793 0 0 0 678.793)
(678.808 0 0 0 678.808 0 0 0 678.808)
(678.813 0 0 0 678.813 0 0 0 678.813)
(678.806 0 0 0 678.806 0 0 0 678.806)
(678.787 0 0 0 678.787 0 0 0 678.787)
(678.753 0 0 0 678.753 0 0 0 678.753)
(678.704 0 0 0 678.704 0 0 0 678.704)
(678.637 0 0 0 678.637 0 0 0 678.637)
(678.551 0 0 0 678.551 0 0 0 678.551)
(678.444 0 0 0 678.444 0 0 0 678.444)
(678.317 0 0 0 678.317 0 0 0 678.317)
(678.169 0 0 0 678.169 0 0 0 678.169)
(678.001 0 0 0 678.001 0 0 0 678.001)
(677.809 0 0 0 677.809 0 0 0 677.809)
(677.584 0 0 0 677.584 0 0 0 677.584)
(677.31 0 0 0 677.31 0 0 0 677.31)
(676.97 0 0 0 676.97 0 0 0 676.97)
(676.564 0 0 0 676.564 0 0 0 676.564)
(676.148 0 0 0 676.148 0 0 0 676.148)
(675.907 0 0 0 675.907 0 0 0 675.907)
(676.382 0 0 0 676.382 0 0 0 676.382)
(678.834 0 0 0 678.834 0 0 0 678.834)
(685.416 0 0 0 685.416 0 0 0 685.416)
(689.267 0 0 0 689.267 0 0 0 689.267)
(675.948 0 0 0 675.948 0 0 0 675.948)
(675.294 0 0 0 675.294 0 0 0 675.294)
(675.279 0 0 0 675.279 0 0 0 675.279)
(675.254 0 0 0 675.254 0 0 0 675.254)
(675.22 0 0 0 675.22 0 0 0 675.22)
(675.175 0 0 0 675.175 0 0 0 675.175)
(675.118 0 0 0 675.118 0 0 0 675.118)
(675.047 0 0 0 675.047 0 0 0 675.047)
(674.96 0 0 0 674.96 0 0 0 674.96)
(674.857 0 0 0 674.857 0 0 0 674.857)
(674.737 0 0 0 674.737 0 0 0 674.737)
(674.603 0 0 0 674.603 0 0 0 674.603)
(674.461 0 0 0 674.461 0 0 0 674.461)
(674.317 0 0 0 674.317 0 0 0 674.317)
(674.176 0 0 0 674.176 0 0 0 674.176)
(674.033 0 0 0 674.033 0 0 0 674.033)
(673.877 0 0 0 673.877 0 0 0 673.877)
(673.694 0 0 0 673.694 0 0 0 673.694)
(673.48 0 0 0 673.48 0 0 0 673.48)
(673.299 0 0 0 673.299 0 0 0 673.299)
(673.345 0 0 0 673.345 0 0 0 673.345)
(674.184 0 0 0 674.184 0 0 0 674.184)
(677.117 0 0 0 677.117 0 0 0 677.117)
(684.333 0 0 0 684.333 0 0 0 684.333)
(688.919 0 0 0 688.919 0 0 0 688.919)
(680.138 0 0 0 680.138 0 0 0 680.138)
(679.533 0 0 0 679.533 0 0 0 679.533)
(679.553 0 0 0 679.553 0 0 0 679.553)
(679.561 0 0 0 679.561 0 0 0 679.561)
(679.557 0 0 0 679.557 0 0 0 679.557)
(679.539 0 0 0 679.539 0 0 0 679.539)
(679.507 0 0 0 679.507 0 0 0 679.507)
(679.459 0 0 0 679.459 0 0 0 679.459)
(679.393 0 0 0 679.393 0 0 0 679.393)
(679.307 0 0 0 679.307 0 0 0 679.307)
(679.198 0 0 0 679.198 0 0 0 679.198)
(679.068 0 0 0 679.068 0 0 0 679.068)
(678.914 0 0 0 678.914 0 0 0 678.914)
(678.735 0 0 0 678.735 0 0 0 678.735)
(678.526 0 0 0 678.526 0 0 0 678.526)
(678.277 0 0 0 678.277 0 0 0 678.277)
(677.971 0 0 0 677.971 0 0 0 677.971)
(677.591 0 0 0 677.591 0 0 0 677.591)
(677.136 0 0 0 677.136 0 0 0 677.136)
(676.661 0 0 0 676.661 0 0 0 676.661)
(676.348 0 0 0 676.348 0 0 0 676.348)
(676.733 0 0 0 676.733 0 0 0 676.733)
(679.073 0 0 0 679.073 0 0 0 679.073)
(685.524 0 0 0 685.524 0 0 0 685.524)
(689.283 0 0 0 689.283 0 0 0 689.283)
(680.138 0 0 0 680.138 0 0 0 680.138)
(679.533 0 0 0 679.533 0 0 0 679.533)
(679.553 0 0 0 679.553 0 0 0 679.553)
(679.561 0 0 0 679.561 0 0 0 679.561)
(679.557 0 0 0 679.557 0 0 0 679.557)
(679.539 0 0 0 679.539 0 0 0 679.539)
(679.507 0 0 0 679.507 0 0 0 679.507)
(679.459 0 0 0 679.459 0 0 0 679.459)
(679.393 0 0 0 679.393 0 0 0 679.393)
(679.306 0 0 0 679.306 0 0 0 679.306)
(679.198 0 0 0 679.198 0 0 0 679.198)
(679.068 0 0 0 679.068 0 0 0 679.068)
(678.913 0 0 0 678.913 0 0 0 678.913)
(678.735 0 0 0 678.735 0 0 0 678.735)
(678.526 0 0 0 678.526 0 0 0 678.526)
(678.277 0 0 0 678.277 0 0 0 678.277)
(677.97 0 0 0 677.97 0 0 0 677.97)
(677.591 0 0 0 677.591 0 0 0 677.591)
(677.135 0 0 0 677.135 0 0 0 677.135)
(676.66 0 0 0 676.66 0 0 0 676.66)
(676.347 0 0 0 676.347 0 0 0 676.347)
(676.732 0 0 0 676.732 0 0 0 676.732)
(679.071 0 0 0 679.071 0 0 0 679.071)
(685.522 0 0 0 685.522 0 0 0 685.522)
(689.282 0 0 0 689.282 0 0 0 689.282)
(675.948 0 0 0 675.948 0 0 0 675.948)
(675.294 0 0 0 675.294 0 0 0 675.294)
(675.279 0 0 0 675.279 0 0 0 675.279)
(675.254 0 0 0 675.254 0 0 0 675.254)
(675.22 0 0 0 675.22 0 0 0 675.22)
(675.175 0 0 0 675.175 0 0 0 675.175)
(675.118 0 0 0 675.118 0 0 0 675.118)
(675.047 0 0 0 675.047 0 0 0 675.047)
(674.96 0 0 0 674.96 0 0 0 674.96)
(674.857 0 0 0 674.857 0 0 0 674.857)
(674.737 0 0 0 674.737 0 0 0 674.737)
(674.603 0 0 0 674.603 0 0 0 674.603)
(674.461 0 0 0 674.461 0 0 0 674.461)
(674.317 0 0 0 674.317 0 0 0 674.317)
(674.176 0 0 0 674.176 0 0 0 674.176)
(674.033 0 0 0 674.033 0 0 0 674.033)
(673.877 0 0 0 673.877 0 0 0 673.877)
(673.694 0 0 0 673.694 0 0 0 673.694)
(673.48 0 0 0 673.48 0 0 0 673.48)
(673.299 0 0 0 673.299 0 0 0 673.299)
(673.345 0 0 0 673.345 0 0 0 673.345)
(674.184 0 0 0 674.184 0 0 0 674.184)
(677.117 0 0 0 677.117 0 0 0 677.117)
(684.333 0 0 0 684.333 0 0 0 684.333)
(688.92 0 0 0 688.92 0 0 0 688.92)
)
;

boundaryField
{
    outletCentralUnloaded
    {
        type            zeroGradient;
    }
    inletCentralUnloaded
    {
        type            zeroGradient;
    }
    outletFuelElement
    {
        type            zeroGradient;
    }
    inletFuelElement
    {
        type            zeroGradient;
    }
    defaultFaces
    {
        type            zeroGradient;
    }
    baffle_master
    {
        type            zeroGradient;
    }
    baffle_slave
    {
        type            zeroGradient;
    }
}


// ************************************************************************* //
