/*--------------------------------*- C++ -*----------------------------------*\
| =========                 |                                                 |
| \\      /  F ield         | OpenFOAM: The Open Source CFD Toolbox           |
|  \\    /   O peration     | Version:  2212                                  |
|   \\  /    A nd           | Website:  www.openfoam.com                      |
|    \\/     M anipulation  |                                                 |
\*---------------------------------------------------------------------------*/
FoamFile
{
    version     2.0;
    format      ascii;
    arch        "LSB;label=32;scalar=64";
    class       volScalarField;
    location    "29/fluidRegion";
    object      p_rgh;
}
// * * * * * * * * * * * * * * * * * * * * * * * * * * * * * * * * * * * * * //

dimensions      [1 -1 -2 0 0 0 0];

internalField   nonuniform List<scalar> 
350
(
3.44743e+06
3.44772e+06
3.44802e+06
3.44832e+06
3.44861e+06
3.44891e+06
3.4492e+06
3.4495e+06
3.44979e+06
3.45009e+06
3.45038e+06
3.45068e+06
3.45097e+06
3.45127e+06
3.45156e+06
3.45186e+06
3.45215e+06
3.45245e+06
3.45275e+06
3.45304e+06
3.45334e+06
3.45363e+06
3.45393e+06
3.45422e+06
3.45451e+06
3.44743e+06
3.44772e+06
3.44802e+06
3.44832e+06
3.44861e+06
3.44891e+06
3.4492e+06
3.4495e+06
3.44979e+06
3.45009e+06
3.45038e+06
3.45068e+06
3.45097e+06
3.45127e+06
3.45156e+06
3.45186e+06
3.45215e+06
3.45245e+06
3.45275e+06
3.45304e+06
3.45334e+06
3.45363e+06
3.45393e+06
3.45422e+06
3.45451e+06
3.47271e+06
3.52241e+06
3.57162e+06
3.62002e+06
3.66732e+06
3.71322e+06
3.75748e+06
3.79984e+06
3.84011e+06
3.87808e+06
3.9136e+06
3.94653e+06
3.97676e+06
4.00419e+06
4.0288e+06
4.05056e+06
4.06953e+06
4.08579e+06
4.09947e+06
4.11074e+06
4.1198e+06
4.12684e+06
4.13213e+06
4.13593e+06
4.13859e+06
3.47271e+06
3.52241e+06
3.57162e+06
3.62002e+06
3.66732e+06
3.71322e+06
3.75748e+06
3.79984e+06
3.84011e+06
3.87808e+06
3.9136e+06
3.94653e+06
3.97676e+06
4.00419e+06
4.0288e+06
4.05057e+06
4.06953e+06
4.08579e+06
4.09947e+06
4.11074e+06
4.1198e+06
4.12684e+06
4.13213e+06
4.13593e+06
4.13859e+06
3.47271e+06
3.52241e+06
3.57162e+06
3.62002e+06
3.66732e+06
3.71322e+06
3.75748e+06
3.79984e+06
3.84011e+06
3.87808e+06
3.9136e+06
3.94653e+06
3.97676e+06
4.00419e+06
4.0288e+06
4.05056e+06
4.06953e+06
4.08579e+06
4.09947e+06
4.11074e+06
4.1198e+06
4.12684e+06
4.13213e+06
4.13593e+06
4.13859e+06
3.47271e+06
3.52241e+06
3.57162e+06
3.62002e+06
3.66732e+06
3.71322e+06
3.75748e+06
3.79984e+06
3.84011e+06
3.87808e+06
3.9136e+06
3.94653e+06
3.97676e+06
4.00419e+06
4.0288e+06
4.05057e+06
4.06953e+06
4.08579e+06
4.09947e+06
4.11074e+06
4.1198e+06
4.12684e+06
4.13213e+06
4.13593e+06
4.13859e+06
3.47271e+06
3.52241e+06
3.57162e+06
3.62002e+06
3.66732e+06
3.71322e+06
3.75748e+06
3.79984e+06
3.84011e+06
3.87808e+06
3.9136e+06
3.94653e+06
3.97676e+06
4.00419e+06
4.0288e+06
4.05057e+06
4.06953e+06
4.08579e+06
4.09947e+06
4.11074e+06
4.1198e+06
4.12684e+06
4.13213e+06
4.13593e+06
4.13859e+06
3.47271e+06
3.52241e+06
3.57162e+06
3.62002e+06
3.66732e+06
3.71322e+06
3.75748e+06
3.79984e+06
3.84011e+06
3.87808e+06
3.9136e+06
3.94653e+06
3.97676e+06
4.00419e+06
4.0288e+06
4.05056e+06
4.06953e+06
4.08579e+06
4.09947e+06
4.11074e+06
4.1198e+06
4.12684e+06
4.13213e+06
4.13593e+06
4.13859e+06
3.47271e+06
3.52241e+06
3.57162e+06
3.62002e+06
3.66732e+06
3.71322e+06
3.75748e+06
3.79984e+06
3.84011e+06
3.87808e+06
3.9136e+06
3.94653e+06
3.97676e+06
4.00419e+06
4.0288e+06
4.05057e+06
4.06953e+06
4.08579e+06
4.09947e+06
4.11074e+06
4.1198e+06
4.12684e+06
4.13213e+06
4.13593e+06
4.13859e+06
3.47271e+06
3.52241e+06
3.57162e+06
3.62002e+06
3.66732e+06
3.71322e+06
3.75748e+06
3.79984e+06
3.84011e+06
3.87808e+06
3.9136e+06
3.94653e+06
3.97676e+06
4.00419e+06
4.0288e+06
4.05056e+06
4.06953e+06
4.08579e+06
4.09947e+06
4.11074e+06
4.1198e+06
4.12684e+06
4.13213e+06
4.13593e+06
4.13859e+06
3.47271e+06
3.52241e+06
3.57162e+06
3.62002e+06
3.66732e+06
3.71322e+06
3.75748e+06
3.79984e+06
3.84011e+06
3.87808e+06
3.9136e+06
3.94653e+06
3.97676e+06
4.00419e+06
4.0288e+06
4.05057e+06
4.06953e+06
4.08579e+06
4.09947e+06
4.11074e+06
4.1198e+06
4.12684e+06
4.13213e+06
4.13593e+06
4.13859e+06
3.47271e+06
3.52241e+06
3.57162e+06
3.62002e+06
3.66732e+06
3.71322e+06
3.75748e+06
3.79984e+06
3.84011e+06
3.87808e+06
3.9136e+06
3.94653e+06
3.97676e+06
4.00419e+06
4.0288e+06
4.05056e+06
4.06953e+06
4.08579e+06
4.09947e+06
4.11074e+06
4.1198e+06
4.12684e+06
4.13213e+06
4.13593e+06
4.13859e+06
3.47271e+06
3.52241e+06
3.57162e+06
3.62002e+06
3.66732e+06
3.71322e+06
3.75748e+06
3.79984e+06
3.84011e+06
3.87808e+06
3.9136e+06
3.94653e+06
3.97676e+06
4.00419e+06
4.0288e+06
4.05056e+06
4.06953e+06
4.08579e+06
4.09947e+06
4.11074e+06
4.1198e+06
4.12684e+06
4.13213e+06
4.13593e+06
4.13859e+06
3.47271e+06
3.52241e+06
3.57162e+06
3.62002e+06
3.66732e+06
3.71322e+06
3.75748e+06
3.79984e+06
3.84011e+06
3.87808e+06
3.9136e+06
3.94653e+06
3.97676e+06
4.00419e+06
4.0288e+06
4.05057e+06
4.06953e+06
4.08579e+06
4.09947e+06
4.11074e+06
4.1198e+06
4.12684e+06
4.13213e+06
4.13593e+06
4.13859e+06
)
;

boundaryField
{
    outletCentralUnloaded
    {
        type            fixedValue;
        value           uniform 3.44728e+06;
    }
    inletCentralUnloaded
    {
        type            zeroGradient;
    }
    outletFuelElement
    {
        type            fixedValue;
        value           uniform 3.44728e+06;
    }
    inletFuelElement
    {
        type            zeroGradient;
    }
    defaultFaces
    {
        type            zeroGradient;
    }
    baffle_master
    {
        type            zeroGradient;
    }
    baffle_slave
    {
        type            zeroGradient;
    }
}


// ************************************************************************* //
