/*--------------------------------*- C++ -*----------------------------------*\
| =========                 |                                                 |
| \\      /  F ield         | OpenFOAM: The Open Source CFD Toolbox           |
|  \\    /   O peration     | Version:  2212                                  |
|   \\  /    A nd           | Website:  www.openfoam.com                      |
|    \\/     M anipulation  |                                                 |
\*---------------------------------------------------------------------------*/
FoamFile
{
    version     2.0;
    format      ascii;
    arch        "LSB;label=32;scalar=64";
    class       volScalarField;
    location    "29/fluidRegion";
    object      T;
}
// * * * * * * * * * * * * * * * * * * * * * * * * * * * * * * * * * * * * * //

dimensions      [0 0 0 1 0 0 0];

internalField   nonuniform List<scalar> 
350
(
83.2887
83.2892
83.2897
83.2902
83.2907
83.2911
83.2916
83.2921
83.2925
83.293
83.2935
83.294
83.2945
83.295
83.2955
83.2959
83.2964
83.2968
83.2973
83.2978
83.2982
83.2987
83.2991
83.2996
83.3
83.2887
83.2892
83.2897
83.2902
83.2907
83.2911
83.2916
83.2921
83.2925
83.293
83.2935
83.294
83.2945
83.295
83.2955
83.2959
83.2964
83.2968
83.2973
83.2978
83.2982
83.2987
83.2991
83.2996
83.3
1770.62
1766.53
1750.13
1721.65
1681.43
1629.95
1567.81
1495.76
1414.66
1325.51
1229.45
1127.81
1022.1
914.045
805.582
698.762
595.634
498.107
407.846
326.266
254.614
194.071
145.835
111.015
90.2271
1797.58
1793.74
1777.39
1748.74
1708.14
1656.07
1593.15
1520.11
1437.85
1347.37
1249.81
1146.51
1039.01
929.04
818.584
709.746
604.642
505.247
413.284
330.206
257.286
195.714
146.702
111.364
90.3015
1766.24
1762.12
1745.73
1717.3
1677.16
1625.78
1563.79
1491.91
1411.01
1322.08
1226.28
1124.91
1019.49
911.741
803.595
697.093
594.275
497.036
407.037
325.684
254.223
193.832
145.709
110.963
90.2152
1791.52
1787.61
1771.24
1742.61
1702.08
1650.14
1587.38
1514.56
1432.56
1342.37
1245.15
1142.22
1035.12
925.589
815.588
707.211
602.561
503.596
412.026
329.293
256.666
195.333
146.501
111.283
90.2844
1791.52
1787.61
1771.24
1742.61
1702.08
1650.14
1587.38
1514.56
1432.56
1342.37
1245.15
1142.22
1035.12
925.589
815.588
707.211
602.561
503.596
412.026
329.293
256.666
195.333
146.501
111.283
90.2844
1766.24
1762.12
1745.73
1717.3
1677.16
1625.79
1563.79
1491.91
1411.01
1322.09
1226.28
1124.91
1019.49
911.742
803.596
697.094
594.276
497.037
407.038
325.684
254.224
193.832
145.709
110.963
90.2152
1797.58
1793.74
1777.39
1748.74
1708.14
1656.07
1593.15
1520.11
1437.85
1347.37
1249.81
1146.51
1039.01
929.04
818.584
709.746
604.642
505.247
413.284
330.206
257.286
195.714
146.702
111.364
90.3015
1770.62
1766.53
1750.13
1721.65
1681.43
1629.95
1567.81
1495.76
1414.66
1325.51
1229.45
1127.81
1022.1
914.045
805.582
698.762
595.634
498.107
407.846
326.266
254.614
194.071
145.835
111.015
90.2271
1791.52
1787.61
1771.24
1742.61
1702.08
1650.14
1587.38
1514.56
1432.56
1342.37
1245.15
1142.22
1035.12
925.589
815.588
707.211
602.561
503.596
412.026
329.293
256.667
195.333
146.501
111.283
90.2844
1766.24
1762.12
1745.73
1717.3
1677.16
1625.78
1563.79
1491.91
1411.01
1322.08
1226.28
1124.91
1019.49
911.741
803.595
697.093
594.275
497.037
407.037
325.684
254.224
193.832
145.709
110.963
90.2152
1766.24
1762.12
1745.73
1717.3
1677.16
1625.79
1563.79
1491.91
1411.01
1322.09
1226.28
1124.91
1019.49
911.742
803.596
697.094
594.275
497.037
407.037
325.684
254.224
193.832
145.709
110.963
90.2152
1791.52
1787.61
1771.24
1742.61
1702.08
1650.14
1587.38
1514.56
1432.56
1342.37
1245.15
1142.22
1035.12
925.589
815.588
707.211
602.561
503.596
412.025
329.293
256.666
195.333
146.501
111.283
90.2844
)
;

boundaryField
{
    outletCentralUnloaded
    {
        type            zeroGradient;
    }
    inletCentralUnloaded
    {
        type            fixedValue;
        value           uniform 83.3;
    }
    outletFuelElement
    {
        type            zeroGradient;
    }
    inletFuelElement
    {
        type            fixedValue;
        value           uniform 83.3;
    }
    defaultFaces
    {
        type            zeroGradient;
    }
    baffle_master
    {
        type            zeroGradient;
    }
    baffle_slave
    {
        type            zeroGradient;
    }
}


// ************************************************************************* //
