/*--------------------------------*- C++ -*----------------------------------*\
| =========                 |                                                 |
| \\      /  F ield         | OpenFOAM: The Open Source CFD Toolbox           |
|  \\    /   O peration     | Version:  2212                                  |
|   \\  /    A nd           | Website:  www.openfoam.com                      |
|    \\/     M anipulation  |                                                 |
\*---------------------------------------------------------------------------*/
FoamFile
{
    version     2.0;
    format      ascii;
    arch        "LSB;label=32;scalar=64";
    class       volScalarField;
    location    "29/fluidRegion";
    object      Tci.nuclearFuelPin;
}
// * * * * * * * * * * * * * * * * * * * * * * * * * * * * * * * * * * * * * //

dimensions      [0 0 0 1 0 0 0];

internalField   nonuniform List<scalar> 
350
(
0
0
0
0
0
0
0
0
0
0
0
0
0
0
0
0
0
0
0
0
0
0
0
0
0
0
0
0
0
0
0
0
0
0
0
0
0
0
0
0
0
0
0
0
0
0
0
0
0
0
1789.55
1841.44
1880.21
1905.68
1917.8
1916.68
1902.57
1875.9
1837.25
1787.35
1727.08
1657.47
1579.7
1495.07
1405.01
1310.99
1214.38
1116.29
1017.13
916.167
810.632
694.622
558.288
391.063
195.186
1816.59
1869.27
1908.62
1934.43
1946.65
1945.41
1930.95
1903.72
1864.29
1813.42
1752
1681.07
1601.83
1515.61
1423.83
1328.03
1229.61
1129.74
1028.89
926.348
819.355
701.92
563.992
394.738
196.428
1785.15
1836.93
1875.63
1901.07
1913.19
1912.1
1898.06
1871.5
1832.98
1783.25
1723.17
1653.78
1576.25
1491.89
1402.1
1308.36
1212.04
1114.23
1015.33
914.614
809.31
693.526
557.442
390.522
194.996
1810.51
1863
1902.19
1927.91
1940.1
1938.87
1924.48
1897.36
1858.1
1807.45
1746.28
1675.65
1596.74
1510.88
1419.5
1324.09
1226.1
1126.63
1026.17
923.994
817.338
700.231
562.671
393.886
196.141
1810.51
1863
1902.19
1927.91
1940.1
1938.87
1924.48
1897.36
1858.1
1807.45
1746.28
1675.65
1596.74
1510.88
1419.5
1324.09
1226.1
1126.63
1026.17
923.994
817.338
700.231
562.671
393.886
196.141
1785.15
1836.93
1875.63
1901.07
1913.19
1912.1
1898.06
1871.5
1832.98
1783.25
1723.17
1653.79
1576.25
1491.89
1402.1
1308.36
1212.04
1114.23
1015.34
914.614
809.31
693.526
557.443
390.523
194.996
1816.59
1869.27
1908.62
1934.43
1946.65
1945.41
1930.95
1903.72
1864.29
1813.42
1752
1681.07
1601.83
1515.61
1423.83
1328.03
1229.61
1129.74
1028.89
926.348
819.355
701.92
563.992
394.738
196.428
1789.55
1841.44
1880.21
1905.68
1917.8
1916.68
1902.57
1875.9
1837.25
1787.35
1727.08
1657.47
1579.7
1495.07
1405.01
1310.99
1214.38
1116.29
1017.13
916.167
810.632
694.622
558.288
391.063
195.186
1810.51
1863
1902.19
1927.91
1940.1
1938.87
1924.48
1897.36
1858.1
1807.45
1746.28
1675.65
1596.74
1510.88
1419.5
1324.09
1226.1
1126.63
1026.17
923.994
817.338
700.231
562.671
393.886
196.141
1785.15
1836.93
1875.63
1901.07
1913.19
1912.1
1898.06
1871.5
1832.98
1783.25
1723.17
1653.78
1576.25
1491.89
1402.1
1308.36
1212.04
1114.23
1015.33
914.614
809.31
693.526
557.442
390.522
194.996
1785.15
1836.93
1875.63
1901.07
1913.19
1912.1
1898.06
1871.5
1832.98
1783.25
1723.17
1653.79
1576.25
1491.89
1402.1
1308.36
1212.04
1114.23
1015.34
914.614
809.31
693.526
557.443
390.523
194.996
1810.51
1863
1902.19
1927.91
1940.1
1938.87
1924.48
1897.36
1858.1
1807.45
1746.28
1675.65
1596.74
1510.88
1419.5
1324.09
1226.1
1126.63
1026.17
923.994
817.338
700.231
562.671
393.886
196.141
)
;

boundaryField
{
    outletCentralUnloaded
    {
        type            zeroGradient;
    }
    inletCentralUnloaded
    {
        type            zeroGradient;
    }
    outletFuelElement
    {
        type            zeroGradient;
    }
    inletFuelElement
    {
        type            zeroGradient;
    }
    defaultFaces
    {
        type            zeroGradient;
    }
    baffle_master
    {
        type            zeroGradient;
    }
    baffle_slave
    {
        type            zeroGradient;
    }
}


// ************************************************************************* //
