/*--------------------------------*- C++ -*----------------------------------*\
| =========                 |                                                 |
| \\      /  F ield         | OpenFOAM: The Open Source CFD Toolbox           |
|  \\    /   O peration     | Version:  2212                                  |
|   \\  /    A nd           | Website:  www.openfoam.com                      |
|    \\/     M anipulation  |                                                 |
\*---------------------------------------------------------------------------*/
FoamFile
{
    version     2.0;
    format      ascii;
    arch        "LSB;label=32;scalar=64";
    class       volScalarField;
    location    "29/fluidRegion";
    object      Tco.nuclearFuelPin;
}
// * * * * * * * * * * * * * * * * * * * * * * * * * * * * * * * * * * * * * //

dimensions      [0 0 0 1 0 0 0];

internalField   nonuniform List<scalar> 
350
(
0
0
0
0
0
0
0
0
0
0
0
0
0
0
0
0
0
0
0
0
0
0
0
0
0
0
0
0
0
0
0
0
0
0
0
0
0
0
0
0
0
0
0
0
0
0
0
0
0
0
1781.71
1810.65
1826.98
1830.89
1822.66
1802.73
1771.64
1730.09
1678.89
1618.98
1551.38
1477.25
1397.83
1314.45
1228.52
1141.43
1054.48
968.583
883.99
799.713
712.727
616.807
501.748
356.587
183.199
1808.71
1838.17
1854.81
1858.81
1850.46
1830.18
1798.55
1756.27
1704.15
1643.15
1574.32
1498.82
1417.9
1332.94
1245.34
1156.55
1067.89
980.355
894.232
808.571
720.338
623.223
506.814
359.876
184.312
1777.32
1806.19
1822.49
1826.4
1818.21
1798.35
1767.36
1725.95
1674.91
1615.18
1547.79
1473.89
1394.71
1311.59
1225.92
1139.11
1052.42
966.785
882.431
798.371
711.582
615.852
501.005
356.108
183.03
1802.64
1831.96
1848.52
1852.49
1844.15
1823.94
1792.42
1750.29
1698.38
1637.61
1569.06
1493.86
1413.29
1328.68
1241.46
1153.06
1064.79
977.634
891.864
806.522
718.577
621.737
505.64
359.113
184.055
1802.64
1831.96
1848.52
1852.49
1844.15
1823.94
1792.42
1750.29
1698.38
1637.61
1569.06
1493.86
1413.29
1328.68
1241.46
1153.06
1064.79
977.634
891.864
806.522
718.577
621.737
505.64
359.113
184.055
1777.32
1806.19
1822.49
1826.4
1818.22
1798.35
1767.36
1725.95
1674.91
1615.18
1547.79
1473.89
1394.71
1311.59
1225.92
1139.11
1052.42
966.786
882.432
798.372
711.582
615.853
501.005
356.108
183.03
1808.71
1838.17
1854.81
1858.81
1850.46
1830.18
1798.55
1756.27
1704.15
1643.15
1574.32
1498.82
1417.9
1332.94
1245.34
1156.55
1067.89
980.355
894.232
808.571
720.338
623.223
506.814
359.876
184.312
1781.71
1810.65
1826.98
1830.89
1822.66
1802.72
1771.64
1730.09
1678.89
1618.98
1551.38
1477.25
1397.83
1314.45
1228.52
1141.43
1054.48
968.583
883.99
799.713
712.727
616.807
501.748
356.587
183.199
1802.64
1831.96
1848.52
1852.49
1844.15
1823.94
1792.42
1750.29
1698.38
1637.61
1569.06
1493.86
1413.29
1328.68
1241.46
1153.06
1064.79
977.634
891.864
806.522
718.577
621.737
505.64
359.113
184.055
1777.32
1806.19
1822.49
1826.4
1818.21
1798.35
1767.36
1725.95
1674.91
1615.18
1547.79
1473.89
1394.71
1311.59
1225.92
1139.11
1052.42
966.785
882.431
798.371
711.582
615.852
501.005
356.108
183.03
1777.32
1806.19
1822.49
1826.4
1818.22
1798.35
1767.36
1725.95
1674.91
1615.18
1547.79
1473.89
1394.71
1311.59
1225.92
1139.11
1052.42
966.786
882.432
798.372
711.582
615.853
501.005
356.108
183.03
1802.64
1831.96
1848.52
1852.49
1844.15
1823.94
1792.42
1750.29
1698.38
1637.61
1569.06
1493.86
1413.29
1328.68
1241.46
1153.06
1064.79
977.634
891.864
806.522
718.577
621.737
505.64
359.112
184.055
)
;

boundaryField
{
    outletCentralUnloaded
    {
        type            zeroGradient;
    }
    inletCentralUnloaded
    {
        type            zeroGradient;
    }
    outletFuelElement
    {
        type            zeroGradient;
    }
    inletFuelElement
    {
        type            zeroGradient;
    }
    defaultFaces
    {
        type            zeroGradient;
    }
    baffle_master
    {
        type            zeroGradient;
    }
    baffle_slave
    {
        type            zeroGradient;
    }
}


// ************************************************************************* //
