/*--------------------------------*- C++ -*----------------------------------*\
| =========                 |                                                 |
| \\      /  F ield         | OpenFOAM: The Open Source CFD Toolbox           |
|  \\    /   O peration     | Version:  2212                                  |
|   \\  /    A nd           | Website:  www.openfoam.com                      |
|    \\/     M anipulation  |                                                 |
\*---------------------------------------------------------------------------*/
FoamFile
{
    version     2.0;
    format      ascii;
    arch        "LSB;label=32;scalar=64";
    class       volScalarField;
    location    "29/fluidRegion";
    object      Tfi.nuclearFuelPin;
}
// * * * * * * * * * * * * * * * * * * * * * * * * * * * * * * * * * * * * * //

dimensions      [0 0 0 1 0 0 0];

internalField   nonuniform List<scalar> 
350
(
0
0
0
0
0
0
0
0
0
0
0
0
0
0
0
0
0
0
0
0
0
0
0
0
0
0
0
0
0
0
0
0
0
0
0
0
0
0
0
0
0
0
0
0
0
0
0
0
0
0
2152.86
3312.96
4434.92
5501.46
6496.12
7403.51
8209.59
8901.86
9469.59
9903.98
10198.3
10348
10350.9
10207
9918.73
9490.58
8929.2
8242.98
7441.61
6535.69
5535.54
4450.58
3288.38
2057.59
777.863
2182.03
3355.63
4490.58
5569.41
6575.47
7493.2
8308.38
9008.39
9582.37
10021.4
10318.7
10469.8
10472.2
10326.1
10033.9
9600.3
9031.91
8337.3
7526.31
6609.68
5597.88
4500.42
3324.86
2079.88
785.343
2148.13
3306.1
4426
5490.6
6483.45
7389.22
8193.86
8884.91
9451.66
9885.32
10179.2
10328.7
10331.7
10188.1
9900.45
9473.17
8912.91
8228.02
7428.18
6523.96
5525.67
4442.7
3282.62
2054.08
776.679
2175.43
3345.92
4477.87
5553.86
6557.28
7472.62
8285.69
8983.91
9556.44
9994.41
10291
10441.7
10444.3
10298.7
10007.4
9575.03
9008.26
8315.58
7506.8
6592.64
5583.52
4488.94
3316.46
2074.75
783.62
2175.43
3345.92
4477.87
5553.86
6557.28
7472.62
8285.69
8983.91
9556.44
9994.41
10291
10441.7
10444.3
10298.7
10007.4
9575.03
9008.26
8315.58
7506.8
6592.64
5583.52
4488.94
3316.46
2074.75
783.62
2148.13
3306.1
4426
5490.6
6483.45
7389.22
8193.86
8884.91
9451.66
9885.32
10179.2
10328.7
10331.7
10188.1
9900.45
9473.17
8912.91
8228.02
7428.19
6523.96
5525.67
4442.7
3282.62
2054.08
776.679
2182.03
3355.63
4490.58
5569.41
6575.47
7493.2
8308.38
9008.39
9582.37
10021.4
10318.7
10469.8
10472.2
10326.1
10033.9
9600.3
9031.91
8337.3
7526.31
6609.68
5597.88
4500.42
3324.86
2079.88
785.343
2152.86
3312.96
4434.92
5501.46
6496.12
7403.51
8209.59
8901.86
9469.59
9903.98
10198.3
10348
10350.9
10207
9918.73
9490.58
8929.2
8242.98
7441.61
6535.69
5535.54
4450.59
3288.38
2057.59
777.863
2175.43
3345.92
4477.87
5553.86
6557.28
7472.62
8285.69
8983.91
9556.44
9994.41
10291
10441.7
10444.3
10298.7
10007.4
9575.03
9008.26
8315.58
7506.8
6592.64
5583.52
4488.94
3316.46
2074.75
783.62
2148.13
3306.1
4426
5490.6
6483.45
7389.22
8193.86
8884.91
9451.66
9885.31
10179.2
10328.7
10331.7
10188.1
9900.45
9473.17
8912.91
8228.02
7428.18
6523.96
5525.67
4442.7
3282.62
2054.08
776.679
2148.13
3306.1
4426
5490.6
6483.45
7389.22
8193.86
8884.91
9451.66
9885.32
10179.2
10328.7
10331.7
10188.1
9900.45
9473.17
8912.91
8228.02
7428.19
6523.96
5525.67
4442.7
3282.62
2054.08
776.679
2175.43
3345.92
4477.87
5553.86
6557.28
7472.62
8285.69
8983.91
9556.44
9994.41
10291
10441.7
10444.3
10298.7
10007.4
9575.03
9008.26
8315.58
7506.8
6592.64
5583.52
4488.94
3316.46
2074.75
783.62
)
;

boundaryField
{
    outletCentralUnloaded
    {
        type            zeroGradient;
    }
    inletCentralUnloaded
    {
        type            zeroGradient;
    }
    outletFuelElement
    {
        type            zeroGradient;
    }
    inletFuelElement
    {
        type            zeroGradient;
    }
    defaultFaces
    {
        type            zeroGradient;
    }
    baffle_master
    {
        type            zeroGradient;
    }
    baffle_slave
    {
        type            zeroGradient;
    }
}


// ************************************************************************* //
