/*--------------------------------*- C++ -*----------------------------------*\
| =========                 |                                                 |
| \\      /  F ield         | OpenFOAM: The Open Source CFD Toolbox           |
|  \\    /   O peration     | Version:  2212                                  |
|   \\  /    A nd           | Website:  www.openfoam.com                      |
|    \\/     M anipulation  |                                                 |
\*---------------------------------------------------------------------------*/
FoamFile
{
    version     2.0;
    format      ascii;
    arch        "LSB;label=32;scalar=64";
    class       volScalarField;
    location    "29/fluidRegion";
    object      Tfo.nuclearFuelPin;
}
// * * * * * * * * * * * * * * * * * * * * * * * * * * * * * * * * * * * * * //

dimensions      [0 0 0 1 0 0 0];

internalField   nonuniform List<scalar> 
350
(
0
0
0
0
0
0
0
0
0
0
0
0
0
0
0
0
0
0
0
0
0
0
0
0
0
0
0
0
0
0
0
0
0
0
0
0
0
0
0
0
0
0
0
0
0
0
0
0
0
0
1905.07
2288.8
2651.86
2988.95
3295.12
3565.83
3797.06
3985.38
4127.98
4222.74
4268.27
4263.95
4209.93
4107.15
3957.32
3762.85
3526.7
3252.14
2942.39
2600.08
2226.36
1819.87
1375.91
889.589
368.367
1932.89
2321.22
2688.57
3029.58
3339.23
3612.95
3846.66
4036.89
4180.81
4276.29
4321.9
4317.04
4261.84
4157.28
4005.08
3807.71
3568.18
3289.86
2976.03
2629.41
2251.17
1839.93
1390.85
898.853
371.483
1900.55
2283.56
2645.95
2982.44
3288.07
3558.32
3789.17
3977.2
4119.6
4214.26
4259.79
4255.57
4201.74
4099.25
3949.79
3755.78
3520.17
3246.21
2937.1
2595.47
2222.47
1816.74
1373.59
888.156
367.879
1926.63
2313.88
2680.23
3020.32
3329.16
3602.17
3835.3
4025.08
4168.69
4263.99
4309.58
4304.83
4249.9
4145.74
3994.08
3797.37
3558.62
3281.17
2968.28
2622.64
2245.45
1835.31
1387.4
896.715
370.765
1926.63
2313.88
2680.23
3020.32
3329.16
3602.17
3835.3
4025.08
4168.69
4263.99
4309.58
4304.83
4249.9
4145.74
3994.08
3797.37
3558.62
3281.17
2968.28
2622.64
2245.45
1835.31
1387.4
896.715
370.765
1900.55
2283.56
2645.95
2982.44
3288.07
3558.32
3789.17
3977.2
4119.6
4214.26
4259.79
4255.57
4201.74
4099.25
3949.8
3755.79
3520.17
3246.21
2937.1
2595.47
2222.47
1816.74
1373.59
888.156
367.879
1932.89
2321.22
2688.57
3029.58
3339.23
3612.95
3846.66
4036.89
4180.81
4276.29
4321.9
4317.04
4261.84
4157.28
4005.08
3807.71
3568.18
3289.86
2976.03
2629.41
2251.17
1839.93
1390.85
898.853
371.483
1905.07
2288.8
2651.86
2988.95
3295.12
3565.83
3797.06
3985.38
4127.98
4222.74
4268.27
4263.95
4209.93
4107.15
3957.32
3762.85
3526.7
3252.14
2942.39
2600.08
2226.36
1819.87
1375.91
889.589
368.367
1926.63
2313.88
2680.23
3020.32
3329.16
3602.17
3835.3
4025.08
4168.69
4263.99
4309.58
4304.83
4249.9
4145.74
3994.08
3797.37
3558.62
3281.17
2968.28
2622.65
2245.45
1835.31
1387.4
896.715
370.765
1900.55
2283.56
2645.95
2982.44
3288.07
3558.32
3789.17
3977.2
4119.6
4214.26
4259.79
4255.57
4201.74
4099.25
3949.79
3755.78
3520.17
3246.21
2937.1
2595.47
2222.47
1816.74
1373.59
888.156
367.879
1900.55
2283.56
2645.95
2982.44
3288.07
3558.32
3789.17
3977.2
4119.6
4214.26
4259.79
4255.57
4201.74
4099.25
3949.8
3755.78
3520.17
3246.21
2937.1
2595.47
2222.47
1816.74
1373.59
888.156
367.879
1926.63
2313.88
2680.23
3020.32
3329.16
3602.17
3835.3
4025.08
4168.69
4263.99
4309.58
4304.83
4249.9
4145.74
3994.08
3797.37
3558.62
3281.17
2968.28
2622.64
2245.45
1835.31
1387.4
896.715
370.765
)
;

boundaryField
{
    outletCentralUnloaded
    {
        type            zeroGradient;
    }
    inletCentralUnloaded
    {
        type            zeroGradient;
    }
    outletFuelElement
    {
        type            zeroGradient;
    }
    inletFuelElement
    {
        type            zeroGradient;
    }
    defaultFaces
    {
        type            zeroGradient;
    }
    baffle_master
    {
        type            zeroGradient;
    }
    baffle_slave
    {
        type            zeroGradient;
    }
}


// ************************************************************************* //
