/*--------------------------------*- C++ -*----------------------------------*\
| =========                 |                                                 |
| \\      /  F ield         | OpenFOAM: The Open Source CFD Toolbox           |
|  \\    /   O peration     | Version:  2212                                  |
|   \\  /    A nd           | Website:  www.openfoam.com                      |
|    \\/     M anipulation  |                                                 |
\*---------------------------------------------------------------------------*/
FoamFile
{
    version     2.0;
    format      ascii;
    arch        "LSB;label=32;scalar=64";
    class       scalarFieldField;
    location    "29/fluidRegion";
    object      Trad.nuclearFuelPin;
}
// * * * * * * * * * * * * * * * * * * * * * * * * * * * * * * * * * * * * * //


350
(
0()
0()
0()
0()
0()
0()
0()
0()
0()
0()
0()
0()
0()
0()
0()
0()
0()
0()
0()
0()
0()
0()
0()
0()
0()
0()
0()
0()
0()
0()
0()
0()
0()
0()
0()
0()
0()
0()
0()
0()
0()
0()
0()
0()
0()
0()
0()
0()
0()
0()

20
(
2152.86
2151.87
2148.9
2143.93
2136.93
2127.86
2116.64
2103.23
2087.54
2069.47
2048.93
2025.81
2000
1971.35
1939.76
1905.07
1789.55
1786.85
1784.24
1781.71
)


20
(
3312.96
3308.56
3295.32
3273.24
3242.26
3202.34
3153.4
3095.35
3028.1
2951.54
2865.53
2769.94
2664.63
2549.45
2424.22
2288.8
1841.44
1830.83
1820.57
1810.65
)


20
(
4434.92
4427.17
4403.9
4365.08
4310.66
4240.58
4154.75
4053.08
3935.42
3801.67
3651.66
3485.24
3302.23
3102.46
2885.73
2651.86
1880.21
1861.88
1844.15
1826.98
)


20
(
5501.46
5490.49
5457.57
5402.66
5325.71
5226.64
5105.35
4961.72
4795.62
4606.89
4395.36
4160.85
3903.16
3622.09
3317.43
2988.95
1905.68
1879.93
1855.01
1830.89
)


20
(
6496.12
6482.11
6440.08
6369.98
6271.75
6145.31
5990.54
5807.31
5595.47
5354.85
5085.26
4786.48
4458.31
4100.52
3712.87
3295.12
1917.8
1885.04
1853.35
1822.66
)


20
(
7403.51
7386.69
7336.23
7252.08
7134.17
6982.41
6796.68
6576.82
6322.68
6034.07
5710.77
5352.57
4959.22
4530.49
4066.11
3565.83
1916.68
1877.44
1839.48
1802.73
)


20
(
8209.59
8190.23
8132.16
8035.32
7899.63
7725
7511.3
7258.37
6966.03
6634.08
6262.29
5850.43
5398.25
4905.47
4371.84
3797.06
1902.57
1857.48
1813.87
1771.64
)


20
(
8901.86
8880.28
8815.53
8707.55
8556.28
8361.6
8123.37
7841.43
7515.59
7145.64
6731.34
6272.44
5768.68
5219.77
4625.44
3985.38
1875.9
1825.69
1777.12
1730.09
)


20
(
9469.59
9446.13
9375.74
9258.37
9093.94
8882.33
8623.4
8316.98
7962.88
7560.86
7110.69
6612.11
6064.84
5468.6
4823.07
4127.98
1837.25
1782.72
1729.97
1678.89
)


20
(
9903.98
9879.02
9804.12
9679.24
9504.28
9279.14
9003.66
8677.68
8300.98
7873.34
7394.51
6864.23
6282.21
5648.16
4961.77
4222.74
1787.35
1729.37
1673.29
1618.98
)


20
(
10198.3
10172.2
10094
9963.64
9780.97
9545.9
9258.28
8917.95
8524.69
8078.27
7578.44
7024.94
6417.47
5755.74
5039.45
4268.27
1727.08
1666.58
1608.05
1551.38
)


20
(
10348
10321.3
10241
10107.2
9919.74
9678.51
9383.36
9034.12
8630.58
8172.52
7659.68
7091.8
6468.58
5789.74
5054.97
4263.95
1657.47
1595.42
1535.38
1477.25
)


20
(
10350.9
10323.9
10242.9
10107.8
9918.52
9674.98
9377.02
9024.45
8617.09
8154.71
7637.05
7063.85
6434.84
5749.71
5008.18
4209.93
1579.7
1517.08
1456.49
1397.83
)


20
(
10207
10180.2
10099.7
9965.48
9777.44
9535.48
9239.46
8889.21
8484.54
8025.21
7511
6941.64
6316.86
5636.38
4899.91
4107.15
1495.07
1432.88
1372.71
1314.45
)


20
(
9918.73
9892.5
9813.81
9682.6
9498.8
9262.3
8972.96
8630.62
8235.1
7786.17
7283.61
6727.18
6116.61
5451.62
4731.96
3957.32
1405.01
1344.24
1285.45
1228.52
)


20
(
9490.58
9465.37
9389.75
9263.67
9087.04
8859.78
8581.75
8252.79
7872.74
7441.38
6958.51
6423.89
5837.27
5198.4
4507.01
3762.85
1310.99
1252.6
1196.13
1141.43
)


20
(
8929.2
8905.42
8834.09
8715.14
8548.53
8334.14
8071.87
7761.56
7403.06
6996.18
6540.71
6036.44
5483.15
4880.59
4228.52
3526.7
1214.38
1159.32
1106.06
1054.48
)


20
(
8242.98
8221.01
8155.1
8045.21
7891.27
7693.2
7450.88
7164.2
6832.99
6457.1
6036.33
5570.49
5059.37
4502.75
3900.42
3252.14
1116.29
1065.43
1016.23
968.583
)


20
(
7441.61
7421.81
7362.38
7263.3
7124.51
6945.93
6727.47
6469.01
6170.41
5831.53
5452.2
5032.24
4571.48
4069.72
3526.75
2942.39
1017.13
971.289
926.939
883.99
)


20
(
6535.69
6518.36
6466.37
6379.7
6258.28
6102.06
5910.95
5684.85
5423.64
5127.2
4795.38
4428.04
4025
3586.11
3111.19
2600.08
916.167
876.069
837.278
799.713
)


20
(
5535.54
5520.97
5477.25
5404.36
5302.26
5170.89
5010.19
4820.06
4600.42
4351.15
4072.14
3763.27
3424.39
3055.37
2656.08
2226.36
810.632
776.921
744.309
712.727
)


20
(
4450.58
4439
4404.24
4346.28
4265.09
4160.64
4032.86
3881.7
3707.07
3508.89
3287.08
3041.53
2772.15
2478.82
2161.43
1819.87
694.622
667.828
641.908
616.807
)


20
(
3288.38
3279.95
3254.66
3212.51
3153.46
3077.49
2984.56
2874.63
2747.64
2603.55
2442.28
2263.78
2067.96
1854.76
1624.1
1375.91
558.288
538.82
519.986
501.748
)


20
(
2057.59
2052.44
2036.97
2011.18
1975.06
1928.59
1871.76
1804.55
1726.93
1638.88
1540.36
1431.34
1311.79
1181.67
1040.95
889.589
391.063
379.192
367.708
356.587
)


20
(
777.863
776.037
770.561
761.433
748.658
732.236
712.17
688.465
661.124
630.152
595.553
557.334
515.499
470.056
421.01
368.367
195.186
191.059
187.066
183.199
)


20
(
2182.03
2181.03
2178.05
2173.07
2166.04
2156.92
2145.66
2132.19
2116.42
2098.27
2077.63
2054.38
2028.42
1999.61
1967.81
1932.89
1816.59
1813.87
1811.24
1808.71
)


20
(
3355.63
3351.17
3337.81
3315.51
3284.23
3243.92
3194.5
3135.89
3067.97
2990.65
2903.78
2807.24
2700.87
2584.52
2458.03
2321.22
1869.27
1858.56
1848.2
1838.17
)


20
(
4490.58
4482.74
4459.23
4420
4365.02
4294.2
4207.47
4104.72
3985.83
3850.66
3699.06
3530.87
3345.91
3144
2924.95
2688.57
1908.62
1890.09
1872.16
1854.81
)


20
(
5569.41
5558.32
5525.05
5469.55
5391.76
5291.62
5169.02
5023.84
4855.94
4665.17
4451.34
4214.28
3953.79
3669.65
3361.66
3029.58
1934.43
1908.39
1883.2
1858.81
)


20
(
6575.47
6561.31
6518.82
6447.95
6348.65
6220.82
6064.36
5879.12
5664.96
5421.7
5149.14
4847.07
4515.29
4153.55
3761.61
3339.23
1946.65
1913.53
1881.49
1850.46
)


20
(
7493.2
7476.2
7425.18
7340.1
7220.89
7067.45
6879.66
6657.38
6400.43
6108.62
5781.74
5419.56
5021.85
4588.35
4118.81
3612.95
1945.41
1905.73
1867.35
1830.18
)


20
(
8308.38
8288.81
8230.09
8132.18
7994.99
7818.42
7602.34
7346.6
7051.01
6715.36
6339.43
5922.98
5465.75
4967.47
4427.87
3846.66
1930.95
1885.36
1841.26
1798.55
)


20
(
9008.39
8986.57
8921.09
8811.92
8658.96
8462.1
8221.22
7936.13
7606.66
7232.57
6813.64
6349.6
5840.2
5285.14
4684.14
4036.89
1903.72
1852.94
1803.83
1756.27
)


20
(
9582.37
9558.65
9487.47
9368.79
9202.51
8988.54
8726.71
8416.86
8058.79
7652.27
7197.06
6692.88
6139.47
5536.52
4883.74
4180.81
1864.29
1809.15
1755.81
1704.15
)


20
(
10021.4
9996.17
9920.44
9794.15
9617.24
9389.57
9111
8781.36
8400.43
7967.99
7483.78
6947.54
6358.97
5717.78
5023.65
4276.29
1813.42
1754.79
1698.07
1643.15
)


20
(
10318.7
10292.4
10213.3
10081.4
9896.71
9659
9368.15
9023.99
8626.31
8174.86
7669.41
7109.67
6495.36
5826.16
5101.79
4321.9
1752
1690.82
1631.63
1574.32
)


20
(
10469.8
10442.7
10361.5
10226.2
10036.6
9792.69
9494.21
9141.04
8732.96
8269.74
7751.12
7176.83
6546.58
5860.07
5116.99
4317.04
1681.07
1618.32
1557.61
1498.82
)


20
(
10472.2
10444.9
10362.9
10226.3
10034.9
9788.63
9487.3
9130.77
8718.81
8251.21
7727.7
7148.04
6511.91
5819.04
5069.12
4261.84
1601.83
1538.5
1477.23
1417.9
)


20
(
10326.1
10299
10217.6
10081.8
9891.68
9646.99
9347.63
8993.43
8584.18
8119.67
7599.64
7023.85
6392
5703.83
4959.02
4157.28
1515.61
1452.71
1391.86
1332.94
)


20
(
10033.9
10007.4
9927.84
9795.15
9609.27
9370.1
9077.49
8731.29
8331.29
7877.29
7369.05
6806.32
6188.83
5516.32
4788.5
4005.08
1423.83
1362.37
1302.92
1245.34
)


20
(
9600.3
9574.81
9498.33
9370.82
9192.2
8962.37
8681.2
8348.52
7964.17
7527.93
7039.59
6498.92
5905.65
5259.54
4560.32
3807.71
1328.03
1268.98
1211.86
1156.55
)


20
(
9031.91
9007.87
8935.72
8815.43
8646.93
8430.12
8164.88
7851.06
7488.5
7077.01
6616.38
6106.4
5546.84
4937.44
4277.97
3568.18
1229.61
1173.93
1120.06
1067.89
)


20
(
8337.3
8315.08
8248.43
8137.29
7981.61
7781.29
7536.24
7246.3
6911.35
6531.19
6105.65
5634.52
5117.61
4554.67
3945.5
3289.86
1129.74
1078.3
1028.54
980.355
)


20
(
7526.31
7506.28
7446.18
7345.98
7205.61
7025.01
6804.08
6542.68
6240.7
5897.97
5514.34
5089.62
4623.63
4116.17
3567.03
2976.03
1028.89
982.523
937.669
894.232
)


20
(
6609.68
6592.16
6539.58
6451.92
6329.13
6171.14
5977.86
5749.2
5485.03
5185.23
4849.64
4478.13
4070.52
3626.64
3146.33
2629.41
926.348
885.794
846.563
808.571
)


20
(
5597.88
5583.15
5538.93
5465.22
5361.96
5229.1
5066.58
4874.3
4652.17
4400.07
4117.9
3805.53
3462.8
3089.6
2685.77
2251.17
819.355
785.261
752.278
720.338
)


20
(
4500.42
4488.7
4453.55
4394.94
4312.83
4207.2
4077.98
3925.11
3748.5
3548.09
3323.77
3075.44
2803.01
2506.35
2185.36
1839.93
701.92
674.823
648.609
623.223
)


20
(
3324.86
3316.34
3290.77
3248.14
3188.43
3111.61
3017.63
2906.47
2778.05
2632.34
2469.26
2288.74
2090.72
1875.11
1641.85
1390.85
563.992
544.304
525.258
506.814
)


20
(
2079.88
2074.67
2059.03
2032.95
1996.43
1949.45
1891.99
1824.03
1745.55
1656.51
1556.9
1446.66
1325.78
1194.21
1051.91
898.853
394.738
382.734
371.122
359.876
)


20
(
785.343
783.498
777.963
768.741
755.831
739.236
718.959
695.004
667.374
636.073
601.107
562.48
520.198
474.267
424.694
371.483
196.428
192.257
188.221
184.312
)


20
(
2148.13
2147.14
2144.17
2139.21
2132.21
2123.14
2111.93
2098.53
2082.84
2064.79
2044.27
2021.17
1995.38
1966.76
1935.2
1900.55
1785.15
1782.45
1779.84
1777.32
)


20
(
3306.1
3301.7
3288.48
3266.43
3235.5
3195.64
3146.78
3088.82
3021.68
2945.23
2859.36
2763.93
2658.79
2543.78
2418.76
2283.56
1836.93
1826.34
1816.1
1806.19
)


20
(
4426
4418.26
4395.03
4356.27
4301.95
4231.99
4146.3
4044.79
3927.34
3793.81
3644.05
3477.91
3295.22
3095.78
2879.43
2645.95
1875.63
1857.33
1839.63
1822.49
)


20
(
5490.6
5479.65
5446.78
5391.97
5315.15
5216.25
5095.16
4951.78
4785.97
4597.57
4386.4
4152.3
3895.06
3614.48
3310.35
2982.44
1901.07
1875.36
1850.48
1826.4
)


20
(
6483.45
6469.47
6427.51
6357.53
6259.48
6133.26
5978.76
5795.85
5584.38
5344.18
5075.06
4776.81
4449.21
4092.05
3705.08
3288.07
1913.19
1880.48
1848.85
1818.21
)


20
(
7389.22
7372.43
7322.05
7238.05
7120.35
6968.86
6783.45
6563.98
6310.29
6022.18
5699.46
5341.89
4949.24
4521.27
4057.71
3558.32
1912.1
1872.93
1835.04
1798.35
)


20
(
8193.86
8174.54
8116.56
8019.89
7884.45
7710.13
7496.81
7244.32
6952.5
6621.14
6250.01
5838.88
5387.5
4895.61
4362.92
3789.17
1898.06
1853.06
1809.52
1767.36
)


20
(
8884.91
8863.37
8798.73
8690.95
8539.94
8345.61
8107.8
7826.37
7501.11
7131.81
6718.25
6260.17
5757.31
5209.38
4616.11
3977.2
1871.5
1821.38
1772.9
1725.95
)


20
(
9451.66
9428.24
9357.98
9240.82
9076.68
8865.44
8606.98
8301.11
7947.63
7546.34
7096.97
6599.28
6052.99
5457.81
4813.45
4119.6
1832.98
1778.55
1725.9
1674.91
)


20
(
9885.32
9860.4
9785.64
9660.98
9486.33
9261.59
8986.61
8661.21
8285.18
7858.31
7380.34
6851.01
6270.03
5637.12
4951.96
4214.26
1783.25
1725.38
1669.39
1615.18
)


20
(
10179.2
10153.2
10075.1
9944.93
9762.58
9527.93
9240.84
8901.11
8508.55
8062.94
7564.01
7011.5
6405.12
5744.58
5029.58
4259.79
1723.17
1662.78
1604.36
1547.79
)


20
(
10328.7
10302
10221.9
10088.3
9901.18
9660.38
9365.76
9017.15
8614.34
8157.1
7645.18
7078.32
6456.22
5778.6
5045.16
4255.57
1653.78
1591.84
1531.92
1473.89
)


20
(
10331.7
10304.7
10223.8
10089
9900.05
9656.94
9359.52
9007.59
8600.96
8139.4
7622.68
7050.51
6422.63
5738.74
4998.54
4201.74
1576.25
1513.74
1453.27
1394.71
)


20
(
10188.1
10161.4
10081
9947.01
9759.31
9517.79
9222.31
8872.69
8468.74
8010.24
7496.95
6928.62
6304.97
5625.71
4890.57
4099.25
1491.89
1429.8
1369.75
1311.59
)


20
(
9900.45
9874.27
9795.72
9664.75
9481.28
9245.2
8956.39
8614.66
8219.85
7771.73
7270.08
6714.65
6105.18
5441.4
4723.03
3949.79
1402.1
1341.44
1282.75
1225.92
)


20
(
9473.17
9448.01
9372.53
9246.67
9070.37
8843.51
8565.98
8237.62
7858.25
7427.67
6945.67
6412.02
5826.46
5188.74
4498.6
3755.78
1308.36
1250.08
1193.7
1139.11
)


20
(
8912.91
8889.18
8817.97
8699.24
8532.92
8318.92
8057.12
7747.38
7389.52
6983.37
6528.73
6025.37
5473.08
4871.61
4220.72
3520.17
1212.04
1157.08
1103.91
1052.42
)


20
(
8228.02
8206.09
8140.3
8030.61
7876.94
7679.23
7437.36
7151.19
6820.58
6445.37
6025.36
5560.36
5050.16
4494.55
3893.31
3246.21
1114.23
1063.46
1014.35
966.785
)


20
(
7428.18
7408.42
7349.1
7250.2
7111.66
6933.4
6715.33
6457.34
6159.28
5821.01
5442.37
5023.17
4563.24
4062.38
3520.4
2937.1
1015.33
969.572
925.303
882.431
)


20
(
6523.96
6506.67
6454.77
6368.25
6247.06
6091.12
5900.35
5674.66
5413.92
5118.02
4786.8
4420.12
4017.82
3579.72
3105.66
2595.47
914.614
874.588
835.868
798.371
)


20
(
5525.67
5511.13
5467.49
5394.73
5292.81
5161.68
5001.26
4811.48
4592.23
4343.42
4064.91
3756.59
3418.33
3049.99
2651.41
2222.47
809.31
775.659
743.106
711.582
)


20
(
4442.7
4431.14
4396.44
4338.58
4257.55
4153.28
4025.73
3874.84
3700.53
3502.71
3281.3
3036.19
2767.29
2474.49
2157.68
1816.74
693.526
666.78
640.907
615.852
)


20
(
3282.62
3274.2
3248.96
3206.88
3147.94
3072.11
2979.34
2869.61
2742.85
2599.02
2438.04
2259.86
2064.39
1851.58
1621.33
1373.59
557.442
538.009
519.21
501.005
)


20
(
2054.08
2048.93
2033.49
2007.75
1971.69
1925.31
1868.58
1801.49
1724.01
1636.11
1537.76
1428.94
1309.6
1179.72
1039.25
888.156
390.522
378.672
367.209
356.108
)


20
(
776.679
774.856
769.389
760.277
747.522
731.128
711.096
687.431
660.136
629.216
594.676
556.522
514.759
469.393
420.431
367.879
194.996
190.876
186.89
183.03
)


20
(
2175.43
2174.44
2171.47
2166.48
2159.46
2150.36
2139.11
2125.65
2109.9
2091.77
2071.15
2047.94
2022.01
1993.24
1961.49
1926.63
1810.51
1807.79
1805.17
1802.64
)


20
(
3345.92
3341.47
3328.14
3305.89
3274.68
3234.46
3185.15
3126.67
3058.91
2981.76
2895.09
2798.77
2692.65
2576.57
2450.37
2313.88
1863
1852.31
1841.97
1831.96
)


20
(
4477.87
4470.05
4446.59
4407.46
4352.6
4281.96
4195.44
4092.93
3974.33
3839.48
3688.25
3520.47
3335.96
3134.55
2916.03
2680.23
1902.19
1883.71
1865.83
1848.52
)


20
(
5553.86
5542.8
5509.6
5454.24
5376.65
5276.75
5154.45
5009.63
4842.15
4651.84
4438.55
4202.08
3942.23
3658.8
3351.57
3020.32
1927.91
1901.94
1876.81
1852.49
)


20
(
6557.28
6543.15
6500.77
6430.08
6331.02
6203.52
6047.44
5862.67
5649.04
5406.39
5134.51
4833.21
4502.25
4141.42
3750.47
3329.16
1940.1
1907.06
1875.1
1844.15
)


20
(
7472.62
7455.66
7404.77
7319.9
7200.99
7047.94
6860.63
6638.9
6382.6
6091.52
5765.47
5404.21
5007.5
4575.1
4106.75
3602.17
1938.87
1899.29
1861.01
1823.94
)


20
(
8285.69
8266.17
8207.6
8109.93
7973.09
7796.97
7581.44
7326.35
7031.5
6696.7
6321.73
5906.34
5450.27
4953.26
4415.03
3835.3
1924.48
1879
1835.02
1792.42
)


20
(
8983.91
8962.14
8896.84
8787.94
8635.36
8439.01
8198.74
7914.38
7585.74
7212.6
6794.74
6331.89
5823.78
5270.14
4670.67
4025.08
1897.36
1846.72
1797.73
1750.29
)


20
(
9556.44
9532.78
9461.78
9343.4
9177.56
8964.12
8702.97
8393.91
8036.75
7631.26
7177.21
6674.32
6122.32
5520.92
4869.81
4168.69
1858.1
1803.1
1749.9
1698.38
)


20
(
9994.41
9969.23
9893.69
9767.73
9591.26
9364.17
9086.32
8757.52
8377.56
7946.23
7463.26
6928.39
6341.33
5701.78
5009.43
4263.99
1807.45
1748.97
1692.4
1637.61
)


20
(
10291
10264.7
10185.9
10054.3
9870.08
9632.98
9342.88
8999.6
8602.93
8152.64
7648.49
7090.18
6477.45
5809.97
5087.45
4309.58
1746.28
1685.26
1626.22
1569.06
)


20
(
10441.7
10414.8
10333.8
10198.8
10009.7
9766.41
9468.71
9116.44
8709.4
8247.37
7730.08
7157.26
6528.63
5843.89
5102.73
4304.83
1675.65
1613.06
1552.5
1493.86
)


20
(
10444.3
10417
10335.3
10199
10008.1
9762.47
9461.92
9106.3
8695.4
8229
7706.84
7128.66
6494.17
5803.09
5055.1
4249.9
1596.74
1533.57
1472.46
1413.29
)


20
(
10298.7
10271.6
10190.4
10055
9865.38
9621.32
9322.73
8969.44
8561.24
8097.92
7579.24
7004.92
6374.71
5688.3
4945.41
4145.74
1510.88
1448.14
1387.45
1328.68
)


20
(
10007.4
9980.96
9901.58
9769.24
9583.84
9345.28
9053.43
8708.11
8309.14
7856.31
7349.37
6788.09
6172.2
5501.42
4775.48
3994.08
1419.5
1358.19
1298.89
1241.46
)


20
(
9575.03
9549.61
9473.33
9346.15
9167.99
8938.75
8658.3
8326.48
7943.11
7508
7020.92
6481.64
5889.9
5245.46
4548.04
3797.37
1324.09
1265.2
1208.23
1153.06
)


20
(
9008.26
8984.28
8912.32
8792.34
8624.27
8408.02
8143.46
7830.45
7468.82
7058.39
6598.95
6090.29
5532.17
4924.34
4266.58
3558.62
1226.1
1170.56
1116.82
1064.79
)


20
(
8315.58
8293.42
8226.94
8116.08
7960.8
7761
7516.58
7227.4
6893.3
6514.13
6089.68
5619.77
5104.19
4542.71
3935.11
3281.17
1126.63
1075.33
1025.7
977.634
)


20
(
7506.8
7486.83
7426.88
7326.94
7186.94
7006.8
6786.43
6525.71
6224.51
5882.67
5500.03
5076.4
4611.61
4105.46
3557.75
2968.28
1026.17
979.927
935.188
891.864
)


20
(
6592.64
6575.16
6522.72
6435.29
6312.81
6155.23
5962.45
5734.38
5470.89
5171.86
4837.14
4466.59
4060.03
3617.3
3138.23
2622.64
923.994
883.545
844.415
806.522
)


20
(
5583.52
5568.83
5524.73
5451.2
5348.21
5215.7
5053.59
4861.8
4640.25
4388.8
4107.36
3795.79
3453.95
3081.71
2678.93
2245.45
817.338
783.332
750.435
718.577
)


20
(
4488.94
4477.25
4442.19
4383.73
4301.84
4196.47
4067.59
3915.11
3738.96
3539.06
3315.31
3067.63
2795.89
2500
2179.85
1835.31
700.231
673.204
647.057
621.737
)


20
(
3316.46
3307.96
3282.45
3239.93
3180.37
3103.74
3010.01
2899.13
2771.05
2625.7
2463.04
2282.99
2085.47
1870.42
1637.76
1387.4
562.671
543.034
524.037
505.64
)


20
(
2074.75
2069.55
2053.95
2027.93
1991.5
1944.64
1887.33
1819.54
1741.26
1652.45
1553.08
1443.13
1322.55
1191.32
1049.38
896.715
393.886
381.913
370.33
359.113
)


20
(
783.62
781.78
776.258
767.057
754.178
737.623
717.395
693.498
665.934
634.709
599.827
561.294
519.115
473.297
423.844
370.765
196.141
191.98
187.954
184.055
)


20
(
2175.43
2174.44
2171.47
2166.48
2159.46
2150.36
2139.11
2125.65
2109.9
2091.77
2071.15
2047.94
2022.01
1993.24
1961.49
1926.63
1810.51
1807.79
1805.17
1802.64
)


20
(
3345.92
3341.47
3328.14
3305.89
3274.68
3234.46
3185.15
3126.67
3058.91
2981.76
2895.09
2798.77
2692.65
2576.57
2450.37
2313.88
1863
1852.31
1841.97
1831.96
)


20
(
4477.87
4470.05
4446.59
4407.46
4352.6
4281.96
4195.44
4092.93
3974.33
3839.48
3688.25
3520.47
3335.96
3134.55
2916.03
2680.23
1902.19
1883.71
1865.83
1848.52
)


20
(
5553.86
5542.8
5509.6
5454.24
5376.65
5276.75
5154.45
5009.63
4842.15
4651.84
4438.55
4202.08
3942.23
3658.8
3351.57
3020.32
1927.91
1901.94
1876.81
1852.49
)


20
(
6557.28
6543.15
6500.77
6430.08
6331.02
6203.52
6047.44
5862.67
5649.04
5406.39
5134.51
4833.21
4502.25
4141.42
3750.47
3329.16
1940.1
1907.06
1875.1
1844.15
)


20
(
7472.62
7455.66
7404.76
7319.9
7200.99
7047.94
6860.63
6638.9
6382.6
6091.52
5765.47
5404.21
5007.5
4575.1
4106.75
3602.17
1938.87
1899.29
1861.01
1823.94
)


20
(
8285.69
8266.17
8207.6
8109.93
7973.09
7796.97
7581.44
7326.35
7031.5
6696.7
6321.73
5906.34
5450.27
4953.26
4415.03
3835.3
1924.48
1879
1835.02
1792.42
)


20
(
8983.91
8962.14
8896.84
8787.94
8635.36
8439.01
8198.74
7914.38
7585.74
7212.6
6794.74
6331.89
5823.78
5270.14
4670.67
4025.08
1897.36
1846.72
1797.73
1750.29
)


20
(
9556.44
9532.78
9461.78
9343.4
9177.56
8964.12
8702.97
8393.91
8036.75
7631.26
7177.21
6674.32
6122.32
5520.92
4869.81
4168.69
1858.1
1803.1
1749.9
1698.38
)


20
(
9994.41
9969.23
9893.69
9767.73
9591.26
9364.17
9086.32
8757.52
8377.56
7946.23
7463.26
6928.39
6341.33
5701.78
5009.43
4263.99
1807.45
1748.97
1692.4
1637.61
)


20
(
10291
10264.7
10185.9
10054.3
9870.08
9632.98
9342.88
8999.6
8602.93
8152.64
7648.49
7090.18
6477.44
5809.97
5087.45
4309.58
1746.28
1685.26
1626.22
1569.06
)


20
(
10441.7
10414.8
10333.8
10198.8
10009.7
9766.41
9468.71
9116.44
8709.4
8247.37
7730.08
7157.26
6528.63
5843.89
5102.73
4304.83
1675.65
1613.06
1552.5
1493.86
)


20
(
10444.3
10417
10335.3
10199
10008.1
9762.47
9461.92
9106.3
8695.4
8229
7706.84
7128.66
6494.17
5803.09
5055.1
4249.9
1596.74
1533.57
1472.46
1413.29
)


20
(
10298.7
10271.6
10190.4
10055
9865.38
9621.32
9322.73
8969.44
8561.24
8097.92
7579.24
7004.92
6374.71
5688.3
4945.41
4145.74
1510.88
1448.14
1387.45
1328.68
)


20
(
10007.4
9980.96
9901.58
9769.24
9583.84
9345.28
9053.43
8708.11
8309.14
7856.31
7349.37
6788.09
6172.2
5501.42
4775.48
3994.08
1419.5
1358.19
1298.89
1241.46
)


20
(
9575.03
9549.61
9473.33
9346.15
9167.99
8938.75
8658.3
8326.48
7943.11
7508
7020.92
6481.64
5889.9
5245.46
4548.04
3797.37
1324.09
1265.2
1208.23
1153.06
)


20
(
9008.26
8984.28
8912.32
8792.34
8624.27
8408.02
8143.46
7830.45
7468.82
7058.39
6598.95
6090.29
5532.17
4924.34
4266.58
3558.62
1226.1
1170.56
1116.82
1064.79
)


20
(
8315.58
8293.42
8226.93
8116.08
7960.8
7761
7516.58
7227.4
6893.3
6514.12
6089.68
5619.77
5104.19
4542.71
3935.11
3281.17
1126.63
1075.33
1025.7
977.634
)


20
(
7506.8
7486.83
7426.88
7326.94
7186.94
7006.8
6786.43
6525.71
6224.51
5882.67
5500.03
5076.4
4611.61
4105.46
3557.75
2968.28
1026.17
979.927
935.188
891.864
)


20
(
6592.64
6575.16
6522.72
6435.29
6312.81
6155.23
5962.45
5734.37
5470.89
5171.86
4837.14
4466.59
4060.03
3617.3
3138.23
2622.64
923.994
883.545
844.415
806.522
)


20
(
5583.52
5568.83
5524.73
5451.2
5348.21
5215.7
5053.59
4861.8
4640.25
4388.8
4107.36
3795.79
3453.95
3081.71
2678.93
2245.45
817.338
783.332
750.435
718.577
)


20
(
4488.94
4477.25
4442.19
4383.73
4301.84
4196.48
4067.59
3915.11
3738.96
3539.06
3315.32
3067.63
2795.9
2500
2179.85
1835.31
700.231
673.204
647.057
621.737
)


20
(
3316.46
3307.96
3282.45
3239.93
3180.37
3103.75
3010.01
2899.13
2771.05
2625.7
2463.04
2282.99
2085.47
1870.42
1637.76
1387.4
562.671
543.034
524.037
505.64
)


20
(
2074.75
2069.55
2053.94
2027.93
1991.5
1944.64
1887.33
1819.54
1741.26
1652.45
1553.08
1443.13
1322.55
1191.32
1049.38
896.715
393.886
381.913
370.33
359.113
)


20
(
783.62
781.78
776.258
767.058
754.178
737.624
717.395
693.498
665.934
634.709
599.827
561.294
519.115
473.297
423.844
370.765
196.141
191.98
187.954
184.055
)


20
(
2148.13
2147.14
2144.17
2139.21
2132.21
2123.14
2111.93
2098.53
2082.85
2064.79
2044.27
2021.17
1995.38
1966.76
1935.2
1900.55
1785.15
1782.45
1779.84
1777.32
)


20
(
3306.1
3301.7
3288.48
3266.43
3235.5
3195.64
3146.78
3088.82
3021.68
2945.23
2859.36
2763.93
2658.79
2543.79
2418.77
2283.56
1836.93
1826.34
1816.1
1806.19
)


20
(
4426
4418.26
4395.03
4356.27
4301.95
4231.99
4146.3
4044.79
3927.34
3793.81
3644.06
3477.92
3295.22
3095.78
2879.43
2645.95
1875.63
1857.33
1839.63
1822.49
)


20
(
5490.6
5479.65
5446.78
5391.97
5315.15
5216.25
5095.17
4951.79
4785.97
4597.57
4386.41
4152.3
3895.06
3614.48
3310.35
2982.44
1901.07
1875.36
1850.49
1826.4
)


20
(
6483.45
6469.47
6427.51
6357.53
6259.48
6133.26
5978.76
5795.85
5584.38
5344.18
5075.06
4776.81
4449.21
4092.05
3705.08
3288.07
1913.19
1880.49
1848.85
1818.22
)


20
(
7389.22
7372.43
7322.05
7238.05
7120.35
6968.86
6783.45
6563.98
6310.29
6022.18
5699.46
5341.89
4949.24
4521.27
4057.71
3558.32
1912.1
1872.93
1835.04
1798.35
)


20
(
8193.86
8174.54
8116.57
8019.89
7884.45
7710.13
7496.81
7244.33
6952.5
6621.14
6250.01
5838.89
5387.51
4895.61
4362.92
3789.17
1898.06
1853.06
1809.52
1767.36
)


20
(
8884.91
8863.37
8798.73
8690.95
8539.94
8345.61
8107.8
7826.37
7501.11
7131.81
6718.25
6260.17
5757.31
5209.38
4616.11
3977.2
1871.5
1821.38
1772.9
1725.95
)


20
(
9451.66
9428.24
9357.98
9240.82
9076.68
8865.45
8606.98
8301.11
7947.63
7546.34
7096.97
6599.29
6053
5457.82
4813.45
4119.6
1832.98
1778.55
1725.9
1674.91
)


20
(
9885.32
9860.4
9785.64
9660.98
9486.33
9261.59
8986.61
8661.21
8285.18
7858.31
7380.34
6851.01
6270.04
5637.12
4951.97
4214.26
1783.25
1725.38
1669.39
1615.18
)


20
(
10179.2
10153.2
10075.1
9944.93
9762.58
9527.93
9240.84
8901.11
8508.55
8062.94
7564.01
7011.5
6405.12
5744.58
5029.58
4259.79
1723.17
1662.78
1604.36
1547.79
)


20
(
10328.7
10302
10221.9
10088.3
9901.18
9660.38
9365.76
9017.15
8614.34
8157.1
7645.18
7078.32
6456.22
5778.61
5045.16
4255.57
1653.79
1591.84
1531.92
1473.89
)


20
(
10331.7
10304.7
10223.8
10089
9900.05
9656.94
9359.52
9007.59
8600.96
8139.4
7622.68
7050.51
6422.63
5738.74
4998.55
4201.74
1576.25
1513.74
1453.27
1394.71
)


20
(
10188.1
10161.4
10081
9947.01
9759.31
9517.79
9222.31
8872.69
8468.74
8010.24
7496.95
6928.62
6304.97
5625.72
4890.57
4099.25
1491.89
1429.81
1369.75
1311.59
)


20
(
9900.45
9874.27
9795.72
9664.75
9481.28
9245.2
8956.39
8614.66
8219.85
7771.73
7270.08
6714.65
6105.18
5441.4
4723.03
3949.8
1402.1
1341.44
1282.75
1225.92
)


20
(
9473.17
9448.01
9372.53
9246.67
9070.37
8843.51
8565.98
8237.62
7858.25
7427.67
6945.67
6412.02
5826.46
5188.74
4498.61
3755.79
1308.36
1250.08
1193.7
1139.11
)


20
(
8912.91
8889.18
8817.97
8699.24
8532.92
8318.92
8057.12
7747.38
7389.52
6983.37
6528.73
6025.38
5473.08
4871.61
4220.72
3520.17
1212.04
1157.08
1103.91
1052.42
)


20
(
8228.02
8206.09
8140.3
8030.61
7876.94
7679.23
7437.36
7151.19
6820.58
6445.37
6025.36
5560.36
5050.16
4494.55
3893.31
3246.21
1114.23
1063.46
1014.35
966.786
)


20
(
7428.19
7408.42
7349.1
7250.2
7111.66
6933.4
6715.33
6457.34
6159.28
5821.01
5442.37
5023.17
4563.24
4062.39
3520.4
2937.1
1015.34
969.573
925.303
882.432
)


20
(
6523.96
6506.67
6454.77
6368.25
6247.06
6091.12
5900.35
5674.66
5413.93
5118.02
4786.8
4420.12
4017.82
3579.72
3105.66
2595.47
914.614
874.589
835.869
798.372
)


20
(
5525.67
5511.12
5467.49
5394.73
5292.81
5161.68
5001.26
4811.48
4592.23
4343.42
4064.91
3756.6
3418.33
3049.99
2651.41
2222.47
809.31
775.66
743.107
711.582
)


20
(
4442.7
4431.14
4396.44
4338.59
4257.55
4153.28
4025.73
3874.84
3700.53
3502.71
3281.3
3036.19
2767.3
2474.49
2157.68
1816.74
693.526
666.781
640.908
615.853
)


20
(
3282.62
3274.21
3248.97
3206.88
3147.94
3072.11
2979.34
2869.61
2742.85
2599.02
2438.04
2259.86
2064.39
1851.58
1621.33
1373.59
557.443
538.01
519.21
501.005
)


20
(
2054.08
2048.93
2033.49
2007.75
1971.69
1925.31
1868.58
1801.49
1724.01
1636.11
1537.76
1428.94
1309.6
1179.72
1039.25
888.156
390.523
378.673
367.209
356.108
)


20
(
776.679
774.857
769.389
760.277
747.523
731.128
711.097
687.431
660.136
629.217
594.677
556.522
514.759
469.393
420.431
367.879
194.996
190.876
186.89
183.03
)


20
(
2182.03
2181.03
2178.05
2173.07
2166.04
2156.92
2145.66
2132.19
2116.42
2098.27
2077.63
2054.38
2028.42
1999.61
1967.81
1932.89
1816.59
1813.87
1811.24
1808.71
)


20
(
3355.63
3351.17
3337.81
3315.51
3284.23
3243.92
3194.5
3135.89
3067.97
2990.65
2903.78
2807.24
2700.87
2584.52
2458.03
2321.22
1869.27
1858.56
1848.2
1838.17
)


20
(
4490.58
4482.75
4459.23
4420
4365.02
4294.2
4207.47
4104.72
3985.83
3850.66
3699.06
3530.87
3345.91
3144
2924.95
2688.57
1908.62
1890.09
1872.16
1854.81
)


20
(
5569.41
5558.32
5525.05
5469.55
5391.76
5291.62
5169.02
5023.84
4855.94
4665.17
4451.34
4214.28
3953.79
3669.65
3361.66
3029.58
1934.43
1908.39
1883.2
1858.81
)


20
(
6575.47
6561.31
6518.82
6447.95
6348.65
6220.82
6064.36
5879.12
5664.96
5421.7
5149.14
4847.07
4515.29
4153.54
3761.61
3339.23
1946.65
1913.53
1881.49
1850.46
)


20
(
7493.2
7476.2
7425.18
7340.1
7220.89
7067.45
6879.66
6657.38
6400.43
6108.62
5781.74
5419.56
5021.85
4588.35
4118.81
3612.95
1945.41
1905.73
1867.35
1830.18
)


20
(
8308.38
8288.81
8230.09
8132.18
7994.99
7818.42
7602.34
7346.6
7051.01
6715.36
6339.43
5922.98
5465.75
4967.47
4427.87
3846.66
1930.95
1885.36
1841.26
1798.55
)


20
(
9008.39
8986.57
8921.09
8811.92
8658.96
8462.1
8221.22
7936.13
7606.65
7232.57
6813.64
6349.6
5840.2
5285.14
4684.14
4036.89
1903.72
1852.94
1803.83
1756.27
)


20
(
9582.37
9558.65
9487.47
9368.79
9202.52
8988.54
8726.71
8416.86
8058.79
7652.27
7197.06
6692.88
6139.47
5536.52
4883.74
4180.81
1864.29
1809.15
1755.81
1704.15
)


20
(
10021.4
9996.17
9920.44
9794.15
9617.24
9389.57
9111
8781.36
8400.43
7967.99
7483.78
6947.54
6358.97
5717.78
5023.65
4276.29
1813.42
1754.79
1698.07
1643.15
)


20
(
10318.7
10292.4
10213.3
10081.4
9896.71
9659
9368.15
9023.99
8626.3
8174.86
7669.41
7109.67
6495.36
5826.16
5101.79
4321.9
1752
1690.82
1631.63
1574.32
)


20
(
10469.8
10442.7
10361.5
10226.2
10036.6
9792.69
9494.21
9141.04
8732.96
8269.74
7751.12
7176.83
6546.58
5860.07
5116.99
4317.04
1681.07
1618.32
1557.61
1498.82
)


20
(
10472.2
10444.9
10362.9
10226.3
10034.9
9788.63
9487.3
9130.77
8718.81
8251.21
7727.7
7148.03
6511.91
5819.04
5069.12
4261.84
1601.83
1538.5
1477.23
1417.9
)


20
(
10326.1
10299
10217.6
10081.8
9891.67
9646.99
9347.63
8993.43
8584.18
8119.67
7599.64
7023.85
6392
5703.83
4959.02
4157.28
1515.61
1452.71
1391.86
1332.94
)


20
(
10033.9
10007.4
9927.84
9795.15
9609.27
9370.1
9077.49
8731.29
8331.29
7877.29
7369.04
6806.32
6188.83
5516.32
4788.5
4005.08
1423.83
1362.37
1302.92
1245.34
)


20
(
9600.3
9574.81
9498.33
9370.82
9192.2
8962.37
8681.2
8348.52
7964.17
7527.93
7039.59
6498.92
5905.65
5259.54
4560.32
3807.71
1328.03
1268.98
1211.86
1156.55
)


20
(
9031.91
9007.87
8935.72
8815.43
8646.93
8430.12
8164.88
7851.06
7488.5
7077.01
6616.38
6106.4
5546.84
4937.44
4277.97
3568.18
1229.61
1173.93
1120.06
1067.89
)


20
(
8337.3
8315.08
8248.43
8137.29
7981.61
7781.29
7536.24
7246.3
6911.35
6531.19
6105.65
5634.52
5117.6
4554.67
3945.5
3289.86
1129.74
1078.3
1028.54
980.355
)


20
(
7526.31
7506.28
7446.18
7345.98
7205.61
7025.01
6804.08
6542.68
6240.7
5897.97
5514.34
5089.62
4623.63
4116.17
3567.03
2976.03
1028.89
982.523
937.669
894.232
)


20
(
6609.68
6592.16
6539.58
6451.92
6329.13
6171.14
5977.86
5749.2
5485.03
5185.23
4849.64
4478.13
4070.52
3626.64
3146.33
2629.41
926.348
885.794
846.563
808.571
)


20
(
5597.88
5583.15
5538.93
5465.22
5361.96
5229.1
5066.58
4874.3
4652.17
4400.07
4117.9
3805.52
3462.8
3089.6
2685.77
2251.17
819.355
785.261
752.278
720.338
)


20
(
4500.42
4488.7
4453.55
4394.94
4312.83
4207.2
4077.98
3925.11
3748.5
3548.09
3323.77
3075.44
2803.01
2506.35
2185.37
1839.93
701.92
674.823
648.609
623.223
)


20
(
3324.86
3316.34
3290.77
3248.14
3188.43
3111.61
3017.63
2906.47
2778.05
2632.34
2469.26
2288.74
2090.72
1875.11
1641.85
1390.85
563.992
544.304
525.258
506.814
)


20
(
2079.88
2074.67
2059.03
2032.95
1996.43
1949.45
1891.99
1824.03
1745.55
1656.51
1556.9
1446.66
1325.78
1194.21
1051.91
898.853
394.738
382.734
371.122
359.876
)

