/*--------------------------------*- C++ -*----------------------------------*\
| =========                 |                                                 |
| \\      /  F ield         | OpenFOAM: The Open Source CFD Toolbox           |
|  \\    /   O peration     | Version:  2212                                  |
|   \\  /    A nd           | Website:  www.openfoam.com                      |
|    \\/     M anipulation  |                                                 |
\*---------------------------------------------------------------------------*/
FoamFile
{
    version     2.0;
    format      ascii;
    arch        "LSB;label=32;scalar=64";
    class       volScalarField;
    location    "72/neutroRegion";
    object      TClad;
}
// * * * * * * * * * * * * * * * * * * * * * * * * * * * * * * * * * * * * * //

dimensions      [0 0 0 1 0 0 0];

internalField   nonuniform List<scalar> 
350
(
0
0
0
0
0
0
0
0
0
0
0
0
0
0
0
0
0
0
0
0
0
0
0
0
0
0
0
0
0
0
0
0
0
0
0
0
0
0
0
0
0
0
0
0
0
0
0
0
0
0
1845.85
1883.93
1909.07
1921.26
1920.64
1907.46
1882.16
1845.31
1797.61
1739.91
1673.19
1598.54
1517.2
1430.49
1339.86
1246.77
1152.6
1058.42
964.639
870.426
772.853
665.638
538.042
377.937
186.906
1874.3
1913
1938.53
1950.88
1950.18
1936.72
1910.91
1873.34
1824.72
1765.93
1697.95
1621.89
1539
1450.63
1358.25
1263.35
1167.36
1071.41
975.947
880.203
781.241
672.695
543.611
381.556
188.129
1841.22
1879.23
1904.33
1916.52
1915.92
1902.81
1877.61
1840.88
1793.34
1735.83
1669.32
1594.9
1513.81
1427.37
1337.02
1244.22
1150.33
1056.44
962.916
868.942
771.588
664.585
537.223
377.409
186.72
1867.9
1906.44
1931.87
1944.17
1943.47
1930.06
1904.36
1866.94
1818.52
1759.97
1692.27
1616.52
1533.98
1445.99
1354.01
1259.52
1163.95
1068.4
973.333
877.942
779.3
671.061
542.32
380.716
187.847
1867.9
1906.44
1931.87
1944.17
1943.47
1930.06
1904.36
1866.94
1818.52
1759.97
1692.27
1616.52
1533.98
1445.99
1354.01
1259.52
1163.95
1068.4
973.333
877.942
779.3
671.061
542.32
380.716
187.847
1841.23
1879.23
1904.33
1916.52
1915.92
1902.81
1877.61
1840.88
1793.34
1735.83
1669.32
1594.9
1513.81
1427.38
1337.02
1244.22
1150.34
1056.44
962.917
868.943
771.589
664.586
537.224
377.41
186.72
1874.3
1913
1938.53
1950.88
1950.18
1936.72
1910.91
1873.34
1824.72
1765.93
1697.95
1621.89
1539
1450.63
1358.25
1263.35
1167.36
1071.41
975.948
880.203
781.241
672.695
543.611
381.556
188.129
1845.85
1883.93
1909.07
1921.26
1920.64
1907.46
1882.16
1845.31
1797.61
1739.91
1673.19
1598.54
1517.2
1430.49
1339.86
1246.77
1152.6
1058.42
964.639
870.426
772.853
665.638
538.043
377.937
186.906
1867.9
1906.44
1931.87
1944.17
1943.47
1930.06
1904.36
1866.94
1818.52
1759.97
1692.27
1616.52
1533.98
1445.99
1354.01
1259.52
1163.95
1068.4
973.333
877.942
779.3
671.061
542.32
380.716
187.847
1841.22
1879.23
1904.33
1916.52
1915.92
1902.81
1877.61
1840.88
1793.34
1735.83
1669.32
1594.9
1513.81
1427.37
1337.02
1244.22
1150.34
1056.44
962.917
868.942
771.588
664.586
537.223
377.409
186.72
1841.23
1879.23
1904.33
1916.52
1915.92
1902.81
1877.61
1840.88
1793.34
1735.83
1669.32
1594.9
1513.81
1427.38
1337.02
1244.22
1150.34
1056.44
962.917
868.943
771.589
664.586
537.224
377.41
186.72
1867.9
1906.44
1931.87
1944.17
1943.47
1930.06
1904.36
1866.94
1818.52
1759.97
1692.27
1616.52
1533.98
1445.99
1354.01
1259.52
1163.95
1068.4
973.333
877.942
779.3
671.061
542.32
380.716
187.847
)
;

boundaryField
{
    outletCentralUnloaded
    {
        type            zeroGradient;
    }
    inletCentralUnloaded
    {
        type            zeroGradient;
    }
    outletFuelElement
    {
        type            zeroGradient;
    }
    inletFuelElement
    {
        type            zeroGradient;
    }
    defaultFaces
    {
        type            zeroGradient;
    }
}


// ************************************************************************* //
