/*--------------------------------*- C++ -*----------------------------------*\
| =========                 |                                                 |
| \\      /  F ield         | OpenFOAM: The Open Source CFD Toolbox           |
|  \\    /   O peration     | Version:  2212                                  |
|   \\  /    A nd           | Website:  www.openfoam.com                      |
|    \\/     M anipulation  |                                                 |
\*---------------------------------------------------------------------------*/
FoamFile
{
    version     2.0;
    format      ascii;
    arch        "LSB;label=32;scalar=64";
    class       surfaceScalarField;
    location    "17/fluidRegion";
    object      alphaPhi;
}
// * * * * * * * * * * * * * * * * * * * * * * * * * * * * * * * * * * * * * //

dimensions      [0 3 -1 0 0 0 0];

oriented        oriented;

internalField   nonuniform List<scalar> 
661
(
-0.000538208
-1.14782e-15
-0.000538164
-1.39281e-15
-0.00053812
-1.65412e-15
-0.000538076
-1.51352e-15
-0.000538032
-1.54874e-15
-0.000537988
-1.44379e-15
-0.000537943
-1.57662e-15
-0.000537899
-1.11798e-15
-0.000537855
-1.15073e-15
-0.000537811
-1.33931e-15
-0.000537767
-1.17593e-15
-0.000537723
-1.2358e-15
-0.000537679
-9.58453e-16
-0.000537635
-1.11121e-15
-0.000537591
-7.56187e-16
-0.000537547
-5.48924e-16
-0.000537503
-8.00576e-16
-0.000537459
-3.78049e-16
-0.000537415
-5.76563e-16
-0.000537371
-6.61203e-16
-0.000537327
-6.11272e-16
-0.000537282
-9.31689e-16
-0.000537239
-1.20193e-15
-0.000537195
1.37097e-15
1.35979e-14
-0.000538208
-0.000538164
-0.00053812
-0.000538076
-0.000538032
-0.000537988
-0.000537943
-0.000537899
-0.000537855
-0.000537811
-0.000537767
-0.000537723
-0.000537679
-0.000537635
-0.000537591
-0.000537547
-0.000537503
-0.000537459
-0.000537415
-0.000537371
-0.000537327
-0.000537282
-0.000537239
-0.000537195
-0.0149916
8.43859e-07
-0.0148077
6.42332e-07
-0.0145205
7.21719e-07
-0.0141361
6.38503e-07
-0.0136613
5.64145e-07
-0.0131037
4.88865e-07
-0.0124716
4.10873e-07
-0.0117737
3.26096e-07
-0.0110197
2.30527e-07
-0.0102198
1.20173e-07
-0.00938489
-8.36091e-09
-0.0085271
-1.48818e-07
-0.00765918
-2.95758e-07
-0.00679453
-4.36224e-07
-0.00594668
-5.55353e-07
-0.00512867
-6.42031e-07
-0.00435257
-6.92257e-07
-0.00362908
-7.10713e-07
-0.00296756
-7.07171e-07
-0.00237651
-6.91667e-07
-0.00186386
-6.69661e-07
-0.00143745
-6.37696e-07
-0.0011048
-5.85999e-07
-0.000872288
-4.94206e-07
-4.166e-07
-0.0150776
-7.70437e-08
-7.72476e-08
-0.0148944
-2.00067e-07
-2.03482e-07
-0.0146068
-1.79099e-07
-1.7983e-07
-0.0142212
-1.54262e-07
-1.53284e-07
-0.0137445
-1.32007e-07
-1.29276e-07
-0.0131844
-1.09873e-07
-1.0672e-07
-0.012549
-8.70479e-08
-8.36246e-08
-0.0118474
-6.26942e-08
-5.95124e-08
-0.0110889
-3.52916e-08
-3.22117e-08
-0.010284
-3.37683e-09
-6.76915e-10
-0.00944361
3.21685e-08
3.46557e-08
-0.00857995
7.39639e-08
7.60333e-08
-0.00770586
1.17995e-07
1.19801e-07
-0.00683491
1.60958e-07
1.62307e-07
-0.00598076
1.98448e-07
1.99404e-07
-0.00515667
2.26446e-07
2.26909e-07
-0.00437483
2.43504e-07
2.43536e-07
-0.0036461
2.50583e-07
2.50153e-07
-0.00297992
2.50667e-07
2.49827e-07
-0.00238488
2.46563e-07
2.4534e-07
-0.00186897
2.39621e-07
2.38179e-07
-0.00144009
2.27436e-07
2.25795e-07
-0.0011058
2.0439e-07
2.02577e-07
-0.000872438
1.57011e-07
1.55033e-07
1.18753e-07
1.16903e-07
-0.0149774
5.57759e-07
-0.0147936
7.03143e-07
-0.0145065
6.71985e-07
-0.0141223
5.87988e-07
-0.0136478
5.08496e-07
-0.0130907
4.29335e-07
-0.0124591
3.46981e-07
-0.0117619
2.57678e-07
-0.0110087
1.56235e-07
-0.0102095
3.89887e-08
-0.00937553
-9.5939e-08
-0.00851869
-2.44298e-07
-0.00765176
-3.98706e-07
-0.00678811
-5.44669e-07
-0.00594124
-6.66859e-07
-0.00512419
-7.53468e-07
-0.00434898
-8.01225e-07
-0.00362631
-8.15363e-07
-0.0029655
-8.068e-07
-0.00237507
-7.85578e-07
-0.00186291
-7.56438e-07
-0.00143687
-7.13894e-07
-0.00110448
-6.41535e-07
-0.000872133
-5.13671e-07
-3.9524e-07
-0.0150584
1.3144e-09
-0.014875
-4.027e-10
-0.0145875
1.11028e-10
-0.0142021
3.75988e-11
-0.0137258
8.55913e-11
-0.0131662
9.69057e-11
-0.0125316
6.83199e-11
-0.0118307
9.98826e-11
-0.0110733
1.10588e-10
-0.0102694
9.54839e-11
-0.00943029
1.11461e-10
-0.00856794
1.67816e-10
-0.00769525
2.11479e-10
-0.00682571
2.36594e-10
-0.005973
2.16349e-10
-0.00515028
1.76991e-10
-0.00436975
1.51694e-10
-0.00364222
1.89947e-10
-0.0029771
1.84044e-10
-0.00238298
1.84802e-10
-0.00186781
1.93758e-10
-0.0014395
1.03656e-10
-0.00110559
-2.01211e-11
-0.000872421
-1.27173e-10
-2.63252e-10
-0.0150585
-5.55083e-07
-0.014875
-7.03989e-07
-0.0145875
-6.71624e-07
-0.0142021
-5.87802e-07
-0.0137258
-5.08257e-07
-0.0131662
-4.2913e-07
-0.0125316
-3.46812e-07
-0.0118307
-2.57462e-07
-0.0110733
-1.55999e-07
-0.0102694
-3.87629e-08
-0.0094303
9.62109e-08
-0.00856795
2.44673e-07
-0.00769526
3.99155e-07
-0.00682572
5.45155e-07
-0.005973
6.673e-07
-0.00515029
7.53847e-07
-0.00436976
8.01568e-07
-0.00364222
8.15762e-07
-0.0029771
8.07178e-07
-0.00238298
7.85948e-07
-0.00186782
7.56801e-07
-0.00143951
7.1411e-07
-0.00110559
6.41514e-07
-0.000872422
5.1342e-07
3.94736e-07
-0.0149774
7.43562e-08
-0.0147936
1.99154e-07
-0.0145065
1.78557e-07
-0.0141223
1.54403e-07
-0.0136478
1.33088e-07
-0.0130907
1.10855e-07
-0.0124591
8.83556e-08
-0.011762
6.36391e-08
-0.0110087
3.63897e-08
-0.0102095
4.05822e-09
-0.00937554
-3.14405e-08
-0.0085187
-7.35469e-08
-0.00765176
-1.1753e-07
-0.00678812
-1.60807e-07
-0.00594125
-1.98359e-07
-0.0051242
-2.26679e-07
-0.00434899
-2.43825e-07
-0.00362631
-2.51123e-07
-0.0029655
-2.513e-07
-0.00237507
-2.47391e-07
-0.0018629
-2.40482e-07
-0.00143687
-2.28371e-07
-0.00110448
-2.05269e-07
-0.000872132
-1.57719e-07
-1.19213e-07
-0.0150776
-8.45747e-07
-7.85926e-08
-0.0148944
-6.44544e-07
-2.02336e-07
-0.0146068
-7.21656e-07
-1.80066e-07
-0.0142212
-6.37337e-07
-1.53668e-07
-0.0137445
-5.61561e-07
-1.30052e-07
-0.0131844
-4.86514e-07
-1.07439e-07
-0.012549
-4.08108e-07
-8.44199e-08
-0.0118474
-3.23917e-07
-6.02153e-08
-0.0110889
-2.28185e-07
-3.2951e-08
-0.0102839
-1.18469e-07
-1.2824e-09
-0.00944361
1.01116e-08
3.40119e-08
-0.00857995
1.50041e-07
7.5466e-08
-0.00770586
2.96981e-07
1.19201e-07
-0.00683491
4.36909e-07
1.61805e-07
-0.00598076
5.55873e-07
1.98973e-07
-0.00515667
6.42012e-07
2.2663e-07
-0.00437483
6.92056e-07
2.4334e-07
-0.0036461
7.10129e-07
2.5002e-07
-0.00297992
7.06429e-07
2.49756e-07
-0.00238488
6.90634e-07
2.45349e-07
-0.00186897
6.68571e-07
2.38216e-07
-0.00144009
6.36466e-07
2.25943e-07
-0.0011058
5.84756e-07
2.02868e-07
-0.000872438
4.93015e-07
1.55441e-07
4.15567e-07
1.1745e-07
-0.0149916
-0.0148077
-0.0145205
-0.0141361
-0.0136613
-0.0131037
-0.0124716
-0.0117737
-0.0110197
-0.0102198
-0.00938489
-0.0085271
-0.00765918
-0.00679453
-0.00594668
-0.00512867
-0.00435257
-0.00362908
-0.00296756
-0.00237651
-0.00186386
-0.00143745
-0.0011048
-0.000872288
-0.0150584
-5.58071e-07
1.4098e-09
-0.014875
-7.03163e-07
-6.48277e-10
-0.0145875
-6.71664e-07
1.79255e-10
-0.0142021
-5.87611e-07
4.1943e-11
-0.0137258
-5.07911e-07
8.432e-11
-0.0131662
-4.28947e-07
-1.62171e-11
-0.0125316
-3.46512e-07
6.33075e-11
-0.0118307
-2.5741e-07
2.35367e-11
-0.0110733
-1.5588e-07
8.84013e-11
-0.0102694
-3.88645e-08
1.01225e-10
-0.00943029
9.60839e-08
2.31977e-10
-0.00856794
2.44364e-07
1.55945e-10
-0.00769525
3.98843e-07
2.05096e-10
-0.00682571
5.44668e-07
1.78214e-10
-0.005973
6.66828e-07
2.52139e-10
-0.00515028
7.53253e-07
2.66761e-10
-0.00436975
8.00994e-07
3.17188e-10
-0.00364222
8.15092e-07
2.61427e-10
-0.0029771
8.06546e-07
2.88197e-10
-0.00238298
7.85297e-07
2.72216e-10
-0.00186781
7.56197e-07
2.61271e-10
-0.0014395
7.13591e-07
2.53131e-10
-0.00110559
6.41228e-07
2.1261e-10
-0.000872421
5.13455e-07
4.93505e-11
3.95115e-07
-1.30201e-10
-0.0149774
-0.0147936
-0.0145065
-0.0141223
-0.0136478
-0.0130907
-0.0124591
-0.0117619
-0.0110087
-0.0102095
-0.00937553
-0.00851869
-0.00765176
-0.00678811
-0.00594124
-0.00512419
-0.00434898
-0.00362631
-0.0029655
-0.00237507
-0.00186291
-0.00143687
-0.00110448
-0.000872133
-0.0149774
5.528e-07
-0.0147936
7.01047e-07
-0.0145065
6.71166e-07
-0.0141223
5.88751e-07
-0.0136478
5.11206e-07
-0.0130907
4.31869e-07
-0.0124591
3.50168e-07
-0.011762
2.60079e-07
-0.0110087
1.58903e-07
-0.0102095
4.07962e-08
-0.00937554
-9.40009e-08
-0.0085187
-2.43173e-07
-0.00765176
-3.97581e-07
-0.00678812
-5.44287e-07
-0.00594125
-6.66602e-07
-0.0051242
-7.53889e-07
-0.00434899
-8.01837e-07
-0.00362631
-8.16554e-07
-0.0029655
-8.082e-07
-0.00237507
-7.87409e-07
-0.0018629
-7.58348e-07
-0.00143687
-7.15925e-07
-0.00110448
-6.43394e-07
-0.000872132
-5.15288e-07
-3.96297e-07
-0.0150585
-0.014875
-0.0145875
-0.0142021
-0.0137258
-0.0131662
-0.0125316
-0.0118307
-0.0110733
-0.0102694
-0.0094303
-0.00856795
-0.00769526
-0.00682572
-0.005973
-0.00515029
-0.00436976
-0.00364222
-0.0029771
-0.00238298
-0.00186782
-0.00143951
-0.00110559
-0.000872422
)
;

boundaryField
{
    outletCentralUnloaded
    {
        type            calculated;
        value           nonuniform List<scalar> 2(0.000538253 0.000538253);
    }
    inletCentralUnloaded
    {
        type            calculated;
        value           uniform -0.000540134;
    }
    outletFuelElement
    {
        type            calculated;
        value           nonuniform List<scalar> 
12
(
0.0151368
0.0152237
0.0151229
0.0152043
0.0152043
0.0151229
0.0152237
0.0151368
0.0152043
0.0151229
0.0151229
0.0152043
)
;
    }
    inletFuelElement
    {
        type            calculated;
        value           nonuniform List<scalar> 
12
(
-0.000722059
-0.00072206
-0.000722059
-0.000722059
-0.00072206
-0.000722059
-0.00072206
-0.000722059
-0.000722059
-0.000722059
-0.000722059
-0.00072206
)
;
    }
    defaultFaces
    {
        type            calculated;
        value           nonuniform List<scalar> 
450
(
1.51862e-24
-2.97933e-23
0
1.66554e-23
1.18055e-23
0
9.92392e-24
3.48684e-23
0
-3.88596e-23
-2.49549e-23
0
-1.90681e-23
-3.46198e-23
0
-3.72842e-23
-1.29383e-23
0
-2.33414e-23
-3.87131e-24
0
-2.18446e-23
-1.26519e-23
0
-1.46333e-23
-5.63608e-24
0
-7.56462e-24
-3.92425e-24
0
5.20216e-25
3.13996e-25
0
1.02912e-23
4.0758e-24
0
2.21494e-23
8.57899e-24
0
2.53493e-23
1.06081e-23
0
3.93932e-23
1.53143e-23
0
3.21521e-23
2.00774e-23
0
3.03259e-23
6.38252e-24
0
2.86031e-23
1.53997e-23
0
3.73136e-23
-5.44429e-23
0
-1.44577e-23
-2.76568e-23
0
-2.47199e-23
-1.72349e-23
0
3.12946e-23
-1.92911e-23
0
-2.17599e-23
1.21582e-26
0
-1.79023e-23
-5.60727e-24
0
-1.76189e-23
-9.08926e-24
0
1.2034e-23
0
2.40681e-23
0
-8.0227e-24
0
1.60454e-23
0
0
0
1.2034e-23
0
1.2034e-23
0
8.0227e-24
0
-3.00851e-24
0
2.00567e-24
0
-3.00851e-24
0
-8.0227e-24
0
-8.0227e-24
0
-1.60454e-23
0
-3.20908e-23
0
-2.40681e-23
0
3.20908e-23
0
-4.01135e-23
0
8.0227e-24
0
-4.81362e-23
0
-2.40681e-23
0
3.20908e-23
0
0
0
-1.60454e-23
0
-8.0227e-24
0
-8.0227e-24
0
0
-8.0227e-24
1.60454e-23
-8.0227e-24
0
-4.01135e-24
2.00567e-24
-5.01419e-25
2.00567e-24
0
0
8.0227e-24
8.0227e-24
1.60454e-23
-1.60454e-23
1.60454e-23
-1.60454e-23
0
0
-3.20908e-23
-1.60454e-23
0
8.0227e-24
0
0
0
0
0
0
0
0
0
0
0
0
0
0
0
0
0
0
0
0
0
0
0
0
0
-1.60454e-23
8.0227e-24
8.0227e-24
8.0227e-24
3.20908e-23
3.20908e-23
-8.0227e-24
-1.2034e-23
1.60454e-23
-1.2034e-23
-1.60454e-23
-8.0227e-24
-8.0227e-24
-8.0227e-24
-1.00284e-23
-4.01135e-24
1.00284e-23
-6.01702e-24
-1.12819e-24
-5.01419e-25
2.00567e-24
3.00851e-24
4.01135e-24
8.0227e-24
8.0227e-24
8.0227e-24
8.0227e-24
1.2034e-23
1.60454e-23
2.00567e-23
8.0227e-24
1.60454e-23
-1.60454e-23
2.40681e-23
8.0227e-24
1.60454e-23
-5.61589e-23
4.81362e-23
-4.01135e-23
-2.40681e-23
-1.60454e-23
-8.0227e-24
-4.01135e-23
3.61021e-23
0
-1.60454e-23
-8.0227e-24
-2.00567e-23
-8.0227e-24
-1.60454e-23
8.36847e-24
0
1.60454e-23
2.90067e-24
0
0
2.0977e-23
0
-4.81362e-23
-6.26081e-23
0
1.60454e-23
1.58819e-23
0
0
-4.71981e-23
0
0
-3.23795e-23
0
1.60454e-23
-2.68986e-23
0
8.0227e-24
-1.43195e-23
0
-4.01135e-24
-1.07562e-23
0
2.00567e-24
9.23015e-25
-0
-1.25355e-25
1.3533e-23
-0
0
2.92779e-23
-0
-4.01135e-24
3.29364e-23
-0
0
4.82723e-23
-0
-8.0227e-24
4.69409e-23
-0
-8.0227e-24
3.10778e-23
-0
-1.60454e-23
5.57841e-23
-0
0
4.51535e-23
-0
0
-9.05958e-24
-0
0
-2.12771e-24
-0
1.60454e-23
2.92023e-23
-0
1.60454e-23
-2.34969e-23
-0
0
-1.02729e-23
-0
8.0227e-24
-1.5187e-23
-0
0
-8.0227e-24
-1.60454e-23
0
-1.60454e-23
1.60454e-23
0
0
0
-2.00567e-24
0
2.00567e-24
-4.01135e-24
0
0
1.60454e-23
3.20908e-23
-4.81362e-23
1.60454e-23
-1.60454e-23
0
1.60454e-23
-1.60454e-23
-8.0227e-24
-1.60454e-23
-8.0227e-24
2.00567e-23
0
2.40681e-23
0
1.60454e-23
0
1.60454e-23
0
-1.2034e-23
0
1.60454e-23
0
4.01135e-24
0
8.0227e-24
0
0
0
1.69229e-24
0
-4.01135e-24
-0
-8.0227e-24
-0
-1.60454e-23
-0
-2.40681e-23
-0
-1.60454e-23
-0
-3.20908e-23
-0
4.01135e-23
-0
-4.81362e-23
-0
3.20908e-23
-0
-3.20908e-23
-0
-4.01135e-23
-0
2.40681e-23
-0
8.0227e-24
-0
-1.60454e-23
-0
-1.60454e-23
-0
-1.60454e-23
0
-2.40681e-23
3.20908e-23
-1.60454e-23
2.40681e-23
-8.0227e-24
-4.41248e-23
0
2.00567e-23
-1.2034e-23
-3.61021e-23
-8.0227e-24
-2.40681e-23
-6.01702e-24
-1.80511e-23
1.00284e-24
-6.01702e-24
-1.1752e-24
-1.50426e-24
1.00284e-24
8.0227e-24
4.01135e-24
2.40681e-23
1.2034e-23
3.20908e-23
1.60454e-23
4.81362e-23
1.60454e-23
6.41816e-23
8.0227e-24
5.61589e-23
8.0227e-24
3.20908e-23
8.0227e-24
6.41816e-23
-8.0227e-24
3.20908e-23
1.60454e-23
-1.60454e-23
0
-3.20908e-23
8.0227e-24
2.40681e-23
1.60454e-23
-2.40681e-23
0
-1.2034e-23
0
-1.60454e-23
-0
-0
-0
-0
-0
-0
-0
-0
-0
-0
0
0
0
0
0
0
0
0
0
0
0
0
0
0
0
)
;
    }
    baffle_master
    {
        type            calculated;
        value           nonuniform List<scalar> 
150
(
-1.93964e-32
0
0
-5.60762e-33
0
0
-3.7503e-33
0
0
3.72813e-33
0
0
-9.34354e-32
0
-6.70704e-32
-4.5014e-33
0
-2.23568e-32
1.46053e-32
0
2.23568e-32
-1.0433e-32
0
2.23568e-32
7.44951e-33
0
0
9.99705e-34
0
0
5.34938e-33
0
-2.23568e-32
-7.71867e-33
0
-2.23568e-32
-5.36482e-33
0
-2.23568e-32
1.09113e-33
0
0
-5.50277e-33
0
0
-1.34336e-33
0
1.11784e-32
7.86776e-32
0
4.47136e-32
3.07672e-33
0
5.5892e-33
2.81905e-32
0
2.23568e-32
-3.63401e-33
0
1.11784e-32
2.08947e-34
0
1.11784e-32
-5.78888e-32
0
-2.23568e-32
9.17405e-34
0
-2.23568e-32
2.10193e-32
0
0
7.10488e-32
0
-1.78854e-31
2.23568e-32
-4.25146e-32
0
0
-3.76889e-32
0
2.23568e-32
-5.73071e-32
0
0
-6.53115e-32
0
2.23568e-32
4.77347e-32
0
6.70704e-32
-6.14928e-32
0
4.47136e-32
-5.66582e-32
0
2.23568e-32
-5.92058e-32
0
-4.47136e-32
-4.50991e-32
0
2.23568e-32
-4.93176e-32
0
0
-6.04885e-32
0
0
-3.1792e-32
0
0
-3.16951e-32
0
2.23568e-32
-6.91411e-32
0
1.11784e-32
-2.8326e-32
0
1.11784e-32
-2.12727e-32
0
-2.23568e-32
-3.20574e-32
0
5.5892e-33
-1.16567e-32
0
-1.11784e-32
-1.02669e-32
0
0
1.43912e-32
0
-1.11784e-32
1.11006e-32
0
-4.47136e-32
5.49887e-32
0
-4.47136e-32
-4.67604e-32
0
2.23568e-32
-1.53164e-32
-0
-1.78854e-31
-5.20969e-31
-0
)
;
    }
    baffle_slave
    {
        type            calculated;
        value           nonuniform List<scalar> 
150
(
1.08745e-23
-0
8.0227e-24
-3.13387e-24
-0
0
-2.41308e-24
-0
0
2.7578e-24
-0
0
-2.30653e-23
-0
-1.60454e-23
8.52412e-24
-0
8.0227e-24
3.50993e-24
-0
-8.0227e-24
5.01419e-25
-0
-4.01135e-24
0
-0
-2.00567e-24
2.50709e-25
-0
-5.01419e-25
1.25355e-25
0
0
-5.01419e-25
0
0
-2.50709e-25
0
0
4.26206e-24
0
0
-7.27057e-24
0
-8.0227e-24
-6.26773e-26
0
0
-4.20957e-23
0
-3.20908e-23
-8.71215e-24
0
0
-3.5162e-23
0
-1.60454e-23
3.3219e-24
0
0
3.13387e-24
0
0
2.63872e-23
0
0
2.56977e-24
0
0
-1.62961e-24
0
0
-1.88032e-25
0
-8.0227e-24
-1.10845e-23
3.35951e-23
0
5.62129e-24
1.67975e-23
0
-1.11593e-23
2.02134e-23
0
-1.37784e-23
1.68602e-23
0
-4.25526e-24
-2.35667e-23
0
-1.23835e-24
1.32876e-23
0
-3.15948e-25
1.32876e-23
0
-6.46988e-24
9.27625e-24
0
6.1996e-24
7.27057e-24
0
-6.29875e-25
2.88316e-24
0
1.37077e-24
7.52128e-25
0
7.72171e-25
-3.76064e-24
0
1.61336e-24
-6.6438e-24
0
8.27358e-24
-8.05404e-24
0
-6.90737e-24
-1.58887e-23
0
1.90299e-23
-1.35618e-23
0
-2.73392e-23
-1.55126e-23
0
6.42949e-25
-2.09969e-23
0
-1.36897e-23
3.07119e-24
0
-6.43528e-24
1.06551e-23
0
-1.75146e-24
1.45411e-23
0
-2.73484e-23
1.90539e-23
0
-1.69235e-23
-1.05298e-23
0
7.32427e-24
8.27341e-24
0
-3.58195e-25
5.32757e-24
0
)
;
    }
}


// ************************************************************************* //
