/*--------------------------------*- C++ -*----------------------------------*\
| =========                 |                                                 |
| \\      /  F ield         | OpenFOAM: The Open Source CFD Toolbox           |
|  \\    /   O peration     | Version:  2212                                  |
|   \\  /    A nd           | Website:  www.openfoam.com                      |
|    \\/     M anipulation  |                                                 |
\*---------------------------------------------------------------------------*/
FoamFile
{
    version     2.0;
    format      ascii;
    arch        "LSB;label=32;scalar=64";
    class       volScalarField;
    location    "17/fluidRegion";
    object      alphat;
}
// * * * * * * * * * * * * * * * * * * * * * * * * * * * * * * * * * * * * * //

dimensions      [1 -1 -1 0 0 0 0];

internalField   nonuniform List<scalar> 
350
(
0.0025825
0.0025825
0.0025825
0.0025825
0.0025825
0.00258251
0.00258251
0.00258252
0.00258254
0.00258256
0.00258259
0.00258263
0.00258271
0.00258282
0.00258299
0.00258324
0.00258364
0.00258424
0.00258516
0.00258656
0.00258871
0.00259199
0.002597
0.00260466
0.00261637
0.0025825
0.0025825
0.0025825
0.0025825
0.0025825
0.00258251
0.00258251
0.00258252
0.00258254
0.00258256
0.00258259
0.00258263
0.00258271
0.00258282
0.00258299
0.00258324
0.00258364
0.00258424
0.00258516
0.00258656
0.00258871
0.00259199
0.002597
0.00260466
0.00261637
0.000868511
0.000855782
0.000843733
0.000831642
0.000819413
0.000806957
0.000794196
0.000781062
0.000767505
0.000753491
0.000739011
0.000724072
0.000708697
0.000692922
0.000676804
0.000660465
0.000644192
0.000628643
0.00061526
0.00060706
0.000610091
0.000635524
0.000699671
0.000812773
0.000959216
0.000861754
0.000849009
0.000836961
0.000824879
0.000812669
0.000800241
0.000787517
0.000774429
0.000760928
0.000746982
0.000732587
0.000717754
0.000702514
0.000686908
0.000670997
0.000654905
0.000638909
0.000623661
0.000610591
0.000602708
0.000606068
0.000631904
0.000696696
0.000810906
0.000958798
0.000869596
0.000856864
0.000844811
0.000832714
0.000820477
0.000808013
0.000795241
0.000782096
0.000768525
0.000754496
0.000739997
0.000725036
0.000709635
0.000693827
0.000677671
0.000661288
0.000644965
0.000629362
0.000615922
0.000607665
0.000610637
0.000636006
0.000700068
0.000813042
0.000959341
0.000863309
0.00085057
0.000838524
0.000826442
0.000814228
0.000801796
0.000789064
0.000775966
0.000762451
0.00074849
0.000734075
0.000719217
0.000703945
0.0006883
0.000672341
0.000656192
0.000640132
0.000624814
0.000611671
0.000603715
0.000606998
0.000632741
0.000697385
0.000811339
0.000958892
0.000863309
0.00085057
0.000838524
0.000826442
0.000814228
0.000801796
0.000789064
0.000775966
0.000762452
0.00074849
0.000734075
0.000719217
0.000703945
0.0006883
0.000672341
0.000656192
0.000640132
0.000624814
0.000611671
0.000603715
0.000606998
0.000632741
0.000697385
0.000811339
0.000958892
0.000869596
0.000856864
0.000844811
0.000832714
0.000820477
0.000808012
0.000795241
0.000782095
0.000768524
0.000754496
0.000739997
0.000725036
0.000709635
0.000693827
0.000677671
0.000661288
0.000644965
0.000629362
0.000615922
0.000607664
0.000610636
0.000636006
0.000700068
0.000813043
0.000959343
0.000861754
0.000849009
0.000836961
0.000824879
0.000812669
0.000800241
0.000787517
0.000774429
0.000760928
0.000746982
0.000732587
0.000717754
0.000702514
0.000686908
0.000670997
0.000654905
0.000638909
0.000623661
0.000610591
0.000602708
0.000606068
0.000631903
0.000696696
0.000810906
0.000958798
0.000868511
0.000855782
0.000843733
0.000831642
0.000819413
0.000806957
0.000794196
0.000781063
0.000767505
0.000753492
0.000739011
0.000724072
0.000708697
0.000692922
0.000676804
0.000660465
0.000644192
0.000628643
0.000615259
0.00060706
0.00061009
0.000635523
0.00069967
0.000812772
0.000959213
0.000863309
0.00085057
0.000838524
0.000826442
0.000814228
0.000801796
0.000789064
0.000775966
0.000762451
0.00074849
0.000734075
0.000719217
0.000703945
0.0006883
0.000672341
0.000656192
0.000640132
0.000624814
0.000611671
0.000603715
0.000606998
0.000632741
0.000697384
0.000811339
0.000958892
0.000869596
0.000856864
0.000844811
0.000832714
0.000820477
0.000808013
0.000795242
0.000782096
0.000768525
0.000754496
0.000739998
0.000725037
0.000709635
0.000693827
0.000677671
0.000661288
0.000644965
0.000629362
0.000615922
0.000607664
0.000610636
0.000636005
0.000700066
0.000813039
0.000959338
0.000869596
0.000856864
0.000844811
0.000832714
0.000820477
0.000808012
0.000795241
0.000782096
0.000768525
0.000754496
0.000739997
0.000725036
0.000709635
0.000693827
0.000677671
0.000661288
0.000644965
0.000629361
0.000615922
0.000607664
0.000610636
0.000636005
0.000700067
0.000813041
0.000959341
0.000863309
0.00085057
0.000838524
0.000826442
0.000814229
0.000801796
0.000789064
0.000775966
0.000762452
0.000748491
0.000734075
0.000719217
0.000703946
0.0006883
0.000672341
0.000656191
0.000640132
0.000624813
0.00061167
0.000603714
0.000606997
0.00063274
0.000697383
0.000811336
0.000958888
)
;

boundaryField
{
    outletCentralUnloaded
    {
        type            zeroGradient;
    }
    inletCentralUnloaded
    {
        type            zeroGradient;
    }
    outletFuelElement
    {
        type            zeroGradient;
    }
    inletFuelElement
    {
        type            zeroGradient;
    }
    defaultFaces
    {
        type            zeroGradient;
    }
    baffle_master
    {
        type            calculated;
        value           nonuniform List<scalar> 
150
(
0.0025825
0.0025825
0.0025825
0.0025825
0.0025825
0.0025825
0.0025825
0.0025825
0.0025825
0.0025825
0.0025825
0.0025825
0.0025825
0.0025825
0.0025825
0.00258251
0.00258251
0.00258251
0.00258251
0.00258251
0.00258251
0.00258252
0.00258252
0.00258252
0.00258254
0.00258254
0.00258254
0.00258256
0.00258256
0.00258256
0.00258259
0.00258259
0.00258259
0.00258263
0.00258263
0.00258263
0.00258271
0.00258271
0.00258271
0.00258282
0.00258282
0.00258282
0.00258299
0.00258299
0.00258299
0.00258324
0.00258324
0.00258324
0.00258364
0.00258364
0.00258364
0.00258424
0.00258424
0.00258424
0.00258516
0.00258516
0.00258516
0.00258656
0.00258656
0.00258656
0.00258871
0.00258871
0.00258871
0.00259199
0.00259199
0.00259199
0.002597
0.002597
0.002597
0.00260466
0.00260466
0.00260466
0.00261637
0.00261637
0.00261637
0.0025825
0.0025825
0.0025825
0.0025825
0.0025825
0.0025825
0.0025825
0.0025825
0.0025825
0.0025825
0.0025825
0.0025825
0.0025825
0.0025825
0.0025825
0.00258251
0.00258251
0.00258251
0.00258251
0.00258251
0.00258251
0.00258252
0.00258252
0.00258252
0.00258254
0.00258254
0.00258254
0.00258256
0.00258256
0.00258256
0.00258259
0.00258259
0.00258259
0.00258263
0.00258263
0.00258263
0.00258271
0.00258271
0.00258271
0.00258282
0.00258282
0.00258282
0.00258299
0.00258299
0.00258299
0.00258324
0.00258324
0.00258324
0.00258364
0.00258364
0.00258364
0.00258424
0.00258424
0.00258424
0.00258516
0.00258516
0.00258516
0.00258656
0.00258656
0.00258656
0.00258871
0.00258871
0.00258871
0.00259199
0.00259199
0.00259199
0.002597
0.002597
0.002597
0.00260466
0.00260466
0.00260466
0.00261637
0.00261637
0.00261637
)
;
    }
    baffle_slave
    {
        type            calculated;
        value           nonuniform List<scalar> 
150
(
0.000861754
0.000863309
0.000863309
0.000849009
0.00085057
0.00085057
0.000836961
0.000838524
0.000838524
0.000824879
0.000826442
0.000826442
0.000812669
0.000814228
0.000814229
0.000800241
0.000801796
0.000801796
0.000787517
0.000789064
0.000789064
0.000774429
0.000775966
0.000775966
0.000760928
0.000762451
0.000762452
0.000746982
0.00074849
0.000748491
0.000732587
0.000734075
0.000734075
0.000717754
0.000719217
0.000719217
0.000702514
0.000703945
0.000703946
0.000686908
0.0006883
0.0006883
0.000670997
0.000672341
0.000672341
0.000654905
0.000656192
0.000656191
0.000638909
0.000640132
0.000640132
0.000623661
0.000624814
0.000624813
0.000610591
0.000611671
0.00061167
0.000602708
0.000603715
0.000603714
0.000606068
0.000606998
0.000606997
0.000631904
0.000632741
0.00063274
0.000696696
0.000697385
0.000697383
0.000810906
0.000811339
0.000811336
0.000958798
0.000958892
0.000958888
0.000863309
0.000861754
0.000863309
0.00085057
0.000849009
0.00085057
0.000838524
0.000836961
0.000838524
0.000826442
0.000824879
0.000826442
0.000814228
0.000812669
0.000814228
0.000801796
0.000800241
0.000801796
0.000789064
0.000787517
0.000789064
0.000775966
0.000774429
0.000775966
0.000762452
0.000760928
0.000762451
0.00074849
0.000746982
0.00074849
0.000734075
0.000732587
0.000734075
0.000719217
0.000717754
0.000719217
0.000703945
0.000702514
0.000703945
0.0006883
0.000686908
0.0006883
0.000672341
0.000670997
0.000672341
0.000656192
0.000654905
0.000656192
0.000640132
0.000638909
0.000640132
0.000624814
0.000623661
0.000624814
0.000611671
0.000610591
0.000611671
0.000603715
0.000602708
0.000603715
0.000606998
0.000606068
0.000606998
0.000632741
0.000631903
0.000632741
0.000697385
0.000696696
0.000697384
0.000811339
0.000810906
0.000811339
0.000958892
0.000958798
0.000958892
)
;
    }
}


// ************************************************************************* //
