/*--------------------------------*- C++ -*----------------------------------*\
| =========                 |                                                 |
| \\      /  F ield         | OpenFOAM: The Open Source CFD Toolbox           |
|  \\    /   O peration     | Version:  2212                                  |
|   \\  /    A nd           | Website:  www.openfoam.com                      |
|    \\/     M anipulation  |                                                 |
\*---------------------------------------------------------------------------*/
FoamFile
{
    version     2.0;
    format      ascii;
    arch        "LSB;label=32;scalar=64";
    class       surfaceScalarField;
    location    "17/fluidRegion";
    object      alphaRhoPhi;
}
// * * * * * * * * * * * * * * * * * * * * * * * * * * * * * * * * * * * * * //

dimensions      [1 0 -1 0 0 0 0];

oriented        oriented;

internalField   nonuniform List<scalar> 
661
(
-0.00584146
-1.24573e-14
-0.00584146
-1.51175e-14
-0.00584146
-1.79553e-14
-0.00584146
-1.64304e-14
-0.00584146
-1.68141e-14
-0.00584146
-1.5676e-14
-0.00584146
-1.71196e-14
-0.00584146
-1.21405e-14
-0.00584146
-1.24971e-14
-0.00584146
-1.45463e-14
-0.00584146
-1.27729e-14
-0.00584146
-1.34243e-14
-0.00584146
-1.04124e-14
-0.00584146
-1.20729e-14
-0.00584146
-8.21638e-15
-0.00584146
-5.96485e-15
-0.00584146
-8.70012e-15
-0.00584146
-4.10872e-15
-0.00584146
-6.26673e-15
-0.00584146
-7.18727e-15
-0.00584146
-6.64507e-15
-0.00584146
-1.01291e-14
-0.00584146
-1.30682e-14
-0.00584146
1.49073e-14
1.47869e-13
-0.00584146
-0.00584146
-0.00584146
-0.00584146
-0.00584146
-0.00584146
-0.00584146
-0.00584146
-0.00584146
-0.00584146
-0.00584146
-0.00584146
-0.00584146
-0.00584146
-0.00584146
-0.00584146
-0.00584146
-0.00584146
-0.00584146
-0.00584146
-0.00584146
-0.00584146
-0.00584146
-0.00584146
-0.00890689
4.95791e-07
-0.00890717
3.80652e-07
-0.00890752
4.34543e-07
-0.00890784
3.93424e-07
-0.00890812
3.58323e-07
-0.00890838
3.22454e-07
-0.00890861
2.83584e-07
-0.0089088
2.37385e-07
-0.00890895
1.78477e-07
-0.00890904
9.98306e-08
-0.00890904
-7.52348e-09
-0.00890894
-1.46541e-07
-0.00890868
-3.22228e-07
-0.00890825
-5.32151e-07
-0.0089076
-7.68415e-07
-0.00890672
-1.02181e-06
-0.0089056
-1.28678e-06
-0.0089042
-1.56903e-06
-0.00890251
-1.88877e-06
-0.00890043
-2.28058e-06
-0.00889786
-2.78467e-06
-0.00889467
-3.41341e-06
-0.0088908
-4.09452e-06
-0.00888654
-4.48644e-06
-4.69958e-06
-0.00883563
-4.53168e-08
-4.54367e-08
-0.00883505
-1.18698e-07
-1.20724e-07
-0.00883444
-1.0796e-07
-1.084e-07
-0.00883389
-9.51624e-08
-9.45593e-08
-0.0088334
-8.39448e-08
-8.22082e-08
-0.00883296
-7.25584e-08
-7.04759e-08
-0.00883259
-6.01523e-08
-5.77867e-08
-0.00883229
-4.56938e-08
-4.33747e-08
-0.00883208
-2.73561e-08
-2.49687e-08
-0.008832
-2.80858e-09
-5.63003e-10
-0.00883208
2.89811e-08
3.12219e-08
-0.00883237
7.29187e-08
7.49588e-08
-0.00883295
1.28706e-07
1.30675e-07
-0.00883387
1.96577e-07
1.98225e-07
-0.00883517
2.74888e-07
2.76212e-07
-0.0088369
3.60778e-07
3.61516e-07
-0.00883907
4.53084e-07
4.53145e-07
-0.00884172
5.5373e-07
5.52779e-07
-0.00884494
6.70079e-07
6.67834e-07
-0.00884883
8.13596e-07
8.09559e-07
-0.0088536
9.97074e-07
9.91074e-07
-0.00885945
1.21804e-06
1.20925e-06
-0.00886641
1.42865e-06
1.41597e-06
-0.00887378
1.42564e-06
1.40769e-06
1.3397e-06
1.31883e-06
-0.00891866
3.28569e-07
-0.00891912
4.17812e-07
-0.00891956
4.05704e-07
-0.00891996
3.63301e-07
-0.00892031
3.23881e-07
-0.00892063
2.83988e-07
-0.00892089
2.40169e-07
-0.0089211
1.88118e-07
-0.00892124
1.21308e-07
-0.00892129
3.24824e-08
-0.0089212
-8.6579e-08
-0.00892095
-2.41252e-07
-0.00892047
-4.35625e-07
-0.00891972
-6.66298e-07
-0.00891866
-9.2521e-07
-0.00891725
-1.20231e-06
-0.00891548
-1.49305e-06
-0.00891331
-1.80428e-06
-0.00891069
-2.15951e-06
-0.00890749
-2.59522e-06
-0.00890356
-3.15072e-06
-0.00889874
-3.82633e-06
-0.00889304
-4.48674e-06
-0.00888714
-4.66553e-06
-4.45926e-06
-0.00885161
7.6932e-10
-0.00885124
-2.37727e-10
-0.00885088
6.65895e-11
-0.00885056
2.30759e-11
-0.00885028
5.41481e-11
-0.00885003
6.36621e-11
-0.00884982
4.69636e-11
-0.00884966
7.24148e-11
-0.00884956
8.52686e-11
-0.00884954
7.89956e-11
-0.00884963
9.98868e-11
-0.00884987
1.64576e-10
-0.00885028
2.29479e-10
-0.00885092
2.87481e-10
-0.0088518
2.98199e-10
-0.00885295
2.80639e-10
-0.00885439
2.80973e-10
-0.00885614
4.1795e-10
-0.00885825
4.90057e-10
-0.0088608
6.07665e-10
-0.00886391
8.03817e-10
-0.00886771
5.53798e-10
-0.0088722
-1.40405e-10
-0.0088769
-1.15366e-09
-2.96908e-09
-0.00885162
-3.26992e-07
-0.00885125
-4.18315e-07
-0.00885089
-4.05486e-07
-0.00885057
-3.63186e-07
-0.00885029
-3.23728e-07
-0.00885004
-2.83852e-07
-0.00884983
-2.40052e-07
-0.00884967
-1.8796e-07
-0.00884957
-1.21125e-07
-0.00884955
-3.22942e-08
-0.00884964
8.68243e-08
-0.00884988
2.41622e-07
-0.00885029
4.36115e-07
-0.00885093
6.66892e-07
-0.00885181
9.25822e-07
-0.00885296
1.20291e-06
-0.0088544
1.49368e-06
-0.00885615
1.80516e-06
-0.00885826
2.16052e-06
-0.00886081
2.59644e-06
-0.00886392
3.15223e-06
-0.00886772
3.82749e-06
-0.00887221
4.48659e-06
-0.00887691
4.66325e-06
4.45358e-06
-0.00891866
4.3736e-08
-0.00891912
1.18156e-07
-0.00891957
1.07633e-07
-0.00891996
9.52498e-08
-0.00892032
8.46323e-08
-0.00892063
7.32066e-08
-0.0089209
6.10559e-08
-0.00892111
4.63824e-08
-0.00892124
2.82073e-08
-0.00892129
3.3753e-09
-0.00892121
-2.83252e-08
-0.00892095
-7.25075e-08
-0.00892047
-1.28199e-07
-0.00891972
-1.96393e-07
-0.00891866
-2.74764e-07
-0.00891725
-3.61149e-07
-0.00891548
-4.53681e-07
-0.00891331
-5.54922e-07
-0.00891068
-6.71771e-07
-0.00890748
-8.16329e-07
-0.00890355
-1.00065e-06
-0.00889873
-1.22304e-06
-0.00889302
-1.43479e-06
-0.00888713
-1.43208e-06
-1.3449e-06
-0.00883563
-4.969e-07
-4.62278e-08
-0.00883505
-3.81963e-07
-1.20044e-07
-0.00883444
-4.34506e-07
-1.08543e-07
-0.00883389
-3.92705e-07
-9.4796e-08
-0.0088334
-3.56682e-07
-8.27014e-08
-0.00883296
-3.20903e-07
-7.09505e-08
-0.00883259
-2.81676e-07
-5.83362e-08
-0.00883229
-2.35799e-07
-4.38871e-08
-0.00883208
-1.76664e-07
-2.55418e-08
-0.008832
-9.84149e-08
-1.0666e-09
-0.00883208
9.09882e-09
3.06418e-08
-0.00883237
1.47746e-07
7.43996e-08
-0.00883295
3.2356e-07
1.30021e-07
-0.00883387
5.32986e-07
1.97612e-07
-0.00883517
7.69135e-07
2.75615e-07
-0.0088369
1.02178e-06
3.61072e-07
-0.00883907
1.2864e-06
4.52779e-07
-0.00884172
1.56774e-06
5.52486e-07
-0.00884494
1.88679e-06
6.67646e-07
-0.00884883
2.27717e-06
8.09591e-07
-0.0088536
2.78013e-06
9.91226e-07
-0.00885945
3.40683e-06
1.21004e-06
-0.00886641
4.08583e-06
1.41801e-06
-0.00887378
4.47563e-06
1.41139e-06
4.68792e-06
1.32501e-06
-0.00890689
-0.00890717
-0.00890752
-0.00890784
-0.00890812
-0.00890838
-0.00890861
-0.0089088
-0.00890895
-0.00890904
-0.00890904
-0.00890894
-0.00890868
-0.00890825
-0.0089076
-0.00890672
-0.0089056
-0.0089042
-0.00890251
-0.00890043
-0.00889786
-0.00889467
-0.0088908
-0.00888654
-0.00885161
-3.28752e-07
8.25159e-10
-0.00885124
-4.17824e-07
-3.82699e-10
-0.00885088
-4.05511e-07
1.07508e-10
-0.00885056
-3.63068e-07
2.57421e-11
-0.00885028
-3.23508e-07
5.33438e-11
-0.00885003
-2.83732e-07
-1.06538e-11
-0.00884982
-2.39844e-07
4.35181e-11
-0.00884966
-1.87923e-07
1.70641e-11
-0.00884956
-1.21033e-07
6.81617e-11
-0.00884954
-3.23788e-08
8.37455e-11
-0.00884963
8.67097e-08
2.07888e-10
-0.00884987
2.41316e-07
1.52935e-10
-0.00885028
4.35774e-07
2.22553e-10
-0.00885092
6.66297e-07
2.16544e-10
-0.0088518
9.25168e-07
3.4753e-10
-0.00885295
1.20196e-06
4.22981e-10
-0.00885439
1.49261e-06
5.87507e-10
-0.00885614
1.80368e-06
5.75231e-10
-0.00885825
2.15883e-06
7.67386e-10
-0.0088608
2.59429e-06
8.95099e-10
-0.00886391
3.14971e-06
1.0839e-09
-0.00886771
3.82471e-06
1.35239e-09
-0.0088722
4.48459e-06
1.48359e-09
-0.0088769
4.66356e-06
4.47684e-10
4.45786e-06
-1.46848e-09
-0.00891866
-0.00891912
-0.00891956
-0.00891996
-0.00892031
-0.00892063
-0.00892089
-0.0089211
-0.00892124
-0.00892129
-0.0089212
-0.00892095
-0.00892047
-0.00891972
-0.00891866
-0.00891725
-0.00891548
-0.00891331
-0.00891069
-0.00890749
-0.00890356
-0.00889874
-0.00889304
-0.00888714
-0.00891866
3.25647e-07
-0.00891912
4.16567e-07
-0.00891957
4.0521e-07
-0.00891996
3.63772e-07
-0.00892032
3.25607e-07
-0.00892063
2.85664e-07
-0.0089209
2.42374e-07
-0.00892111
1.89871e-07
-0.00892125
1.23379e-07
-0.00892129
3.39882e-08
-0.00892121
-8.48299e-08
-0.00892095
-2.40141e-07
-0.00892047
-4.34395e-07
-0.00891972
-6.6583e-07
-0.00891866
-9.24854e-07
-0.00891725
-1.20298e-06
-0.00891548
-1.49419e-06
-0.00891331
-1.80691e-06
-0.00891068
-2.16326e-06
-0.00890748
-2.60127e-06
-0.00890355
-3.15867e-06
-0.00889873
-3.83721e-06
-0.00889302
-4.49973e-06
-0.00888713
-4.68021e-06
-4.4712e-06
-0.00885162
-0.00885125
-0.00885089
-0.00885057
-0.00885029
-0.00885004
-0.00884983
-0.00884967
-0.00884957
-0.00884956
-0.00884964
-0.00884988
-0.00885029
-0.00885093
-0.00885181
-0.00885296
-0.0088544
-0.00885615
-0.00885826
-0.00886081
-0.00886392
-0.00886772
-0.00887221
-0.00887691
)
;

boundaryField
{
    outletCentralUnloaded
    {
        type            calculated;
        value           nonuniform List<scalar> 2(0.00584146 0.00584146);
    }
    inletCentralUnloaded
    {
        type            calculated;
        value           nonuniform List<scalar> 2(-0.00587366 -0.00587366);
    }
    outletFuelElement
    {
        type            calculated;
        value           nonuniform List<scalar> 
12
(
0.00890648
0.00883619
0.00891837
0.00885189
0.0088519
0.00891837
0.00883619
0.00890648
0.00885189
0.00891837
0.00891837
0.0088519
)
;
    }
    inletFuelElement
    {
        type            calculated;
        value           nonuniform List<scalar> 
12
(
-0.00909862
-0.00909862
-0.00909861
-0.00909861
-0.00909862
-0.00909862
-0.00909862
-0.00909862
-0.00909861
-0.00909861
-0.00909862
-0.00909862
)
;
    }
    defaultFaces
    {
        type            calculated;
        value           nonuniform List<scalar> 
450
(
8.98317e-25
-1.76238e-23
0
9.9386e-24
7.04458e-24
0
6.01717e-24
2.11418e-23
0
-2.41146e-23
-1.5486e-23
0
-1.21987e-23
-2.21477e-23
0
-2.47717e-23
-8.59621e-24
0
-1.62286e-23
-2.69162e-24
0
-1.60198e-23
-9.27832e-24
0
-1.14137e-23
-4.39603e-24
0
-6.33106e-24
-3.28432e-24
0
4.7161e-25
2.84658e-25
0
1.02092e-23
4.04331e-24
0
2.43096e-23
9.4157e-24
0
3.11478e-23
1.30347e-23
0
5.48918e-23
2.13395e-23
0
5.15201e-23
3.21719e-23
0
5.67373e-23
1.19412e-23
0
6.35331e-23
3.42058e-23
0
1.00223e-22
-1.46231e-22
0
-4.79115e-23
-9.16521e-23
0
-1.03241e-22
-7.19802e-23
0
1.68095e-22
-1.0362e-22
0
-1.52415e-22
8.51611e-26
0
-1.62736e-22
-5.09715e-23
0
-1.98829e-22
-1.02572e-22
0
7.13465e-24
0
1.43947e-23
0
-4.87563e-24
0
9.98028e-24
0
0
0
8.01434e-24
0
8.38683e-24
0
5.8975e-24
0
-2.35218e-24
0
1.68261e-24
0
-2.73389e-24
0
-7.97749e-24
0
-8.82559e-24
0
-1.97605e-23
0
-4.4815e-23
0
-3.86481e-23
0
6.01597e-23
0
-8.9267e-23
0
2.15856e-23
0
-1.59763e-22
0
-1.00649e-22
0
1.7255e-22
0
0
0
-1.45915e-22
0
-9.0547e-23
0
-4.6957e-24
0
0
-4.92385e-24
1.01509e-23
-5.27051e-24
0
-2.90822e-24
1.54647e-24
-4.14833e-25
1.7974e-24
0
0
9.74821e-24
1.10579e-23
2.54418e-23
-2.97198e-23
3.53055e-23
-4.27243e-23
0
0
-1.7145e-22
-1.11965e-22
0
9.04841e-23
0
0
0
0
0
0
0
0
0
0
0
0
0
0
0
0
0
0
0
0
0
0
0
0
0
-9.51286e-24
4.75643e-24
4.79822e-24
4.79822e-24
1.95025e-23
1.95025e-23
-4.99014e-24
-7.48521e-24
1.0289e-23
-7.71674e-24
-1.06858e-23
-5.34289e-24
-5.59122e-24
-5.59122e-24
-7.37187e-24
-2.94875e-24
7.8406e-24
-4.70436e-24
-9.46468e-25
-4.20653e-25
1.82259e-24
2.73389e-24
3.98874e-24
7.97748e-24
8.82558e-24
8.82558e-24
9.88024e-24
1.48204e-23
2.24075e-23
2.80093e-23
1.28827e-23
2.57654e-23
-3.00798e-23
4.51197e-23
1.78534e-23
3.57068e-23
-1.51099e-22
1.29513e-22
-1.33135e-22
-7.98812e-23
-6.70995e-23
-3.35497e-23
-2.15688e-22
1.94119e-22
0
-1.1247e-22
-7.29575e-23
-1.82394e-22
-9.0547e-23
-1.81094e-22
4.95025e-24
0
9.49143e-24
1.73088e-24
0
0
1.2719e-23
0
-2.91864e-23
-3.88519e-23
0
9.95709e-24
1.01603e-23
0
0
-3.13585e-23
0
0
-2.25126e-23
0
1.11559e-23
-1.97262e-23
0
5.88348e-24
-1.1169e-23
0
-3.12877e-24
-9.00214e-24
0
1.67861e-24
8.36773e-25
-0
-1.13642e-25
1.34251e-23
-0
0
3.21334e-23
-0
-4.40258e-24
4.04705e-23
-0
0
6.72643e-23
-0
-1.11791e-23
7.52176e-23
-0
-1.28555e-23
5.81439e-23
-0
-3.00196e-23
1.23908e-22
-0
0
1.2128e-22
-0
0
-3.00226e-23
-0
0
-8.88619e-24
-0
6.70122e-23
1.56856e-22
-0
8.61858e-23
-1.64582e-22
-0
0
-9.3383e-23
-0
7.29282e-23
-1.71385e-22
-0
0
-4.6957e-24
-9.47211e-24
0
-9.84771e-24
1.01509e-23
0
0
0
-1.54647e-24
0
1.7974e-24
-3.93391e-24
0
0
2.21158e-23
5.08837e-23
-8.91595e-23
3.53055e-23
-4.27243e-23
0
6.65651e-23
-8.57252e-23
-5.59824e-23
-1.45556e-22
-9.04841e-23
1.18911e-23
0
1.43947e-23
0
9.75127e-24
0
9.98028e-24
0
-7.71675e-24
0
1.06858e-23
0
2.79561e-24
0
5.8975e-24
0
0
0
1.4197e-24
0
-3.64518e-24
-0
-7.97749e-24
-0
-1.76512e-23
-0
-2.96407e-23
-0
-2.24075e-23
-0
-5.15308e-23
-0
7.51996e-23
-0
-1.0712e-22
-0
8.63424e-23
-0
-1.06508e-22
-0
-1.67749e-22
-0
1.29413e-22
-0
5.62351e-23
-0
-1.45915e-22
-0
-1.81094e-22
-0
-9.51286e-24
0
-1.43947e-23
1.91929e-23
-9.75126e-24
1.46269e-23
-4.99014e-24
-2.74458e-23
0
1.28612e-23
-8.01434e-24
-2.4043e-23
-5.59122e-24
-1.67736e-23
-4.42312e-24
-1.32694e-23
7.8406e-25
-4.70436e-24
-9.85905e-25
-1.26196e-24
9.11295e-25
7.29036e-24
3.98874e-24
2.39324e-23
1.32384e-23
3.53023e-23
1.97605e-23
5.92814e-23
2.24075e-23
8.96299e-23
1.28827e-23
9.01788e-23
1.50399e-23
6.01596e-23
1.78534e-23
1.42827e-22
-2.15856e-23
8.63423e-23
5.32542e-23
-5.32542e-23
0
-1.34199e-22
4.31375e-23
1.29413e-22
1.1247e-22
-1.68705e-22
0
-1.09436e-22
0
-1.81094e-22
-0
-0
-0
-0
-0
-0
-0
-0
-0
-0
0
0
0
0
0
0
0
0
0
0
0
0
0
0
0
)
;
    }
    baffle_master
    {
        type            calculated;
        value           nonuniform List<scalar> 
150
(
-2.10511e-31
0
0
-6.0865e-32
0
0
-4.0709e-32
0
0
4.04716e-32
0
0
-1.01439e-30
0
-7.2816e-31
-4.88741e-32
0
-2.4274e-31
1.58591e-31
0
2.4276e-31
-1.13295e-31
0
2.4278e-31
8.09032e-32
0
0
1.08579e-32
0
0
5.81049e-32
0
-2.42839e-31
-8.3847e-32
0
-2.42859e-31
-5.82821e-32
0
-2.42879e-31
1.18547e-32
0
0
-5.97906e-32
0
0
-1.45975e-32
0
1.21469e-31
8.55016e-31
0
4.85917e-31
3.34385e-32
0
6.07447e-32
3.06405e-31
0
2.42999e-31
-3.95017e-32
0
1.21509e-31
2.27144e-33
0
1.21519e-31
-6.29354e-31
0
-2.43058e-31
9.97465e-33
0
-2.43078e-31
2.28555e-31
0
0
7.72615e-31
0
-1.94494e-30
2.4264e-31
-4.61415e-31
0
0
-4.09074e-31
0
2.4268e-31
-6.2206e-31
0
0
-7.09006e-31
0
2.4272e-31
5.18239e-31
0
7.2822e-31
-6.67661e-31
0
4.8552e-31
-6.15219e-31
0
2.4278e-31
-6.42935e-31
0
-4.85599e-31
-4.89786e-31
0
2.42819e-31
-5.35643e-31
0
0
-6.57025e-31
0
0
-3.45353e-31
0
0
-3.44328e-31
0
2.42899e-31
-7.51195e-31
0
1.21459e-31
-3.07778e-31
0
1.21469e-31
-2.31158e-31
0
-2.42959e-31
-3.48378e-31
0
6.07447e-32
-1.26687e-31
0
-1.21499e-31
-1.11592e-31
0
0
1.56433e-31
0
-1.21519e-31
1.20674e-31
0
-4.86117e-31
5.97825e-31
0
-4.86157e-31
-5.08411e-31
0
2.43098e-31
-1.66544e-31
-0
-1.94494e-30
-5.66524e-30
-0
)
;
    }
    baffle_slave
    {
        type            calculated;
        value           nonuniform List<scalar> 
150
(
6.3455e-24
-0
4.6957e-24
-1.84428e-24
-0
0
-1.44268e-24
-0
0
1.68716e-24
-0
0
-1.45445e-23
-0
-1.01509e-23
5.58152e-24
-0
5.27051e-24
2.40474e-24
-0
-5.51487e-24
3.6231e-25
-0
-2.90822e-24
0
-0
-1.54647e-24
2.06713e-25
-0
-4.14833e-25
1.11956e-25
0
0
-4.90073e-25
0
0
-2.71134e-25
0
0
5.1616e-24
0
0
-9.98881e-24
0
-1.10579e-23
-9.90716e-26
0
0
-7.77383e-23
0
-5.94397e-23
-1.91159e-23
0
0
-9.33835e-23
0
-4.27243e-23
1.08976e-23
0
0
1.29749e-23
0
0
1.40751e-22
0
0
1.79115e-23
0
0
-1.47739e-23
0
0
-2.12036e-24
0
-9.04841e-23
-6.48777e-24
1.96034e-23
0
3.31843e-24
9.88537e-24
0
-6.69283e-24
1.20848e-23
0
-8.45634e-24
1.03147e-23
0
-2.69202e-24
-1.48607e-23
0
-8.13536e-25
8.7006e-24
0
-2.17185e-25
9.10367e-24
0
-4.69066e-24
6.70273e-24
0
4.78019e-24
5.58704e-24
0
-5.21107e-25
2.3772e-24
0
1.22843e-24
6.71737e-25
0
7.57264e-25
-3.67555e-24
0
1.75068e-24
-7.18506e-24
0
1.00531e-23
-9.75391e-24
0
-9.52059e-24
-2.1829e-23
0
3.01741e-23
-2.14366e-23
0
-5.06387e-23
-2.86473e-23
0
1.41471e-24
-4.60707e-23
0
-3.64518e-23
8.15649e-24
0
-2.11604e-23
3.49545e-23
0
-7.266e-24
6.02037e-23
0
-1.46113e-22
1.01635e-22
0
-1.18092e-22
-7.33935e-23
0
6.64423e-23
7.50061e-23
0
-4.03991e-24
6.00768e-23
0
)
;
    }
}


// ************************************************************************* //
