/*--------------------------------*- C++ -*----------------------------------*\
| =========                 |                                                 |
| \\      /  F ield         | OpenFOAM: The Open Source CFD Toolbox           |
|  \\    /   O peration     | Version:  2212                                  |
|   \\  /    A nd           | Website:  www.openfoam.com                      |
|    \\/     M anipulation  |                                                 |
\*---------------------------------------------------------------------------*/
FoamFile
{
    version     2.0;
    format      ascii;
    arch        "LSB;label=32;scalar=64";
    class       volScalarField;
    location    "17/fluidRegion";
    object      epsilon;
}
// * * * * * * * * * * * * * * * * * * * * * * * * * * * * * * * * * * * * * //

dimensions      [0 2 -3 0 0 0 0];

internalField   nonuniform List<scalar> 
350
(
66.7373
66.7209
66.7045
66.6881
66.6718
66.6555
66.6394
66.6233
66.6074
66.5918
66.5765
66.5619
66.5481
66.5357
66.5254
66.5183
66.5161
66.5214
66.5382
66.5723
66.6332
66.7349
66.899
67.1583
67.5632
66.7373
66.7209
66.7045
66.6881
66.6718
66.6555
66.6394
66.6233
66.6074
66.5918
66.5765
66.5619
66.5481
66.5357
66.5254
66.5183
66.5161
66.5214
66.5382
66.5723
66.6332
66.7349
66.899
67.1583
67.5632
3.25506e+06
3.0633e+06
2.83111e+06
2.56275e+06
2.27115e+06
1.9692e+06
1.66899e+06
1.38116e+06
1.11445e+06
875360
668030
494256
353681
244130
162069
103138
62687.5
36247.4
19866.9
10305.4
5086.28
2445.75
1222.85
719.586
559.644
3.31805e+06
3.12343e+06
2.88752e+06
2.61449e+06
2.31754e+06
2.00983e+06
1.70371e+06
1.41008e+06
1.13786e+06
893748
682001
504492
360885
248981
165180
105027
63766.7
36822.1
20148.6
10430.4
5135.28
2462.15
1227.35
720.612
560.01
3.24463e+06
3.05337e+06
2.82184e+06
2.55428e+06
2.26358e+06
1.96259e+06
1.66336e+06
1.37649e+06
1.11068e+06
872406
665792
492620
352532
243357
161573
102836
62514.6
36154.6
19820.8
10284.4
5077.64
2442.55
1221.79
719.255
559.542
3.30413e+06
3.1101e+06
2.87499e+06
2.60296e+06
2.30718e+06
2.00074e+06
1.69592e+06
1.40357e+06
1.13258e+06
889595
678839
502170
359248
247877
164471
104596
63520.4
36690.9
20084.3
10401.9
5124.14
2458.45
1226.36
720.397
559.935
3.30413e+06
3.1101e+06
2.87499e+06
2.60296e+06
2.30718e+06
2.00074e+06
1.69592e+06
1.40357e+06
1.13258e+06
889595
678839
502170
359249
247877
164471
104596
63520.4
36690.9
20084.3
10401.9
5124.14
2458.45
1226.36
720.397
559.934
3.24463e+06
3.05337e+06
2.82184e+06
2.55428e+06
2.26358e+06
1.96259e+06
1.66336e+06
1.37649e+06
1.11068e+06
872407
665792
492621
352532
243357
161573
102836
62514.6
36154.7
19820.8
10284.4
5077.64
2442.55
1221.78
719.254
559.542
3.31805e+06
3.12343e+06
2.88752e+06
2.61449e+06
2.31754e+06
2.00983e+06
1.70371e+06
1.41008e+06
1.13786e+06
893748
682001
504491
360885
248981
165180
105027
63766.7
36822.1
20148.6
10430.4
5135.28
2462.15
1227.35
720.612
560.01
3.25506e+06
3.0633e+06
2.83111e+06
2.56275e+06
2.27115e+06
1.9692e+06
1.66899e+06
1.38116e+06
1.11445e+06
875360
668030
494256
353682
244130
162069
103138
62687.5
36247.4
19866.9
10305.4
5086.28
2445.74
1222.85
719.584
559.643
3.30413e+06
3.1101e+06
2.87499e+06
2.60296e+06
2.30718e+06
2.00074e+06
1.69592e+06
1.40357e+06
1.13258e+06
889595
678839
502170
359248
247877
164471
104596
63520.4
36690.9
20084.3
10401.9
5124.14
2458.45
1226.36
720.397
559.934
3.24463e+06
3.05337e+06
2.82184e+06
2.55428e+06
2.26358e+06
1.96259e+06
1.66336e+06
1.37649e+06
1.11068e+06
872406
665792
492620
352532
243357
161573
102836
62514.6
36154.6
19820.8
10284.4
5077.64
2442.55
1221.78
719.253
559.54
3.24463e+06
3.05337e+06
2.82184e+06
2.55428e+06
2.26358e+06
1.96259e+06
1.66336e+06
1.37649e+06
1.11068e+06
872407
665792
492621
352532
243357
161573
102836
62514.6
36154.6
19820.8
10284.4
5077.64
2442.55
1221.78
719.253
559.541
3.30412e+06
3.1101e+06
2.87499e+06
2.60296e+06
2.30718e+06
2.00074e+06
1.69592e+06
1.40357e+06
1.13258e+06
889595
678839
502171
359249
247877
164471
104596
63520.4
36690.8
20084.3
10401.8
5124.14
2458.45
1226.35
720.395
559.933
)
;

boundaryField
{
    outletCentralUnloaded
    {
        type            zeroGradient;
    }
    inletCentralUnloaded
    {
        type            zeroGradient;
    }
    outletFuelElement
    {
        type            zeroGradient;
    }
    inletFuelElement
    {
        type            zeroGradient;
    }
    defaultFaces
    {
        type            zeroGradient;
    }
    baffle_master
    {
        type            zeroGradient;
    }
    baffle_slave
    {
        type            zeroGradient;
    }
}


// ************************************************************************* //
