/*--------------------------------*- C++ -*----------------------------------*\
| =========                 |                                                 |
| \\      /  F ield         | OpenFOAM: The Open Source CFD Toolbox           |
|  \\    /   O peration     | Version:  2212                                  |
|   \\  /    A nd           | Website:  www.openfoam.com                      |
|    \\/     M anipulation  |                                                 |
\*---------------------------------------------------------------------------*/
FoamFile
{
    version     2.0;
    format      ascii;
    arch        "LSB;label=32;scalar=64";
    class       volScalarField;
    location    "17/fluidRegion";
    object      p;
}
// * * * * * * * * * * * * * * * * * * * * * * * * * * * * * * * * * * * * * //

dimensions      [1 -1 -2 0 0 0 0];

internalField   nonuniform List<scalar> 
350
(
3.44743e+06
3.44772e+06
3.44802e+06
3.44831e+06
3.44861e+06
3.4489e+06
3.4492e+06
3.44949e+06
3.44979e+06
3.45008e+06
3.45038e+06
3.45067e+06
3.45097e+06
3.45126e+06
3.45156e+06
3.45185e+06
3.45215e+06
3.45244e+06
3.45273e+06
3.45303e+06
3.45332e+06
3.45362e+06
3.45391e+06
3.45421e+06
3.45449e+06
3.44743e+06
3.44772e+06
3.44802e+06
3.44831e+06
3.44861e+06
3.4489e+06
3.4492e+06
3.44949e+06
3.44979e+06
3.45008e+06
3.45038e+06
3.45067e+06
3.45097e+06
3.45126e+06
3.45156e+06
3.45185e+06
3.45215e+06
3.45244e+06
3.45273e+06
3.45303e+06
3.45332e+06
3.45362e+06
3.45391e+06
3.45421e+06
3.45449e+06
3.46573e+06
3.50214e+06
3.53847e+06
3.57449e+06
3.60994e+06
3.64457e+06
3.67816e+06
3.71049e+06
3.74136e+06
3.77061e+06
3.79808e+06
3.82365e+06
3.8472e+06
3.86866e+06
3.88799e+06
3.90518e+06
3.92026e+06
3.93328e+06
3.94434e+06
3.95355e+06
3.96105e+06
3.967e+06
3.97159e+06
3.97503e+06
3.97755e+06
3.46573e+06
3.50214e+06
3.53847e+06
3.57449e+06
3.60994e+06
3.64457e+06
3.67816e+06
3.71049e+06
3.74136e+06
3.77061e+06
3.79808e+06
3.82365e+06
3.8472e+06
3.86866e+06
3.88799e+06
3.90518e+06
3.92026e+06
3.93328e+06
3.94434e+06
3.95355e+06
3.96105e+06
3.967e+06
3.97159e+06
3.97503e+06
3.97755e+06
3.46573e+06
3.50214e+06
3.53847e+06
3.57449e+06
3.60994e+06
3.64457e+06
3.67816e+06
3.71049e+06
3.74136e+06
3.77061e+06
3.79808e+06
3.82365e+06
3.8472e+06
3.86866e+06
3.88799e+06
3.90518e+06
3.92026e+06
3.93328e+06
3.94434e+06
3.95355e+06
3.96105e+06
3.967e+06
3.97159e+06
3.97503e+06
3.97755e+06
3.46573e+06
3.50214e+06
3.53847e+06
3.57449e+06
3.60994e+06
3.64457e+06
3.67816e+06
3.71049e+06
3.74136e+06
3.77061e+06
3.79808e+06
3.82365e+06
3.8472e+06
3.86866e+06
3.88799e+06
3.90518e+06
3.92026e+06
3.93328e+06
3.94434e+06
3.95355e+06
3.96105e+06
3.967e+06
3.97159e+06
3.97503e+06
3.97755e+06
3.46573e+06
3.50214e+06
3.53847e+06
3.57449e+06
3.60994e+06
3.64457e+06
3.67816e+06
3.71049e+06
3.74136e+06
3.77061e+06
3.79808e+06
3.82365e+06
3.8472e+06
3.86866e+06
3.88799e+06
3.90518e+06
3.92026e+06
3.93328e+06
3.94434e+06
3.95355e+06
3.96105e+06
3.967e+06
3.97159e+06
3.97503e+06
3.97755e+06
3.46573e+06
3.50214e+06
3.53847e+06
3.57449e+06
3.60994e+06
3.64457e+06
3.67816e+06
3.71049e+06
3.74136e+06
3.77061e+06
3.79808e+06
3.82365e+06
3.8472e+06
3.86866e+06
3.88799e+06
3.90518e+06
3.92026e+06
3.93328e+06
3.94434e+06
3.95355e+06
3.96105e+06
3.967e+06
3.97159e+06
3.97503e+06
3.97755e+06
3.46573e+06
3.50214e+06
3.53847e+06
3.57449e+06
3.60994e+06
3.64457e+06
3.67816e+06
3.71049e+06
3.74136e+06
3.77061e+06
3.79808e+06
3.82365e+06
3.8472e+06
3.86866e+06
3.88799e+06
3.90518e+06
3.92026e+06
3.93328e+06
3.94434e+06
3.95355e+06
3.96105e+06
3.967e+06
3.97159e+06
3.97503e+06
3.97755e+06
3.46573e+06
3.50214e+06
3.53847e+06
3.57449e+06
3.60994e+06
3.64457e+06
3.67816e+06
3.71049e+06
3.74136e+06
3.77061e+06
3.79808e+06
3.82365e+06
3.8472e+06
3.86866e+06
3.88799e+06
3.90518e+06
3.92026e+06
3.93328e+06
3.94434e+06
3.95355e+06
3.96105e+06
3.967e+06
3.97159e+06
3.97503e+06
3.97755e+06
3.46573e+06
3.50214e+06
3.53847e+06
3.57449e+06
3.60994e+06
3.64457e+06
3.67816e+06
3.71049e+06
3.74136e+06
3.77061e+06
3.79808e+06
3.82365e+06
3.8472e+06
3.86866e+06
3.88799e+06
3.90518e+06
3.92026e+06
3.93328e+06
3.94434e+06
3.95355e+06
3.96105e+06
3.967e+06
3.97159e+06
3.97503e+06
3.97755e+06
3.46573e+06
3.50214e+06
3.53847e+06
3.57449e+06
3.60994e+06
3.64457e+06
3.67816e+06
3.71049e+06
3.74136e+06
3.77061e+06
3.79808e+06
3.82365e+06
3.8472e+06
3.86866e+06
3.88799e+06
3.90518e+06
3.92026e+06
3.93328e+06
3.94434e+06
3.95355e+06
3.96105e+06
3.967e+06
3.97159e+06
3.97503e+06
3.97755e+06
3.46573e+06
3.50214e+06
3.53847e+06
3.57449e+06
3.60994e+06
3.64457e+06
3.67816e+06
3.71049e+06
3.74136e+06
3.77061e+06
3.79808e+06
3.82365e+06
3.8472e+06
3.86866e+06
3.88799e+06
3.90518e+06
3.92026e+06
3.93328e+06
3.94434e+06
3.95355e+06
3.96105e+06
3.967e+06
3.97159e+06
3.97503e+06
3.97755e+06
3.46573e+06
3.50214e+06
3.53847e+06
3.57449e+06
3.60994e+06
3.64457e+06
3.67816e+06
3.71049e+06
3.74136e+06
3.77061e+06
3.79808e+06
3.82365e+06
3.8472e+06
3.86866e+06
3.88799e+06
3.90518e+06
3.92026e+06
3.93328e+06
3.94434e+06
3.95355e+06
3.96105e+06
3.967e+06
3.97159e+06
3.97503e+06
3.97755e+06
)
;

boundaryField
{
    outletCentralUnloaded
    {
        type            fixedValue;
        value           uniform 3.44728e+06;
    }
    inletCentralUnloaded
    {
        type            zeroGradient;
    }
    outletFuelElement
    {
        type            fixedValue;
        value           uniform 3.44728e+06;
    }
    inletFuelElement
    {
        type            zeroGradient;
    }
    defaultFaces
    {
        type            zeroGradient;
    }
    baffle_master
    {
        type            zeroGradient;
    }
    baffle_slave
    {
        type            zeroGradient;
    }
}


// ************************************************************************* //
