/*--------------------------------*- C++ -*----------------------------------*\
| =========                 |                                                 |
| \\      /  F ield         | OpenFOAM: The Open Source CFD Toolbox           |
|  \\    /   O peration     | Version:  2212                                  |
|   \\  /    A nd           | Website:  www.openfoam.com                      |
|    \\/     M anipulation  |                                                 |
\*---------------------------------------------------------------------------*/
FoamFile
{
    version     2.0;
    format      ascii;
    arch        "LSB;label=32;scalar=64";
    class       volScalarField;
    location    "17/fluidRegion";
    object      Tcav.nuclearFuelPin;
}
// * * * * * * * * * * * * * * * * * * * * * * * * * * * * * * * * * * * * * //

dimensions      [0 0 0 1 0 0 0];

internalField   nonuniform List<scalar> 
350
(
0
0
0
0
0
0
0
0
0
0
0
0
0
0
0
0
0
0
0
0
0
0
0
0
0
0
0
0
0
0
0
0
0
0
0
0
0
0
0
0
0
0
0
0
0
0
0
0
0
0
1405.71
1447.61
1478.58
1498.59
1507.72
1506.18
1494.3
1472.54
1441.48
1401.83
1354.41
1300.14
1240.06
1175.26
1106.88
1035.98
963.472
889.902
815.236
738.511
657.382
567.687
463.654
340.366
200.476
1424.82
1467.42
1498.93
1519.29
1528.58
1527.01
1514.93
1492.8
1461.2
1420.84
1372.57
1317.32
1256.14
1190.15
1120.5
1048.31
974.509
899.686
823.832
745.993
663.799
573.015
467.746
342.957
201.355
1402.58
1444.38
1475.28
1495.24
1504.36
1502.83
1491
1469.31
1438.35
1398.82
1351.54
1297.44
1237.54
1172.94
1104.76
1034.07
961.762
888.39
813.911
737.363
656.403
566.88
463.041
339.98
200.342
1420.52
1462.96
1494.33
1514.6
1523.84
1522.27
1510.23
1488.17
1456.69
1416.49
1368.4
1313.37
1252.44
1186.72
1117.36
1045.47
971.963
897.428
821.847
744.265
662.316
571.783
466.799
342.357
201.152
1420.52
1462.96
1494.33
1514.6
1523.84
1522.27
1510.23
1488.17
1456.69
1416.49
1368.4
1313.37
1252.44
1186.72
1117.36
1045.47
971.963
897.427
821.847
744.265
662.316
571.783
466.799
342.357
201.152
1402.58
1444.38
1475.28
1495.24
1504.36
1502.83
1491
1469.31
1438.35
1398.82
1351.54
1297.44
1237.54
1172.94
1104.76
1034.07
961.762
888.39
813.912
737.364
656.404
566.881
463.041
339.98
200.342
1424.82
1467.42
1498.93
1519.29
1528.58
1527.01
1514.93
1492.8
1461.2
1420.84
1372.57
1317.32
1256.14
1190.15
1120.5
1048.31
974.509
899.686
823.832
745.993
663.799
573.015
467.746
342.957
201.355
1405.71
1447.61
1478.58
1498.59
1507.72
1506.18
1494.3
1472.54
1441.48
1401.83
1354.41
1300.14
1240.06
1175.26
1106.88
1035.98
963.472
889.902
815.236
738.511
657.382
567.687
463.654
340.366
200.476
1420.52
1462.96
1494.33
1514.6
1523.84
1522.27
1510.23
1488.17
1456.69
1416.49
1368.4
1313.37
1252.44
1186.72
1117.36
1045.47
971.963
897.427
821.847
744.265
662.316
571.783
466.799
342.357
201.152
1402.58
1444.38
1475.28
1495.24
1504.36
1502.83
1491
1469.31
1438.35
1398.82
1351.54
1297.44
1237.54
1172.94
1104.76
1034.07
961.761
888.39
813.911
737.363
656.403
566.88
463.041
339.98
200.342
1402.58
1444.38
1475.28
1495.24
1504.36
1502.83
1491
1469.31
1438.35
1398.82
1351.54
1297.44
1237.54
1172.94
1104.76
1034.07
961.762
888.39
813.912
737.364
656.404
566.881
463.041
339.98
200.342
1420.52
1462.96
1494.33
1514.6
1523.84
1522.27
1510.23
1488.17
1456.69
1416.49
1368.4
1313.37
1252.44
1186.72
1117.36
1045.47
971.963
897.427
821.847
744.265
662.316
571.783
466.799
342.357
201.152
)
;

boundaryField
{
    outletCentralUnloaded
    {
        type            zeroGradient;
    }
    inletCentralUnloaded
    {
        type            zeroGradient;
    }
    outletFuelElement
    {
        type            zeroGradient;
    }
    inletFuelElement
    {
        type            zeroGradient;
    }
    defaultFaces
    {
        type            zeroGradient;
    }
    baffle_master
    {
        type            zeroGradient;
    }
    baffle_slave
    {
        type            zeroGradient;
    }
}


// ************************************************************************* //
