/*--------------------------------*- C++ -*----------------------------------*\
| =========                 |                                                 |
| \\      /  F ield         | OpenFOAM: The Open Source CFD Toolbox           |
|  \\    /   O peration     | Version:  2212                                  |
|   \\  /    A nd           | Website:  www.openfoam.com                      |
|    \\/     M anipulation  |                                                 |
\*---------------------------------------------------------------------------*/
FoamFile
{
    version     2.0;
    format      ascii;
    arch        "LSB;label=32;scalar=64";
    class       volScalarField;
    location    "17/fluidRegion";
    object      Tco.nuclearFuelPin;
}
// * * * * * * * * * * * * * * * * * * * * * * * * * * * * * * * * * * * * * //

dimensions      [0 0 0 1 0 0 0];

internalField   nonuniform List<scalar> 
350
(
0
0
0
0
0
0
0
0
0
0
0
0
0
0
0
0
0
0
0
0
0
0
0
0
0
0
0
0
0
0
0
0
0
0
0
0
0
0
0
0
0
0
0
0
0
0
0
0
0
0
1407.35
1440.63
1463.13
1474.95
1476.3
1467.52
1449.05
1421.45
1385.41
1341.71
1291.22
1234.93
1173.91
1109.26
1042.11
973.517
904.348
835.1
765.663
694.978
620.58
538.16
441.772
326.316
194.32
1426.54
1460.44
1483.37
1495.45
1496.87
1487.98
1469.23
1441.19
1404.55
1360.09
1308.72
1251.42
1189.28
1123.43
1055.03
985.172
914.746
844.291
773.722
701.99
626.603
543.178
445.641
328.772
195.154
1404.21
1437.4
1459.85
1471.64
1472.99
1464.23
1445.82
1418.31
1382.37
1338.8
1288.46
1232.34
1171.5
1107.04
1040.1
971.709
902.74
833.683
764.424
693.905
619.664
537.404
441.195
325.952
194.193
1422.23
1455.97
1478.8
1490.8
1492.2
1483.32
1464.63
1436.69
1400.17
1355.88
1304.71
1247.63
1185.74
1120.17
1052.06
982.485
912.347
842.169
771.861
700.37
625.211
542.018
444.745
328.203
194.962
1422.23
1455.97
1478.8
1490.8
1492.2
1483.32
1464.63
1436.69
1400.17
1355.88
1304.71
1247.63
1185.74
1120.17
1052.06
982.485
912.347
842.169
771.861
700.37
625.211
542.018
444.745
328.203
194.962
1404.21
1437.4
1459.85
1471.64
1472.99
1464.23
1445.82
1418.31
1382.37
1338.8
1288.46
1232.34
1171.5
1107.04
1040.1
971.71
902.741
833.683
764.424
693.905
619.665
537.405
441.196
325.952
194.194
1426.54
1460.44
1483.37
1495.45
1496.87
1487.98
1469.23
1441.19
1404.55
1360.09
1308.72
1251.42
1189.28
1123.43
1055.03
985.172
914.746
844.291
773.722
701.99
626.603
543.178
445.641
328.772
195.154
1407.35
1440.63
1463.13
1474.95
1476.3
1467.52
1449.05
1421.45
1385.41
1341.71
1291.22
1234.93
1173.91
1109.25
1042.11
973.517
904.348
835.1
765.663
694.978
620.58
538.161
441.772
326.316
194.32
1422.23
1455.97
1478.8
1490.8
1492.2
1483.32
1464.63
1436.69
1400.17
1355.88
1304.71
1247.63
1185.74
1120.17
1052.06
982.485
912.347
842.169
771.861
700.37
625.211
542.018
444.745
328.203
194.962
1404.21
1437.4
1459.85
1471.64
1472.99
1464.23
1445.82
1418.31
1382.37
1338.8
1288.46
1232.34
1171.5
1107.04
1040.1
971.709
902.74
833.683
764.424
693.905
619.664
537.404
441.195
325.952
194.193
1404.21
1437.4
1459.85
1471.64
1472.99
1464.23
1445.82
1418.31
1382.37
1338.8
1288.46
1232.34
1171.5
1107.04
1040.1
971.709
902.741
833.683
764.424
693.905
619.665
537.405
441.196
325.952
194.194
1422.23
1455.97
1478.8
1490.8
1492.2
1483.32
1464.63
1436.69
1400.17
1355.88
1304.71
1247.63
1185.74
1120.17
1052.06
982.485
912.347
842.169
771.861
700.37
625.211
542.018
444.745
328.203
194.962
)
;

boundaryField
{
    outletCentralUnloaded
    {
        type            zeroGradient;
    }
    inletCentralUnloaded
    {
        type            zeroGradient;
    }
    outletFuelElement
    {
        type            zeroGradient;
    }
    inletFuelElement
    {
        type            zeroGradient;
    }
    defaultFaces
    {
        type            zeroGradient;
    }
    baffle_master
    {
        type            zeroGradient;
    }
    baffle_slave
    {
        type            zeroGradient;
    }
}


// ************************************************************************* //
