/*--------------------------------*- C++ -*----------------------------------*\
| =========                 |                                                 |
| \\      /  F ield         | OpenFOAM: The Open Source CFD Toolbox           |
|  \\    /   O peration     | Version:  2212                                  |
|   \\  /    A nd           | Website:  www.openfoam.com                      |
|    \\/     M anipulation  |                                                 |
\*---------------------------------------------------------------------------*/
FoamFile
{
    version     2.0;
    format      ascii;
    arch        "LSB;label=32;scalar=64";
    class       volScalarField;
    location    "17/fluidRegion";
    object      Tfav.nuclearFuelPin;
}
// * * * * * * * * * * * * * * * * * * * * * * * * * * * * * * * * * * * * * //

dimensions      [0 0 0 1 0 0 0];

internalField   nonuniform List<scalar> 
350
(
0
0
0
0
0
0
0
0
0
0
0
0
0
0
0
0
0
0
0
0
0
0
0
0
0
0
0
0
0
0
0
0
0
0
0
0
0
0
0
0
0
0
0
0
0
0
0
0
0
0
1329.04
1921.37
2493.59
3036.91
3543.04
4004.21
4413.37
4764.24
5051.47
5270.68
5418.55
5492.88
5492.61
5417.82
5269.74
5050.64
4763.79
4413.26
4003.79
3540.57
3028.83
2473.76
1880.41
1255.06
608.272
1343
1942.29
2521.19
3070.84
3582.83
4049.32
4463.15
4818
5108.43
5330.03
5479.44
5554.43
5553.95
5478.07
5328.05
5106.2
4815.83
4461.09
4046.78
3578.15
3060.49
2499.03
1898.86
1266.3
612.044
1326.76
1918
2489.15
3031.47
3536.67
3997.01
4405.43
4755.68
5042.4
5261.23
5408.86
5483.09
5482.86
5408.25
5260.48
5041.82
4755.52
4405.67
3996.97
3534.61
3023.81
2469.75
1877.49
1253.28
607.674
1339.84
1937.53
2514.88
3063.07
3573.71
4038.96
4451.72
4805.65
5095.34
5316.38
5465.43
5540.27
5539.83
5464.2
5314.63
5093.41
4803.85
4450.08
4036.88
3569.5
3053.2
2493.21
1894.61
1263.71
611.176
1339.84
1937.53
2514.88
3063.07
3573.71
4038.96
4451.72
4805.65
5095.34
5316.38
5465.43
5540.27
5539.83
5464.2
5314.63
5093.41
4803.85
4450.08
4036.88
3569.5
3053.2
2493.21
1894.61
1263.71
611.176
1326.76
1918
2489.15
3031.47
3536.67
3997.01
4405.43
4755.68
5042.4
5261.23
5408.86
5483.09
5482.86
5408.25
5260.48
5041.82
4755.52
4405.67
3996.97
3534.61
3023.81
2469.75
1877.5
1253.28
607.674
1343
1942.29
2521.19
3070.84
3582.83
4049.32
4463.15
4818
5108.43
5330.03
5479.44
5554.43
5553.95
5478.07
5328.05
5106.2
4815.83
4461.09
4046.78
3578.15
3060.49
2499.03
1898.86
1266.3
612.044
1329.04
1921.37
2493.59
3036.91
3543.04
4004.21
4413.37
4764.24
5051.47
5270.68
5418.55
5492.88
5492.61
5417.82
5269.74
5050.64
4763.79
4413.26
4003.79
3540.57
3028.83
2473.76
1880.41
1255.06
608.272
1339.84
1937.53
2514.88
3063.07
3573.71
4038.96
4451.72
4805.65
5095.34
5316.38
5465.43
5540.27
5539.83
5464.2
5314.63
5093.41
4803.85
4450.08
4036.88
3569.5
3053.2
2493.21
1894.61
1263.71
611.176
1326.76
1918
2489.15
3031.47
3536.67
3997.01
4405.43
4755.68
5042.4
5261.23
5408.86
5483.09
5482.86
5408.25
5260.48
5041.82
4755.52
4405.66
3996.97
3534.61
3023.81
2469.75
1877.49
1253.28
607.674
1326.76
1918
2489.15
3031.47
3536.67
3997.01
4405.43
4755.68
5042.4
5261.23
5408.86
5483.09
5482.86
5408.25
5260.48
5041.82
4755.52
4405.67
3996.97
3534.61
3023.81
2469.75
1877.49
1253.28
607.674
1339.84
1937.53
2514.88
3063.07
3573.71
4038.96
4451.72
4805.65
5095.34
5316.38
5465.43
5540.27
5539.83
5464.2
5314.63
5093.41
4803.85
4450.08
4036.88
3569.5
3053.2
2493.21
1894.61
1263.71
611.176
)
;

boundaryField
{
    outletCentralUnloaded
    {
        type            zeroGradient;
    }
    inletCentralUnloaded
    {
        type            zeroGradient;
    }
    outletFuelElement
    {
        type            zeroGradient;
    }
    inletFuelElement
    {
        type            zeroGradient;
    }
    defaultFaces
    {
        type            zeroGradient;
    }
    baffle_master
    {
        type            zeroGradient;
    }
    baffle_slave
    {
        type            zeroGradient;
    }
}


// ************************************************************************* //
