/*--------------------------------*- C++ -*----------------------------------*\
| =========                 |                                                 |
| \\      /  F ield         | OpenFOAM: The Open Source CFD Toolbox           |
|  \\    /   O peration     | Version:  2212                                  |
|   \\  /    A nd           | Website:  www.openfoam.com                      |
|    \\/     M anipulation  |                                                 |
\*---------------------------------------------------------------------------*/
FoamFile
{
    version     2.0;
    format      ascii;
    arch        "LSB;label=32;scalar=64";
    class       volScalarField;
    location    "17/fluidRegion";
    object      Tfi.nuclearFuelPin;
}
// * * * * * * * * * * * * * * * * * * * * * * * * * * * * * * * * * * * * * //

dimensions      [0 0 0 1 0 0 0];

internalField   nonuniform List<scalar> 
350
(
0
0
0
0
0
0
0
0
0
0
0
0
0
0
0
0
0
0
0
0
0
0
0
0
0
0
0
0
0
0
0
0
0
0
0
0
0
0
0
0
0
0
0
0
0
0
0
0
0
0
1281.36
2138
2970.47
3765.8
4511.61
5196.28
5809.15
6340.69
6782.63
7128.1
7371.76
7509.85
7540.25
7462.54
7277.93
6989.27
6600.95
6118.77
5549.8
4902.26
4185.12
3408.16
2581.69
1717.31
829.34
1292.37
2158.94
3001.05
3805.58
4559.99
5252.55
5872.46
6410.07
6857.04
7206.42
7452.8
7592.38
7623.03
7544.31
7357.47
7065.39
6672.51
6184.72
5609.16
4954.16
4228.79
3442.91
2606.97
1732.66
834.488
1279.57
2134.63
2965.57
3759.44
4503.89
5187.31
5799.06
6329.63
6770.77
7115.63
7358.86
7496.71
7527.08
7449.53
7265.28
6977.17
6589.57
6108.28
5540.36
4894.01
4178.18
3402.63
2577.68
1714.87
828.522
1289.87
2154.15
2994.04
3796.45
4548.88
5239.61
5857.9
6394.12
6839.92
7188.4
7434.15
7573.38
7603.98
7525.49
7339.16
7047.87
6656.04
6169.54
5595.5
4942.21
4218.73
3434.91
2601.15
1729.13
833.303
1289.87
2154.15
2994.04
3796.45
4548.88
5239.61
5857.9
6394.12
6839.92
7188.4
7434.15
7573.38
7603.98
7525.49
7339.16
7047.87
6656.04
6169.54
5595.49
4942.21
4218.73
3434.91
2601.15
1729.13
833.303
1279.57
2134.63
2965.57
3759.44
4503.88
5187.31
5799.06
6329.63
6770.77
7115.63
7358.86
7496.71
7527.08
7449.53
7265.28
6977.17
6589.57
6108.28
5540.36
4894.01
4178.18
3402.63
2577.68
1714.87
828.522
1292.37
2158.94
3001.05
3805.58
4559.99
5252.55
5872.46
6410.07
6857.04
7206.42
7452.8
7592.38
7623.03
7544.31
7357.47
7065.39
6672.51
6184.72
5609.16
4954.16
4228.79
3442.91
2606.97
1732.66
834.488
1281.36
2138
2970.47
3765.8
4511.61
5196.28
5809.15
6340.69
6782.63
7128.1
7371.76
7509.85
7540.25
7462.54
7277.93
6989.27
6600.95
6118.77
5549.8
4902.26
4185.12
3408.16
2581.69
1717.31
829.34
1289.87
2154.15
2994.04
3796.45
4548.88
5239.61
5857.9
6394.12
6839.92
7188.4
7434.15
7573.38
7603.98
7525.49
7339.16
7047.87
6656.04
6169.54
5595.5
4942.21
4218.73
3434.91
2601.15
1729.13
833.303
1279.57
2134.63
2965.57
3759.44
4503.88
5187.31
5799.06
6329.63
6770.77
7115.63
7358.86
7496.71
7527.08
7449.53
7265.28
6977.17
6589.57
6108.28
5540.36
4894.01
4178.18
3402.63
2577.68
1714.87
828.522
1279.57
2134.63
2965.57
3759.44
4503.88
5187.31
5799.06
6329.63
6770.77
7115.63
7358.86
7496.71
7527.08
7449.53
7265.28
6977.17
6589.57
6108.28
5540.36
4894.01
4178.18
3402.63
2577.68
1714.87
828.522
1289.87
2154.15
2994.04
3796.45
4548.88
5239.61
5857.9
6394.12
6839.92
7188.4
7434.15
7573.38
7603.98
7525.49
7339.16
7047.87
6656.04
6169.54
5595.49
4942.21
4218.73
3434.91
2601.15
1729.13
833.303
)
;

boundaryField
{
    outletCentralUnloaded
    {
        type            zeroGradient;
    }
    inletCentralUnloaded
    {
        type            zeroGradient;
    }
    outletFuelElement
    {
        type            zeroGradient;
    }
    inletFuelElement
    {
        type            zeroGradient;
    }
    defaultFaces
    {
        type            zeroGradient;
    }
    baffle_master
    {
        type            zeroGradient;
    }
    baffle_slave
    {
        type            zeroGradient;
    }
}


// ************************************************************************* //
