/*--------------------------------*- C++ -*----------------------------------*\
| =========                 |                                                 |
| \\      /  F ield         | OpenFOAM: The Open Source CFD Toolbox           |
|  \\    /   O peration     | Version:  2212                                  |
|   \\  /    A nd           | Website:  www.openfoam.com                      |
|    \\/     M anipulation  |                                                 |
\*---------------------------------------------------------------------------*/
FoamFile
{
    version     2.0;
    format      ascii;
    arch        "LSB;label=32;scalar=64";
    class       volScalarField;
    location    "17/fluidRegion";
    object      Tfo.nuclearFuelPin;
}
// * * * * * * * * * * * * * * * * * * * * * * * * * * * * * * * * * * * * * //

dimensions      [0 0 0 1 0 0 0];

internalField   nonuniform List<scalar> 
350
(
0
0
0
0
0
0
0
0
0
0
0
0
0
0
0
0
0
0
0
0
0
0
0
0
0
0
0
0
0
0
0
0
0
0
0
0
0
0
0
0
0
0
0
0
0
0
0
0
0
0
1372.46
1681.77
1975.55
2249.55
2499.79
2722.61
2914.76
3073.47
3196.42
3281.89
3328.68
3336.23
3304.57
3234.31
3126.64
2983.23
2806.12
2597.57
2359.85
2094.96
1804.21
1487.92
1145.58
777.711
390.838
1389.23
1702.28
1999.59
2276.84
2530.01
2755.39
2949.71
3110.15
3234.37
3320.63
3367.72
3375.08
3342.73
3271.32
3162.05
3016.63
2837.14
2625.89
2385.2
2117.11
1822.92
1502.96
1156.67
784.516
393.127
1369.72
1678.43
1971.67
2245.16
2494.94
2717.36
2909.18
3067.62
3190.39
3275.73
3322.48
3330.07
3298.52
3228.45
3121.04
2977.95
2801.21
2593.1
2355.85
2091.47
1801.26
1485.55
1143.84
776.647
390.478
1385.45
1697.63
1994.13
2270.62
2523.1
2747.89
2941.71
3101.73
3225.66
3311.73
3358.75
3366.14
3333.95
3262.8
3153.9
3008.94
2829.99
2619.37
2379.36
2112.01
1818.61
1499.5
1154.11
782.946
392.599
1385.45
1697.63
1994.13
2270.62
2523.1
2747.89
2941.71
3101.73
3225.66
3311.73
3358.75
3366.14
3333.95
3262.8
3153.9
3008.94
2829.99
2619.37
2379.36
2112.01
1818.61
1499.5
1154.11
782.946
392.599
1369.72
1678.43
1971.67
2245.16
2494.94
2717.36
2909.18
3067.62
3190.39
3275.73
3322.48
3330.07
3298.52
3228.45
3121.04
2977.95
2801.21
2593.1
2355.85
2091.47
1801.26
1485.56
1143.84
776.647
390.478
1389.23
1702.28
1999.59
2276.84
2530.01
2755.39
2949.71
3110.15
3234.37
3320.63
3367.72
3375.08
3342.73
3271.32
3162.05
3016.63
2837.14
2625.89
2385.2
2117.11
1822.92
1502.96
1156.67
784.516
393.127
1372.46
1681.77
1975.55
2249.55
2499.79
2722.61
2914.76
3073.47
3196.42
3281.89
3328.68
3336.23
3304.57
3234.31
3126.64
2983.23
2806.12
2597.57
2359.85
2094.96
1804.21
1487.92
1145.58
777.71
390.838
1385.45
1697.63
1994.13
2270.62
2523.1
2747.89
2941.71
3101.73
3225.66
3311.73
3358.75
3366.14
3333.95
3262.8
3153.9
3008.94
2829.99
2619.37
2379.36
2112.01
1818.61
1499.5
1154.11
782.946
392.599
1369.72
1678.43
1971.67
2245.16
2494.94
2717.36
2909.18
3067.62
3190.39
3275.73
3322.48
3330.07
3298.52
3228.45
3121.04
2977.95
2801.21
2593.1
2355.85
2091.47
1801.26
1485.55
1143.84
776.647
390.478
1369.72
1678.43
1971.67
2245.16
2494.94
2717.36
2909.18
3067.62
3190.39
3275.73
3322.48
3330.07
3298.52
3228.45
3121.04
2977.95
2801.21
2593.1
2355.85
2091.47
1801.26
1485.56
1143.84
776.647
390.478
1385.45
1697.63
1994.13
2270.62
2523.1
2747.89
2941.71
3101.73
3225.66
3311.73
3358.75
3366.14
3333.95
3262.8
3153.9
3008.94
2829.99
2619.37
2379.36
2112.01
1818.61
1499.5
1154.11
782.946
392.599
)
;

boundaryField
{
    outletCentralUnloaded
    {
        type            zeroGradient;
    }
    inletCentralUnloaded
    {
        type            zeroGradient;
    }
    outletFuelElement
    {
        type            zeroGradient;
    }
    inletFuelElement
    {
        type            zeroGradient;
    }
    defaultFaces
    {
        type            zeroGradient;
    }
    baffle_master
    {
        type            zeroGradient;
    }
    baffle_slave
    {
        type            zeroGradient;
    }
}


// ************************************************************************* //
