/*--------------------------------*- C++ -*----------------------------------*\
| =========                 |                                                 |
| \\      /  F ield         | OpenFOAM: The Open Source CFD Toolbox           |
|  \\    /   O peration     | Version:  2212                                  |
|   \\  /    A nd           | Website:  www.openfoam.com                      |
|    \\/     M anipulation  |                                                 |
\*---------------------------------------------------------------------------*/
FoamFile
{
    version     2.0;
    format      ascii;
    arch        "LSB;label=32;scalar=64";
    class       scalarFieldField;
    location    "17/fluidRegion";
    object      Trad.nuclearFuelPin;
}
// * * * * * * * * * * * * * * * * * * * * * * * * * * * * * * * * * * * * * //


350
(
0()
0()
0()
0()
0()
0()
0()
0()
0()
0()
0()
0()
0()
0()
0()
0()
0()
0()
0()
0()
0()
0()
0()
0()
0()
0()
0()
0()
0()
0()
0()
0()
0()
0()
0()
0()
0()
0()
0()
0()
0()
0()
0()
0()
0()
0()
0()
0()
0()
0()

20
(
1281.36
1281.8
1283.1
1285.28
1288.33
1292.25
1297.05
1302.72
1309.22
1316.54
1324.61
1333.36
1342.68
1352.43
1362.43
1372.46
1404
1405.12
1406.23
1407.35
)


20
(
2138
2136.3
2131.18
2122.6
2110.46
2094.65
2075.03
2051.38
2023.5
1991.1
1953.89
1911.51
1863.56
1809.62
1749.2
1681.77
1455.13
1450.11
1445.27
1440.63
)


20
(
2970.47
2966.66
2955.22
2936.02
2908.92
2873.67
2829.97
2777.45
2715.69
2644.19
2562.39
2469.68
2365.4
2248.8
2119.13
1975.55
1495.18
1484.11
1473.43
1463.13
)


20
(
3765.8
3759.95
3742.37
3712.9
3671.28
3617.18
3550.16
3469.67
3375.1
3265.73
3140.77
2999.36
2840.56
2663.37
2466.73
2249.55
1523.96
1507.06
1490.72
1474.95
)


20
(
4511.61
4503.82
4480.39
4441.13
4385.7
4313.67
4224.44
4117.34
3991.55
3846.16
3680.16
3492.45
3281.84
3047.08
2786.85
2499.79
1541.42
1518.97
1497.27
1476.3
)


20
(
5196.28
5186.68
5157.79
5109.39
5041.07
4952.29
4842.35
4710.42
4555.51
4376.53
4172.27
3941.41
3682.53
3394.15
3074.71
2722.61
1547.64
1520.02
1493.33
1467.52
)


20
(
5809.15
5797.89
5764.03
5707.29
5627.2
5523.15
5394.31
5239.73
5058.27
4848.67
4609.55
4339.37
4036.54
3699.34
3326.03
2914.76
1542.82
1510.5
1479.26
1449.05
)


20
(
6340.69
6327.96
6289.67
6225.52
6134.99
6017.37
5871.76
5697.07
5492.06
5255.31
4985.27
4680.26
4338.49
3958.07
3537.07
3073.47
1527.31
1490.83
1455.56
1421.45
)


20
(
6782.63
6768.63
6726.55
6656.05
6556.55
6427.3
6267.31
6075.4
5850.2
5590.2
5293.7
4958.88
4583.8
4166.44
3704.7
3196.42
1501.59
1461.56
1422.86
1385.41
)


20
(
7128.1
7113.07
7067.89
6992.18
6885.36
6746.59
6574.84
6368.85
6127.18
5848.19
5530.1
5170.98
4768.78
4321.35
3826.48
3281.89
1466.28
1423.36
1381.86
1341.71
)


20
(
7371.76
7355.95
7308.39
7228.73
7116.32
6970.32
6789.62
6572.94
6318.74
6025.35
5690.9
5313.38
4890.65
4420.51
3900.63
3328.68
1422.14
1377.03
1333.42
1291.22
)


20
(
7509.85
7493.51
7444.37
7362.04
7245.9
7095.05
6908.37
6684.54
6422
6119.01
5773.68
5383.95
4947.65
4462.5
3926.16
3336.23
1370.03
1323.49
1278.48
1234.93
)


20
(
7540.25
7523.65
7473.73
7390.1
7272.11
7118.89
6929.29
6701.98
6435.4
6127.79
5777.25
5381.71
4938.99
4446.8
3902.79
3304.57
1310.96
1263.75
1218.09
1173.91
)


20
(
7462.54
7445.95
7396.07
7312.5
7194.61
7041.52
6852.11
6625.06
6358.8
6051.63
5701.63
5306.78
4864.91
4373.76
3831.01
3234.31
1246
1198.9
1153.34
1109.26
)


20
(
7277.93
7261.63
7212.6
7130.46
7014.61
6864.17
6678.06
6454.99
6193.44
5891.74
5548.05
5160.37
4726.61
4244.58
3712.02
3126.64
1176.29
1130.07
1085.37
1042.11
)


20
(
6989.27
6973.52
6926.15
6846.8
6734.88
6589.56
6409.82
6194.4
5941.86
5650.61
5318.87
4944.75
4526.25
4061.26
3547.65
2983.23
1102.92
1058.35
1015.24
973.517
)


20
(
6600.95
6586.01
6541.07
6465.81
6359.67
6221.86
6051.43
5847.2
5607.83
5331.82
5017.5
4663.1
4266.75
3826.48
3340.29
2806.12
1026.83
984.643
943.841
904.348
)


20
(
6118.77
6104.88
6063.12
5993.18
5894.55
5766.52
5608.19
5418.51
5196.24
4940
4648.27
4319.42
3951.75
3543.45
3092.68
2597.57
948.629
909.525
871.706
835.1
)


20
(
5549.8
5537.19
5499.28
5435.79
5346.28
5230.1
5086.46
4914.42
4712.87
4480.59
4216.22
3918.31
3585.34
3215.71
2807.77
2359.85
868.36
832.987
798.776
765.663
)


20
(
4902.26
4891.13
4857.68
4801.66
4722.68
4620.21
4493.55
4341.9
4164.31
3959.71
3726.95
3464.79
3171.9
2846.91
2488.41
2094.96
785.163
754.1
724.057
694.978
)


20
(
4185.12
4175.64
4147.15
4099.45
4032.22
3945.03
3837.3
3708.37
3557.46
3383.72
3186.19
2963.85
2715.62
2440.38
2136.97
1804.21
696.821
670.56
645.163
620.58
)


20
(
3408.16
3400.46
3377.33
3338.62
3284.08
3213.38
3126.09
3021.7
2899.63
2759.22
2599.74
2420.43
2220.46
1998.97
1755.09
1487.92
599.328
578.259
557.883
538.16
)


20
(
2581.69
2575.87
2558.37
2529.09
2487.88
2434.5
2368.68
2290.07
2198.29
2092.89
1973.4
1839.3
1690.05
1525.07
1343.78
1145.58
487.103
471.489
456.388
441.772
)


20
(
1717.31
1713.41
1701.67
1682.07
1654.51
1618.9
1575.08
1522.9
1462.17
1392.67
1314.18
1226.45
1129.21
1022.19
905.123
777.711
355.421
345.397
335.701
326.316
)


20
(
829.34
827.369
821.459
811.611
797.831
780.127
758.51
732.99
703.585
670.312
633.192
592.25
547.512
499.009
446.773
390.838
207.069
202.68
198.434
194.32
)


20
(
1292.37
1292.83
1294.21
1296.52
1299.76
1303.93
1309.02
1315.03
1321.94
1329.7
1338.27
1347.56
1357.46
1367.84
1378.5
1389.23
1423.02
1424.2
1425.36
1426.54
)


20
(
2158.94
2157.24
2152.13
2143.56
2131.44
2115.66
2096.05
2072.42
2044.54
2012.15
1974.92
1932.5
1884.49
1830.46
1769.9
1702.28
1474.96
1469.93
1465.08
1460.44
)


20
(
3001.05
2997.23
2985.71
2966.42
2939.16
2903.7
2859.75
2806.92
2744.79
2672.84
2590.52
2497.21
2392.22
2274.82
2144.22
1999.59
1515.64
1504.5
1493.74
1483.37
)


20
(
3805.58
3799.69
3781.97
3752.27
3710.34
3655.83
3588.28
3507.17
3411.85
3301.6
3175.63
3033.06
2872.93
2694.24
2495.92
2276.84
1544.87
1527.82
1511.35
1495.45
)


20
(
4559.99
4552.14
4528.51
4488.91
4433.01
4360.35
4270.35
4162.32
4035.42
3888.75
3721.26
3531.86
3319.33
3082.41
2819.76
2530.01
1562.59
1539.93
1518.03
1496.87
)


20
(
5252.55
5242.85
5213.71
5164.87
5095.92
5006.33
4895.38
4762.22
4605.88
4425.23
4219.04
3985.99
3724.64
3433.48
3110.94
2755.39
1568.88
1540.99
1514.04
1487.98
)


20
(
5872.46
5861.09
5826.91
5769.63
5688.78
5583.74
5453.67
5297.6
5114.4
4902.78
4661.32
4388.5
4082.69
3742.15
3365.11
2949.71
1563.94
1531.3
1499.74
1469.23
)


20
(
6410.07
6397.22
6358.56
6293.79
6202.38
6083.61
5936.57
5760.17
5553.14
5314.04
5041.31
4733.25
4388.04
4003.78
3578.49
3110.15
1548.12
1511.27
1475.65
1441.19
)


20
(
6857.04
6842.91
6800.41
6729.21
6628.73
6498.19
6336.6
6142.77
5915.32
5652.69
5353.19
5014.97
4636.06
4214.42
3747.92
3234.37
1521.92
1481.48
1442.38
1404.55
)


20
(
7206.42
7191.24
7145.61
7069.14
6961.24
6821.07
6647.59
6439.51
6195.38
5913.54
5592.19
5229.38
4823.02
4370.95
3870.92
3320.63
1485.97
1442.6
1400.66
1360.09
)


20
(
7452.8
7436.83
7388.79
7308.31
7194.76
7047.27
6864.73
6645.82
6389.02
6092.6
5754.69
5373.24
4946.12
4471.05
3945.71
3367.72
1441.01
1395.43
1351.36
1308.72
)


20
(
7592.38
7575.87
7526.23
7443.06
7325.72
7173.32
6984.72
6758.57
6493.31
6187.17
5838.24
5444.44
5003.55
4513.29
3971.27
3375.08
1387.95
1340.91
1295.43
1251.42
)


20
(
7623.03
7606.26
7555.82
7471.32
7352.12
7197.3
7005.74
6776.06
6506.7
6195.87
5841.65
5441.95
4994.55
4497.14
3947.35
3342.73
1327.79
1280.08
1233.93
1189.28
)


20
(
7544.31
7527.55
7477.14
7392.71
7273.59
7118.91
6927.52
6698.09
6429.04
6118.64
5764.95
5365.92
4919.35
4422.97
3874.43
3271.32
1261.64
1214.03
1167.99
1123.43
)


20
(
7357.47
7340.99
7291.45
7208.46
7091.39
6939.38
6751.32
6525.9
6261.6
5956.72
5609.38
5217.58
4779.2
4292.01
3753.74
3162.05
1190.66
1143.94
1098.76
1055.03
)


20
(
7065.39
7049.47
7001.6
6921.42
6808.33
6661.49
6479.85
6262.16
6006.95
5712.61
5377.34
4999.24
4576.26
4106.29
3587.15
3016.63
1115.97
1070.92
1027.35
985.172
)


20
(
6672.51
6657.41
6612.01
6535.95
6428.69
6289.44
6117.22
5910.83
5668.93
5389.98
5072.31
4714.13
4313.53
3868.53
3377.09
2837.14
1038.55
995.909
954.666
914.746
)


20
(
6184.72
6170.69
6128.49
6057.81
5958.14
5828.77
5668.78
5477.1
5252.47
4993.51
4698.67
4366.31
3994.7
3582
3126.37
2625.89
959.049
919.522
881.293
844.291
)


20
(
5609.16
5596.42
5558.12
5493.97
5403.51
5286.12
5140.98
4967.13
4763.45
4528.7
4261.53
3960.45
3623.91
3250.31
2837.97
2385.2
877.531
841.775
807.194
773.722
)


20
(
4954.16
4942.92
4909.12
4852.52
4772.72
4669.19
4541.21
4387.98
4208.52
4001.77
3766.56
3501.61
3205.61
2877.15
2514.8
2117.11
793.148
761.75
731.383
701.99
)


20
(
4228.79
4219.21
4190.43
4142.25
4074.33
3986.24
3877.41
3747.15
3594.69
3419.14
3219.55
2994.88
2744.04
2465.88
2159.24
1822.92
703.659
677.118
651.449
626.603
)


20
(
3442.91
3435.14
3411.78
3372.68
3317.6
3246.2
3158.03
3052.6
2929.3
2787.46
2626.36
2445.21
2243.17
2019.38
1772.95
1502.96
604.99
583.699
563.108
543.178
)


20
(
2606.97
2601.09
2583.42
2553.87
2512.27
2458.38
2391.93
2312.57
2219.9
2113.48
1992.82
1857.4
1706.65
1540.02
1356.89
1156.67
491.435
475.661
460.406
445.641
)


20
(
1732.66
1728.72
1716.89
1697.12
1669.33
1633.41
1589.21
1536.58
1475.31
1405.2
1326
1237.47
1139.34
1031.33
913.148
784.516
358.156
348.036
338.248
328.772
)


20
(
834.488
832.506
826.563
816.659
802.801
784.995
763.251
737.579
707.995
674.516
637.16
595.951
550.913
502.076
449.47
393.127
207.996
203.576
199.298
195.154
)


20
(
1279.57
1280
1281.29
1283.45
1286.47
1290.35
1295.1
1300.71
1307.15
1314.4
1322.39
1331.04
1340.26
1349.91
1359.8
1369.72
1400.89
1402
1403.1
1404.21
)


20
(
2134.63
2132.93
2127.81
2119.22
2107.08
2091.27
2071.64
2047.99
2020.11
1987.71
1950.49
1908.11
1860.18
1806.24
1745.84
1678.43
1451.9
1446.87
1442.04
1437.4
)


20
(
2965.57
2961.77
2950.33
2931.15
2904.07
2868.85
2825.19
2772.72
2711.02
2639.59
2557.87
2465.26
2361.08
2244.61
2115.08
1971.67
1491.86
1480.8
1470.13
1459.85
)


20
(
3759.44
3753.6
3736.04
3706.6
3665.04
3611
3544.06
3463.67
3369.22
3259.98
3135.19
2993.96
2835.36
2658.41
2462.04
2245.16
1520.58
1503.7
1487.39
1471.64
)


20
(
4503.89
4496.11
4472.71
4433.5
4378.15
4306.21
4217.11
4110.15
3984.54
3839.35
3673.59
3486.14
3275.84
3041.42
2781.57
2494.94
1538.01
1515.59
1493.93
1472.99
)


20
(
5187.31
5177.71
5148.87
5100.54
5032.32
4943.67
4833.89
4702.15
4547.47
4368.76
4164.8
3934.29
3675.8
3387.86
3068.91
2717.36
1544.23
1516.66
1490
1464.23
)


20
(
5799.06
5787.82
5754.01
5697.35
5617.39
5513.49
5384.85
5230.5
5049.32
4840.04
4601.29
4331.53
4029.17
3692.51
3319.79
2909.18
1539.44
1507.18
1475.98
1445.82
)


20
(
6329.63
6316.92
6278.7
6214.64
6124.25
6006.82
5861.43
5687.02
5482.33
5245.95
4976.34
4671.82
4330.59
3950.79
3530.46
3067.62
1523.99
1487.57
1452.36
1418.31
)


20
(
6770.77
6756.8
6714.79
6644.39
6545.06
6416.01
6256.27
6064.66
5839.83
5580.24
5284.22
4949.94
4575.48
4158.81
3697.82
3190.39
1498.36
1458.4
1419.76
1382.37
)


20
(
7115.63
7100.63
7055.51
6979.93
6873.27
6734.73
6563.26
6357.6
6116.32
5837.79
5520.22
5161.69
4760.15
4313.46
3819.41
3275.73
1463.17
1420.32
1378.89
1338.8
)


20
(
7358.86
7343.07
7295.59
7216.06
7103.83
6958.07
6777.67
6561.34
6307.56
6014.65
5680.75
5303.85
4881.84
4412.47
3893.47
3322.48
1419.16
1374.13
1330.59
1288.46
)


20
(
7496.71
7480.4
7431.34
7349.15
7233.19
7082.59
6896.22
6672.76
6410.65
6108.17
5763.41
5374.34
4938.77
4454.43
3919
3330.07
1367.21
1320.75
1275.82
1232.34
)


20
(
7527.08
7510.51
7460.67
7377.17
7259.38
7106.41
6917.13
6690.2
6424.06
6116.97
5767.01
5372.14
4930.16
4438.81
3895.72
3298.52
1308.32
1261.19
1215.61
1171.5
)


20
(
7449.53
7432.97
7383.16
7299.73
7182.04
7029.21
6840.12
6613.44
6347.63
6040.97
5691.57
5297.38
4856.26
4365.95
3824.13
3228.45
1243.56
1196.53
1151.05
1107.04
)


20
(
7265.28
7249
7200.05
7118.05
7002.39
6852.2
6666.41
6443.71
6182.61
5881.42
5538.3
5151.29
4718.27
4237.06
3705.41
3121.04
1174.05
1127.91
1083.29
1040.1
)


20
(
6977.17
6961.44
6914.15
6834.93
6723.2
6578.13
6398.68
6183.62
5931.51
5640.75
5309.58
4936.1
4518.31
4054.12
3541.4
2977.95
1100.89
1056.4
1013.36
971.709
)


20
(
6589.57
6574.65
6529.79
6454.66
6348.69
6211.12
6040.97
5837.09
5598.12
5322.57
5008.79
4655
4259.33
3819.82
3334.46
2801.21
1025.01
982.896
942.165
902.74
)


20
(
6108.28
6094.42
6052.73
5982.9
5884.43
5756.62
5598.56
5409.2
5187.31
4931.5
4640.26
4311.98
3944.94
3537.34
3087.35
2593.1
947.015
907.979
870.226
833.683
)


20
(
5540.36
5527.77
5489.92
5426.54
5337.18
5221.19
5077.8
4906.05
4704.84
4472.94
4209.02
3911.63
3579.23
3210.23
2802.99
2355.85
866.943
831.632
797.48
764.424
)


20
(
4894.01
4882.9
4849.5
4793.57
4714.73
4612.42
4485.98
4334.58
4157.28
3953.03
3720.66
3458.94
3166.55
2842.12
2484.24
2091.47
783.935
752.925
722.934
693.905
)


20
(
4178.18
4168.72
4140.27
4092.65
4025.53
3938.48
3830.93
3702.21
3551.55
3378.1
3180.9
2958.93
2711.12
2436.35
2133.45
1801.26
695.774
669.559
644.205
619.664
)


20
(
3402.63
3394.95
3371.86
3333.2
3278.75
3208.16
3121.01
3016.8
2894.92
2754.74
2595.53
2416.51
2216.87
1995.75
1752.28
1485.55
598.469
577.435
557.093
537.404
)


20
(
2577.68
2571.86
2554.39
2525.16
2484
2430.71
2364.99
2286.5
2194.86
2089.63
1970.33
1836.44
1687.43
1522.71
1341.72
1143.84
486.451
470.863
455.787
441.195
)


20
(
1714.87
1710.97
1699.26
1679.68
1652.16
1616.59
1572.84
1520.73
1460.09
1390.69
1312.31
1224.71
1127.61
1020.76
903.864
776.647
355.012
345.003
335.323
325.952
)


20
(
828.522
826.553
820.647
810.808
797.042
779.354
757.757
732.262
702.885
669.645
632.563
591.664
546.974
498.524
446.347
390.478
206.927
202.544
198.302
194.193
)


20
(
1289.87
1290.32
1291.69
1293.97
1297.16
1301.28
1306.31
1312.24
1319.06
1326.72
1335.18
1344.35
1354.13
1364.36
1374.88
1385.45
1418.74
1419.91
1421.06
1422.23
)


20
(
2154.15
2152.45
2147.34
2138.77
2126.65
2110.86
2091.25
2067.62
2039.74
2007.35
1970.13
1927.72
1879.74
1825.72
1765.2
1697.63
1470.49
1465.46
1460.62
1455.97
)


20
(
2994.04
2990.22
2978.72
2959.45
2932.23
2896.82
2852.93
2800.18
2738.13
2666.29
2584.09
2490.92
2386.1
2268.89
2138.51
1994.13
1511.02
1499.89
1489.15
1478.8
)


20
(
3796.45
3790.57
3772.88
3743.23
3701.38
3646.96
3579.54
3498.57
3403.42
3293.38
3167.65
3025.34
2865.53
2687.19
2489.26
2270.62
1540.14
1523.12
1506.68
1490.8
)


20
(
4548.88
4541.04
4517.45
4477.93
4422.14
4349.63
4259.81
4151.99
4025.35
3878.98
3711.84
3522.83
3310.74
3074.32
2812.24
2523.1
1557.79
1535.17
1513.32
1492.2
)


20
(
5239.61
5229.94
5200.86
5152.12
5083.32
4993.91
4883.2
4750.32
4594.31
4414.05
4208.31
3975.76
3714.98
3424.46
3102.64
2747.89
1564.05
1536.22
1509.33
1483.32
)


20
(
5857.9
5846.56
5812.45
5755.29
5674.63
5569.81
5440.03
5284.3
5101.5
4890.35
4649.43
4377.22
4072.09
3732.33
3356.15
2941.71
1559.12
1526.56
1495.08
1464.63
)


20
(
6394.12
6381.29
6342.72
6278.09
6186.88
6068.38
5921.67
5745.66
5539.1
5300.54
5028.43
4721.07
4376.66
3993.28
3568.98
3101.73
1543.37
1506.61
1471.07
1436.69
)


20
(
6839.92
6825.82
6783.42
6712.38
6612.13
6481.89
6320.66
6127.28
5900.34
5638.32
5339.51
5002.07
4624.05
4203.4
3737.99
3225.66
1517.27
1476.93
1437.91
1400.17
)


20
(
7188.4
7173.26
7127.72
7051.43
6943.78
6803.94
6630.85
6423.25
6179.69
5898.51
5577.91
5215.95
4810.55
4359.55
3860.7
3311.73
1481.46
1438.19
1396.36
1355.88
)


20
(
7434.15
7418.21
7370.29
7290
7176.71
7029.56
6847.45
6629.05
6372.85
6077.13
5740.01
5359.47
4933.36
4459.42
3935.34
3358.75
1436.68
1391.21
1347.25
1304.71
)


20
(
7573.38
7556.91
7507.39
7424.41
7307.35
7155.3
6967.15
6741.53
6476.9
6171.49
5823.39
5430.52
4990.69
4501.61
3960.89
3366.14
1383.83
1336.91
1291.54
1247.63
)


20
(
7603.98
7587.24
7536.93
7452.63
7333.7
7179.26
6988.14
6759.01
6490.29
6180.2
5826.83
5428.09
4981.76
4485.56
3937.09
3333.95
1323.92
1276.32
1230.29
1185.74
)


20
(
7525.49
7508.77
7458.48
7374.25
7255.41
7101.1
6910.17
6681.28
6412.88
6103.21
5750.38
5352.31
4906.82
4411.65
3864.44
3262.8
1258.04
1210.55
1164.62
1120.17
)


20
(
7339.16
7322.72
7273.3
7190.5
7073.72
6922.07
6734.46
6509.58
6245.91
5941.76
5595.26
5204.41
4767.09
4281.09
3744.13
3153.9
1187.35
1140.75
1095.68
1052.06
)


20
(
7047.87
7031.98
6984.23
6904.24
6791.42
6644.93
6463.73
6246.56
5991.97
5698.34
5363.88
4986.69
4564.74
4095.92
3578.06
3008.94
1112.97
1068.02
1024.56
982.485
)


20
(
6656.04
6640.97
6595.68
6519.81
6412.8
6273.88
6102.07
5896.18
5654.86
5376.59
5059.69
4702.38
4302.76
3858.85
3368.61
2829.99
1035.85
993.31
952.168
912.347
)


20
(
6169.54
6155.54
6113.44
6042.93
5943.5
5814.44
5654.83
5463.61
5239.53
4981.19
4687.06
4355.52
3984.81
3573.13
3118.61
2619.37
956.644
917.214
879.08
842.169
)


20
(
5595.5
5582.78
5544.57
5480.58
5390.34
5273.22
5128.43
4954.99
4751.8
4517.63
4251.09
3950.74
3615.03
3242.34
2831.01
2379.36
875.414
839.746
805.251
771.861
)


20
(
4942.21
4931
4897.28
4840.81
4761.2
4657.91
4530.24
4377.37
4198.34
3992.09
3757.44
3493.13
3197.84
2870.18
2508.72
2112.01
791.304
759.983
729.691
700.37
)


20
(
4218.73
4209.18
4180.47
4132.39
4064.64
3976.75
3868.17
3738.22
3586.12
3410.98
3211.87
2987.73
2737.49
2460.01
2154.11
1818.61
702.079
675.603
649.996
625.211
)


20
(
3434.91
3427.15
3403.85
3364.84
3309.88
3238.64
3150.68
3045.48
2922.47
2780.96
2620.23
2439.5
2237.94
2014.68
1768.83
1499.5
603.681
582.441
561.9
542.018
)


20
(
2601.15
2595.28
2577.65
2548.17
2506.65
2452.88
2386.58
2307.39
2214.93
2108.74
1988.35
1853.23
1702.83
1536.57
1353.87
1154.11
490.433
474.696
459.476
444.745
)


20
(
1729.13
1725.2
1713.39
1693.66
1665.92
1630.07
1585.96
1533.43
1472.29
1402.31
1323.28
1234.93
1137.01
1029.22
911.298
782.946
357.523
347.425
337.658
328.203
)


20
(
833.303
831.324
825.387
815.497
801.657
783.874
762.159
736.523
706.98
673.548
636.246
595.098
550.13
501.37
448.849
392.599
207.782
203.369
199.098
194.962
)


20
(
1289.87
1290.32
1291.69
1293.97
1297.16
1301.28
1306.31
1312.24
1319.06
1326.72
1335.18
1344.35
1354.13
1364.36
1374.88
1385.45
1418.74
1419.91
1421.06
1422.23
)


20
(
2154.15
2152.45
2147.34
2138.77
2126.65
2110.86
2091.25
2067.62
2039.74
2007.35
1970.13
1927.72
1879.74
1825.72
1765.2
1697.63
1470.49
1465.46
1460.62
1455.97
)


20
(
2994.04
2990.22
2978.72
2959.45
2932.23
2896.82
2852.93
2800.18
2738.13
2666.29
2584.09
2490.92
2386.1
2268.89
2138.51
1994.13
1511.02
1499.89
1489.15
1478.8
)


20
(
3796.45
3790.57
3772.88
3743.23
3701.38
3646.96
3579.54
3498.57
3403.42
3293.38
3167.65
3025.34
2865.53
2687.19
2489.26
2270.62
1540.14
1523.12
1506.68
1490.8
)


20
(
4548.88
4541.04
4517.45
4477.93
4422.14
4349.63
4259.81
4151.99
4025.35
3878.97
3711.84
3522.82
3310.74
3074.32
2812.24
2523.1
1557.79
1535.17
1513.32
1492.2
)


20
(
5239.61
5229.94
5200.86
5152.11
5083.32
4993.91
4883.2
4750.32
4594.31
4414.05
4208.31
3975.76
3714.98
3424.46
3102.64
2747.89
1564.05
1536.22
1509.33
1483.32
)


20
(
5857.9
5846.56
5812.45
5755.29
5674.63
5569.81
5440.03
5284.3
5101.5
4890.35
4649.43
4377.22
4072.09
3732.33
3356.15
2941.71
1559.12
1526.56
1495.08
1464.63
)


20
(
6394.12
6381.29
6342.72
6278.09
6186.88
6068.38
5921.67
5745.66
5539.09
5300.54
5028.43
4721.07
4376.66
3993.28
3568.98
3101.73
1543.37
1506.61
1471.06
1436.69
)


20
(
6839.92
6825.82
6783.42
6712.38
6612.13
6481.89
6320.66
6127.28
5900.34
5638.32
5339.51
5002.07
4624.05
4203.4
3737.99
3225.66
1517.27
1476.93
1437.91
1400.17
)


20
(
7188.4
7173.26
7127.72
7051.43
6943.78
6803.94
6630.85
6423.25
6179.69
5898.51
5577.91
5215.95
4810.55
4359.55
3860.7
3311.73
1481.46
1438.19
1396.36
1355.88
)


20
(
7434.15
7418.21
7370.29
7290
7176.71
7029.56
6847.45
6629.05
6372.85
6077.13
5740.01
5359.47
4933.36
4459.42
3935.34
3358.75
1436.68
1391.21
1347.25
1304.71
)


20
(
7573.38
7556.91
7507.39
7424.41
7307.35
7155.3
6967.15
6741.53
6476.9
6171.49
5823.39
5430.52
4990.69
4501.6
3960.89
3366.14
1383.83
1336.91
1291.54
1247.63
)


20
(
7603.98
7587.24
7536.92
7452.63
7333.7
7179.25
6988.14
6759.01
6490.29
6180.2
5826.83
5428.09
4981.76
4485.56
3937.09
3333.95
1323.92
1276.32
1230.29
1185.74
)


20
(
7525.49
7508.77
7458.48
7374.24
7255.41
7101.09
6910.17
6681.28
6412.88
6103.21
5750.38
5352.31
4906.82
4411.65
3864.43
3262.8
1258.04
1210.55
1164.62
1120.17
)


20
(
7339.16
7322.72
7273.3
7190.5
7073.72
6922.07
6734.46
6509.58
6245.91
5941.76
5595.26
5204.41
4767.09
4281.09
3744.13
3153.9
1187.35
1140.75
1095.68
1052.06
)


20
(
7047.87
7031.98
6984.23
6904.24
6791.42
6644.93
6463.73
6246.56
5991.97
5698.34
5363.88
4986.69
4564.74
4095.92
3578.06
3008.94
1112.97
1068.02
1024.56
982.485
)


20
(
6656.04
6640.97
6595.68
6519.81
6412.8
6273.88
6102.07
5896.18
5654.86
5376.59
5059.69
4702.38
4302.76
3858.85
3368.61
2829.99
1035.85
993.31
952.168
912.347
)


20
(
6169.54
6155.54
6113.44
6042.93
5943.5
5814.44
5654.83
5463.61
5239.52
4981.19
4687.06
4355.52
3984.81
3573.13
3118.61
2619.37
956.644
917.214
879.08
842.169
)


20
(
5595.49
5582.78
5544.57
5480.57
5390.34
5273.22
5128.43
4954.99
4751.8
4517.63
4251.09
3950.74
3615.03
3242.34
2831.01
2379.36
875.414
839.746
805.251
771.861
)


20
(
4942.21
4931
4897.28
4840.81
4761.2
4657.91
4530.24
4377.37
4198.34
3992.09
3757.44
3493.13
3197.84
2870.18
2508.72
2112.01
791.304
759.983
729.691
700.37
)


20
(
4218.73
4209.18
4180.47
4132.39
4064.64
3976.75
3868.17
3738.22
3586.12
3410.98
3211.87
2987.73
2737.49
2460.01
2154.11
1818.61
702.079
675.603
649.996
625.211
)


20
(
3434.91
3427.15
3403.85
3364.84
3309.88
3238.64
3150.68
3045.48
2922.47
2780.96
2620.23
2439.5
2237.94
2014.68
1768.83
1499.5
603.681
582.442
561.9
542.018
)


20
(
2601.15
2595.28
2577.66
2548.17
2506.65
2452.89
2386.58
2307.39
2214.93
2108.74
1988.35
1853.23
1702.83
1536.57
1353.87
1154.11
490.433
474.696
459.476
444.745
)


20
(
1729.13
1725.2
1713.39
1693.66
1665.92
1630.07
1585.96
1533.43
1472.29
1402.31
1323.28
1234.93
1137.01
1029.22
911.298
782.946
357.523
347.425
337.658
328.203
)


20
(
833.303
831.324
825.388
815.497
801.657
783.874
762.159
736.523
706.98
673.548
636.246
595.098
550.13
501.37
448.849
392.599
207.782
203.369
199.098
194.962
)


20
(
1279.57
1280
1281.29
1283.45
1286.47
1290.35
1295.1
1300.71
1307.15
1314.4
1322.39
1331.04
1340.26
1349.91
1359.8
1369.72
1400.89
1402
1403.1
1404.21
)


20
(
2134.63
2132.93
2127.81
2119.22
2107.08
2091.27
2071.64
2047.99
2020.11
1987.71
1950.49
1908.12
1860.18
1806.24
1745.84
1678.43
1451.9
1446.87
1442.04
1437.4
)


20
(
2965.57
2961.77
2950.33
2931.16
2904.07
2868.85
2825.19
2772.72
2711.02
2639.59
2557.87
2465.26
2361.08
2244.61
2115.08
1971.67
1491.86
1480.8
1470.13
1459.85
)


20
(
3759.44
3753.6
3736.04
3706.6
3665.04
3611.01
3544.06
3463.67
3369.22
3259.98
3135.19
2993.96
2835.37
2658.41
2462.04
2245.16
1520.58
1503.7
1487.39
1471.64
)


20
(
4503.88
4496.11
4472.71
4433.5
4378.15
4306.21
4217.11
4110.15
3984.54
3839.35
3673.59
3486.14
3275.84
3041.42
2781.57
2494.94
1538.02
1515.59
1493.93
1472.99
)


20
(
5187.31
5177.71
5148.87
5100.54
5032.32
4943.67
4833.89
4702.15
4547.47
4368.76
4164.8
3934.29
3675.8
3387.86
3068.91
2717.36
1544.23
1516.66
1490
1464.23
)


20
(
5799.06
5787.82
5754.01
5697.35
5617.39
5513.49
5384.85
5230.5
5049.32
4840.04
4601.29
4331.53
4029.18
3692.51
3319.79
2909.18
1539.44
1507.18
1475.98
1445.82
)


20
(
6329.63
6316.92
6278.7
6214.64
6124.25
6006.82
5861.43
5687.02
5482.33
5245.95
4976.34
4671.82
4330.59
3950.79
3530.46
3067.62
1523.99
1487.57
1452.37
1418.31
)


20
(
6770.77
6756.8
6714.79
6644.39
6545.06
6416.01
6256.27
6064.66
5839.83
5580.25
5284.22
4949.94
4575.48
4158.81
3697.82
3190.39
1498.36
1458.4
1419.76
1382.37
)


20
(
7115.63
7100.63
7055.51
6979.93
6873.27
6734.73
6563.26
6357.6
6116.32
5837.79
5520.22
5161.69
4760.15
4313.46
3819.41
3275.73
1463.17
1420.32
1378.89
1338.8
)


20
(
7358.86
7343.07
7295.59
7216.06
7103.83
6958.07
6777.67
6561.34
6307.56
6014.65
5680.75
5303.85
4881.84
4412.47
3893.47
3322.48
1419.16
1374.13
1330.59
1288.46
)


20
(
7496.71
7480.4
7431.34
7349.15
7233.19
7082.59
6896.22
6672.76
6410.65
6108.17
5763.41
5374.34
4938.77
4454.43
3919
3330.07
1367.21
1320.75
1275.82
1232.34
)


20
(
7527.08
7510.51
7460.67
7377.17
7259.38
7106.41
6917.13
6690.2
6424.06
6116.97
5767.01
5372.14
4930.16
4438.81
3895.72
3298.52
1308.32
1261.19
1215.61
1171.5
)


20
(
7449.53
7432.97
7383.16
7299.73
7182.04
7029.21
6840.12
6613.44
6347.63
6040.97
5691.57
5297.38
4856.26
4365.95
3824.13
3228.45
1243.56
1196.53
1151.06
1107.04
)


20
(
7265.28
7249
7200.05
7118.05
7002.39
6852.2
6666.41
6443.71
6182.61
5881.42
5538.3
5151.29
4718.27
4237.06
3705.41
3121.04
1174.05
1127.91
1083.29
1040.1
)


20
(
6977.17
6961.44
6914.15
6834.93
6723.2
6578.13
6398.68
6183.62
5931.51
5640.75
5309.58
4936.1
4518.31
4054.12
3541.4
2977.95
1100.89
1056.4
1013.36
971.71
)


20
(
6589.57
6574.65
6529.79
6454.66
6348.69
6211.12
6040.97
5837.09
5598.13
5322.58
5008.79
4655
4259.33
3819.82
3334.46
2801.21
1025.01
982.896
942.165
902.741
)


20
(
6108.28
6094.42
6052.73
5982.9
5884.43
5756.62
5598.56
5409.2
5187.31
4931.5
4640.26
4311.98
3944.94
3537.34
3087.35
2593.1
947.016
907.98
870.226
833.683
)


20
(
5540.36
5527.77
5489.92
5426.54
5337.18
5221.19
5077.8
4906.05
4704.84
4472.94
4209.02
3911.63
3579.23
3210.23
2802.99
2355.85
866.944
831.632
797.481
764.424
)


20
(
4894.01
4882.9
4849.5
4793.57
4714.72
4612.42
4485.98
4334.58
4157.28
3953.03
3720.66
3458.94
3166.55
2842.12
2484.24
2091.47
783.935
752.925
722.934
693.905
)


20
(
4178.18
4168.72
4140.27
4092.65
4025.53
3938.48
3830.92
3702.21
3551.55
3378.1
3180.9
2958.93
2711.12
2436.35
2133.45
1801.26
695.774
669.559
644.205
619.665
)


20
(
3402.63
3394.95
3371.86
3333.2
3278.75
3208.16
3121.01
3016.8
2894.92
2754.74
2595.53
2416.51
2216.87
1995.75
1752.28
1485.56
598.469
577.436
557.094
537.405
)


20
(
2577.68
2571.86
2554.39
2525.16
2484
2430.71
2364.99
2286.5
2194.86
2089.63
1970.33
1836.44
1687.43
1522.71
1341.72
1143.84
486.452
470.864
455.788
441.196
)


20
(
1714.87
1710.97
1699.26
1679.68
1652.16
1616.59
1572.84
1520.73
1460.09
1390.69
1312.31
1224.71
1127.61
1020.76
903.864
776.647
355.012
345.003
335.323
325.952
)


20
(
828.522
826.553
820.647
810.809
797.042
779.354
757.757
732.262
702.885
669.645
632.563
591.664
546.974
498.525
446.348
390.478
206.927
202.544
198.302
194.194
)


20
(
1292.37
1292.83
1294.21
1296.52
1299.76
1303.93
1309.02
1315.03
1321.94
1329.7
1338.27
1347.56
1357.46
1367.84
1378.5
1389.23
1423.02
1424.2
1425.36
1426.54
)


20
(
2158.94
2157.24
2152.13
2143.56
2131.44
2115.66
2096.05
2072.42
2044.54
2012.15
1974.92
1932.5
1884.49
1830.46
1769.9
1702.28
1474.96
1469.93
1465.08
1460.44
)


20
(
3001.05
2997.23
2985.72
2966.42
2939.16
2903.71
2859.75
2806.92
2744.79
2672.84
2590.52
2497.21
2392.22
2274.82
2144.22
1999.59
1515.64
1504.5
1493.74
1483.37
)


20
(
3805.58
3799.69
3781.97
3752.27
3710.34
3655.83
3588.28
3507.17
3411.85
3301.6
3175.63
3033.06
2872.93
2694.24
2495.92
2276.84
1544.87
1527.82
1511.35
1495.45
)


20
(
4559.99
4552.14
4528.51
4488.91
4433.01
4360.35
4270.35
4162.32
4035.42
3888.74
3721.26
3531.86
3319.33
3082.41
2819.76
2530.01
1562.59
1539.93
1518.03
1496.87
)


20
(
5252.55
5242.85
5213.71
5164.87
5095.92
5006.33
4895.38
4762.22
4605.88
4425.23
4219.04
3985.99
3724.64
3433.48
3110.94
2755.39
1568.88
1540.99
1514.04
1487.98
)


20
(
5872.46
5861.09
5826.91
5769.63
5688.78
5583.74
5453.67
5297.6
5114.4
4902.78
4661.32
4388.5
4082.69
3742.15
3365.11
2949.71
1563.94
1531.3
1499.74
1469.23
)


20
(
6410.07
6397.22
6358.56
6293.79
6202.38
6083.61
5936.57
5760.17
5553.13
5314.04
5041.31
4733.25
4388.04
4003.78
3578.49
3110.15
1548.12
1511.27
1475.65
1441.19
)


20
(
6857.04
6842.91
6800.42
6729.21
6628.73
6498.19
6336.6
6142.77
5915.32
5652.69
5353.19
5014.97
4636.06
4214.42
3747.92
3234.37
1521.92
1481.48
1442.38
1404.55
)


20
(
7206.42
7191.24
7145.61
7069.14
6961.24
6821.07
6647.59
6439.51
6195.38
5913.54
5592.19
5229.38
4823.02
4370.95
3870.92
3320.63
1485.97
1442.6
1400.66
1360.09
)


20
(
7452.8
7436.82
7388.79
7308.31
7194.76
7047.27
6864.73
6645.82
6389.02
6092.6
5754.69
5373.24
4946.12
4471.05
3945.71
3367.72
1441.01
1395.43
1351.36
1308.72
)


20
(
7592.38
7575.87
7526.23
7443.06
7325.72
7173.32
6984.72
6758.57
6493.31
6187.17
5838.24
5444.44
5003.55
4513.29
3971.27
3375.08
1387.95
1340.91
1295.43
1251.42
)


20
(
7623.03
7606.25
7555.82
7471.32
7352.12
7197.3
7005.74
6776.06
6506.7
6195.87
5841.65
5441.95
4994.55
4497.14
3947.34
3342.73
1327.79
1280.08
1233.93
1189.28
)


20
(
7544.31
7527.55
7477.14
7392.71
7273.59
7118.91
6927.52
6698.09
6429.04
6118.64
5764.95
5365.92
4919.35
4422.97
3874.43
3271.32
1261.64
1214.03
1167.99
1123.43
)


20
(
7357.47
7340.99
7291.45
7208.46
7091.39
6939.38
6751.32
6525.9
6261.6
5956.72
5609.38
5217.58
4779.2
4292.01
3753.74
3162.05
1190.66
1143.94
1098.76
1055.03
)


20
(
7065.39
7049.47
7001.6
6921.42
6808.33
6661.49
6479.85
6262.16
6006.95
5712.61
5377.34
4999.24
4576.26
4106.29
3587.15
3016.63
1115.97
1070.92
1027.35
985.172
)


20
(
6672.51
6657.41
6612.01
6535.95
6428.69
6289.44
6117.22
5910.83
5668.93
5389.98
5072.31
4714.13
4313.53
3868.53
3377.09
2837.14
1038.55
995.909
954.666
914.746
)


20
(
6184.72
6170.68
6128.49
6057.81
5958.14
5828.77
5668.78
5477.1
5252.47
4993.51
4698.67
4366.31
3994.7
3582
3126.37
2625.89
959.049
919.521
881.293
844.291
)


20
(
5609.16
5596.42
5558.12
5493.97
5403.51
5286.12
5140.98
4967.13
4763.45
4528.7
4261.53
3960.45
3623.91
3250.31
2837.97
2385.2
877.531
841.775
807.194
773.722
)


20
(
4954.16
4942.92
4909.12
4852.52
4772.72
4669.19
4541.21
4387.98
4208.52
4001.77
3766.56
3501.61
3205.61
2877.15
2514.8
2117.11
793.148
761.75
731.383
701.99
)


20
(
4228.79
4219.21
4190.43
4142.25
4074.33
3986.24
3877.41
3747.15
3594.69
3419.14
3219.55
2994.88
2744.04
2465.88
2159.24
1822.92
703.659
677.118
651.449
626.603
)


20
(
3442.91
3435.14
3411.78
3372.68
3317.6
3246.2
3158.03
3052.6
2929.3
2787.46
2626.36
2445.21
2243.17
2019.38
1772.95
1502.96
604.99
583.699
563.108
543.178
)


20
(
2606.97
2601.09
2583.43
2553.87
2512.27
2458.39
2391.94
2312.57
2219.91
2113.48
1992.82
1857.4
1706.65
1540.02
1356.89
1156.67
491.435
475.661
460.406
445.641
)


20
(
1732.66
1728.72
1716.89
1697.12
1669.33
1633.41
1589.21
1536.58
1475.31
1405.2
1326