/*--------------------------------*- C++ -*----------------------------------*\
| =========                 |                                                 |
| \\      /  F ield         | OpenFOAM: The Open Source CFD Toolbox           |
|  \\    /   O peration     | Version:  2212                                  |
|   \\  /    A nd           | Website:  www.openfoam.com                      |
|    \\/     M anipulation  |                                                 |
\*---------------------------------------------------------------------------*/
FoamFile
{
    version     2.0;
    format      ascii;
    arch        "LSB;label=32;scalar=64";
    class       surfaceScalarField;
    location    "35/fluidRegion";
    object      alphaPhi;
}
// * * * * * * * * * * * * * * * * * * * * * * * * * * * * * * * * * * * * * //

dimensions      [0 3 -1 0 0 0 0];

oriented        oriented;

internalField   nonuniform List<scalar> 
661
(
-0.000538912
-3.14789e-11
-0.00053887
-4.09803e-11
-0.00053883
-3.91337e-11
-0.000538792
-3.29988e-11
-0.000538757
-2.19505e-11
-0.000538723
-5.48864e-12
-0.00053869
1.51727e-11
-0.000538656
3.7037e-11
-0.000538619
5.60253e-11
-0.000538577
6.79851e-11
-0.000538531
6.99722e-11
-0.000538481
6.12804e-11
-0.000538427
4.37205e-11
-0.000538371
2.09773e-11
-0.000538314
-2.52735e-12
-0.000538259
-2.28823e-11
-0.000538206
-3.75758e-11
-0.000538156
-4.58094e-11
-0.000538109
-4.81902e-11
-0.000538065
-4.60928e-11
-0.000538024
-4.12288e-11
-0.000537984
-3.52756e-11
-0.000537946
-2.72393e-11
-0.000537909
1.02685e-12
6.44605e-11
-0.000538912
-0.00053887
-0.00053883
-0.000538792
-0.000538757
-0.000538723
-0.00053869
-0.000538656
-0.000538619
-0.000538577
-0.000538531
-0.000538481
-0.000538427
-0.000538371
-0.000538314
-0.000538259
-0.000538206
-0.000538156
-0.000538109
-0.000538065
-0.000538024
-0.000537984
-0.000537946
-0.000537909
-0.0199798
1.38324e-06
-0.0195696
6.79512e-07
-0.0190425
7.4116e-07
-0.0184073
6.6663e-07
-0.0176737
6.03146e-07
-0.0168516
5.44043e-07
-0.0159511
4.89018e-07
-0.0149828
4.35237e-07
-0.0139574
3.76984e-07
-0.0128861
3.04848e-07
-0.0117807
2.07443e-07
-0.0106543
7.35356e-08
-0.00952099
-9.91228e-08
-0.00839654
-2.96772e-07
-0.00729777
-4.96791e-07
-0.00624173
-6.66081e-07
-0.00524452
-7.79178e-07
-0.00432018
-8.29841e-07
-0.00348027
-8.31896e-07
-0.00273451
-8.09033e-07
-0.00209166
-7.82525e-07
-0.00156109
-7.56763e-07
-0.00115337
-7.2049e-07
-0.000879232
-6.24737e-07
-5.92001e-07
-0.0201073
-4.50258e-08
-4.13228e-08
-0.0196963
-1.81802e-07
-1.82363e-07
-0.0191671
-1.71816e-07
-1.70965e-07
-0.0185291
-1.49179e-07
-1.47519e-07
-0.0177919
-1.29656e-07
-1.27265e-07
-0.0169653
-1.11586e-07
-1.08849e-07
-0.0160598
-9.48916e-08
-9.19109e-08
-0.0150857
-7.89686e-08
-7.57859e-08
-0.0140538
-6.21897e-08
-5.87925e-08
-0.0129755
-4.20056e-08
-3.83836e-08
-0.0118627
-1.47004e-08
-1.07435e-08
-0.0107283
2.28464e-08
2.6978e-08
-0.00958657
7.1124e-08
7.58214e-08
-0.00845346
1.30793e-07
1.35966e-07
-0.00734595
1.9201e-07
1.97736e-07
-0.00628138
2.4515e-07
2.51446e-07
-0.00527608
2.81609e-07
2.8851e-07
-0.00434433
2.98654e-07
3.06126e-07
-0.00349784
3.00107e-07
3.08219e-07
-0.00274645
2.93324e-07
3.01941e-07
-0.00209898
2.84534e-07
2.93475e-07
-0.00156488
2.73994e-07
2.82603e-07
-0.00115479
2.54375e-07
2.62721e-07
-0.000879425
2.00441e-07
2.07613e-07
1.5228e-07
1.58039e-07
-0.0199589
6.91714e-07
-0.019549
6.69759e-07
-0.0190223
6.44885e-07
-0.0183877
5.73504e-07
-0.0176547
5.09568e-07
-0.0168334
4.50696e-07
-0.0159338
3.95807e-07
-0.0149664
3.41813e-07
-0.0139421
2.82085e-07
-0.0128719
2.06602e-07
-0.0117678
1.02939e-07
-0.0106426
-3.88788e-08
-0.00951066
-2.20636e-07
-0.00838758
-4.28657e-07
-0.00729018
-6.36326e-07
-0.00623548
-8.08655e-07
-0.00523952
-9.19754e-07
-0.00431632
-9.64567e-07
-0.00347741
-9.59056e-07
-0.0027325
-9.28418e-07
-0.00209034
-8.93166e-07
-0.00156029
-8.56291e-07
-0.00115293
-7.94943e-07
-0.000879017
-6.57304e-07
-5.33775e-07
-0.0200789
2.48422e-09
-0.019668
-9.22764e-10
-0.0191392
-6.23068e-10
-0.0185018
-6.39186e-10
-0.0177653
-5.18678e-10
-0.0169397
-4.08725e-10
-0.0160353
-3.5509e-10
-0.0150624
-2.15918e-10
-0.014032
-8.63337e-11
-0.0129553
3.62313e-11
-0.0118441
2.54863e-10
-0.0107115
5.31626e-10
-0.00957164
8.17856e-10
-0.00844049
1.13024e-09
-0.00733496
1.41746e-09
-0.00627233
1.67874e-09
-0.00526887
1.96738e-09
-0.00433881
2.30225e-09
-0.00349383
2.55464e-09
-0.00274373
2.74377e-09
-0.00209732
2.85871e-09
-0.00156403
2.68582e-09
-0.00115449
2.34737e-09
-0.000879407
1.8053e-09
1.17725e-09
-0.020079
-6.86488e-07
-0.019668
-6.71837e-07
-0.0191393
-6.46117e-07
-0.0185019
-5.74786e-07
-0.0177654
-5.10682e-07
-0.0169398
-4.51683e-07
-0.0160353
-3.96718e-07
-0.0150624
-3.4253e-07
-0.014032
-2.82631e-07
-0.0129553
-2.06965e-07
-0.0118441
-1.02954e-07
-0.0107115
3.92128e-08
-0.00957165
2.214e-07
-0.0084405
4.29869e-07
-0.00733497
6.37946e-07
-0.00627233
8.10678e-07
-0.00526887
9.22291e-07
-0.00433882
9.67764e-07
-0.00349383
9.62918e-07
-0.00274373
9.3298e-07
-0.00209733
8.98443e-07
-0.00156404
8.61883e-07
-0.00115449
8.00515e-07
-0.000879408
6.62051e-07
5.37405e-07
-0.0199589
4.02615e-08
-0.0195491
1.81258e-07
-0.0190223
1.71047e-07
-0.0183877
1.48517e-07
-0.0176547
1.29132e-07
-0.0168334
1.10901e-07
-0.0159338
9.41015e-08
-0.0149664
7.79177e-08
-0.0139421
6.0925e-08
-0.0128719
4.03422e-08
-0.0117678
1.27424e-08
-0.0106426
-2.50607e-08
-0.00951067
-7.37153e-08
-0.00838759
-1.33739e-07
-0.00729019
-1.95284e-07
-0.00623548
-2.48757e-07
-0.00523952
-2.85419e-07
-0.00431632
-3.02535e-07
-0.00347741
-3.03973e-07
-0.0027325
-2.96975e-07
-0.00209034
-2.87933e-07
-0.00156029
-2.7694e-07
-0.00115293
-2.56952e-07
-0.000879016
-2.02389e-07
-1.52557e-07
-0.0201073
-1.38395e-06
-4.49253e-08
-0.0196963
-6.80306e-07
-1.81468e-07
-0.0191671
-7.41276e-07
-1.70784e-07
-0.0185291
-6.66396e-07
-1.47454e-07
-0.0177919
-6.02512e-07
-1.27448e-07
-0.0169653
-5.43451e-07
-1.09172e-07
-0.0160598
-4.88356e-07
-9.23721e-08
-0.0150857
-4.34697e-07
-7.6429e-08
-0.0140538
-3.76451e-07
-5.96369e-08
-0.0129755
-3.04476e-07
-3.94453e-08
-0.0118627
-2.07015e-07
-1.21904e-08
-0.0107283
-7.3115e-08
2.52619e-08
-0.00958657
9.97022e-08
7.3517e-08
-0.00845346
2.97502e-07
1.33032e-07
-0.00734595
4.97843e-07
1.94048e-07
-0.00628138
6.67571e-07
2.46834e-07
-0.00527608
7.81462e-07
2.82636e-07
-0.00434433
8.3329e-07
2.98592e-07
-0.00349784
8.37043e-07
2.9856e-07
-0.00274645
8.16484e-07
2.89835e-07
-0.00209898
7.93256e-07
2.78092e-07
-0.00156488
7.70821e-07
2.64501e-07
-0.00115479
7.37918e-07
2.42375e-07
-0.000879425
6.42965e-07
1.87839e-07
6.10409e-07
1.41263e-07
-0.0199798
-0.0195696
-0.0190425
-0.0184073
-0.0176737
-0.0168516
-0.0159511
-0.0149828
-0.0139574
-0.0128861
-0.0117807
-0.0106543
-0.00952099
-0.00839654
-0.00729777
-0.00624173
-0.00524452
-0.00432018
-0.00348027
-0.00273451
-0.00209166
-0.00156109
-0.00115337
-0.000879232
-0.0200789
-6.93106e-07
3.7858e-09
-0.019668
-6.71338e-07
4.98646e-10
-0.0191392
-6.46602e-07
1.02086e-09
-0.0185018
-5.75414e-07
1.13062e-09
-0.0177653
-5.11519e-07
1.23501e-09
-0.0169397
-4.52802e-07
1.34514e-09
-0.0160353
-3.98038e-07
1.54225e-09
-0.0150624
-3.44189e-07
1.71642e-09
-0.014032
-2.84573e-07
1.9584e-09
-0.0129553
-2.09314e-07
2.29133e-09
-0.0118441
-1.05716e-07
2.67251e-09
-0.0107115
3.60042e-08
2.7768e-09
-0.00957164
2.17605e-07
3.35279e-09
-0.00844049
4.25435e-07
3.86498e-09
-0.00733496
6.3279e-07
4.55518e-09
-0.00627233
8.04638e-07
5.41498e-09
-0.00526887
9.15098e-07
6.47791e-09
-0.00433881
9.59016e-07
7.74127e-09
-0.00349383
9.51947e-07
9.50141e-09
-0.00274373
9.19244e-07
1.15898e-08
-0.00209732
8.80465e-07
1.4435e-08
-0.00156403
8.39685e-07
1.69436e-08
-0.00115449
7.74083e-07
1.94711e-08
-0.000879407
6.34565e-07
1.90971e-08
5.12745e-07
1.66292e-08
-0.0199589
-0.019549
-0.0190223
-0.0183877
-0.0176547
-0.0168334
-0.0159338
-0.0149664
-0.0139421
-0.0128719
-0.0117678
-0.0106426
-0.00951066
-0.00838758
-0.00729018
-0.00623548
-0.00523952
-0.00431632
-0.00347741
-0.0027325
-0.00209034
-0.00156029
-0.00115293
-0.000879018
-0.0199589
6.84467e-07
-0.0195491
6.69704e-07
-0.0190223
6.44788e-07
-0.0183877
5.73931e-07
-0.0176547
5.10422e-07
-0.0168334
4.51394e-07
-0.0159338
3.96489e-07
-0.0149664
3.42123e-07
-0.0139421
2.82181e-07
-0.0128719
2.06178e-07
-0.0117678
1.02106e-07
-0.0106426
-3.99756e-08
-0.00951067
-2.22222e-07
-0.00838759
-4.30767e-07
-0.00729019
-6.38815e-07
-0.00623548
-8.11548e-07
-0.00523952
-9.22898e-07
-0.00431632
-9.67826e-07
-0.00347741
-9.62078e-07
-0.0027325
-9.30589e-07
-0.00209034
-8.94349e-07
-0.00156029
-8.55662e-07
-0.00115293
-7.91908e-07
-0.000879016
-6.52031e-07
-5.24345e-07
-0.020079
-0.019668
-0.0191393
-0.0185019
-0.0177654
-0.0169398
-0.0160353
-0.0150624
-0.014032
-0.0129553
-0.0118441
-0.0107115
-0.00957165
-0.0084405
-0.00733497
-0.00627233
-0.00526887
-0.00433882
-0.00349383
-0.00274373
-0.00209732
-0.00156404
-0.00115449
-0.000879408
)
;

boundaryField
{
    outletCentralUnloaded
    {
        type            calculated;
        value           nonuniform List<scalar> 2(0.000538956 0.000538956);
    }
    inletCentralUnloaded
    {
        type            calculated;
        value           uniform -0.000540134;
    }
    outletFuelElement
    {
        type            calculated;
        value           nonuniform List<scalar> 
12
(
0.020307
0.0204375
0.0202866
0.0204084
0.0204084
0.0202867
0.0204375
0.020307
0.0204084
0.0202866
0.0202867
0.0204084
)
;
    }
    inletFuelElement
    {
        type            calculated;
        value           nonuniform List<scalar> 
12
(
-0.000722059
-0.00072206
-0.000722059
-0.000722059
-0.00072206
-0.000722059
-0.00072206
-0.000722059
-0.000722059
-0.000722059
-0.000722059
-0.00072206
)
;
    }
    defaultFaces
    {
        type            calculated;
        value           nonuniform List<scalar> 
450
(
6.3452e-24
-2.16546e-23
0
2.42603e-23
-2.35159e-23
0
2.70011e-23
-3.65534e-25
0
-4.38837e-23
-5.50454e-24
0
-1.83277e-23
-2.86409e-23
0
-2.45982e-23
-1.41062e-23
0
-2.59763e-23
-1.50549e-23
0
-3.1026e-23
-1.46456e-24
0
-1.66068e-23
-4.50653e-24
0
-2.40014e-23
-7.30682e-24
0
-1.63284e-23
-3.05897e-24
0
-5.07583e-24
-2.93228e-24
0
5.26958e-24
4.53789e-24
0
2.12156e-23
1.1634e-23
0
2.898e-23
2.43432e-23
0
3.88391e-23
4.75509e-24
0
4.57421e-23
-2.70171e-24
0
6.31061e-23
3.43606e-23
0
4.15701e-23
-5.24017e-23
0
-3.80284e-23
-2.1134e-23
0
-2.08801e-23
-1.39108e-23
0
2.99885e-23
-1.43055e-23
0
-7.43615e-24
1.98464e-23
0
-1.95429e-23
-1.44333e-23
0
-1.94021e-23
-2.01917e-23
0
1.60454e-23
0
1.60454e-23
0
-8.0227e-24
0
2.40681e-23
0
-1.2034e-23
0
8.0227e-24
0
1.60454e-23
0
1.2034e-23
0
-4.01135e-24
0
8.0227e-24
0
2.50709e-24
0
-1.00284e-24
0
-6.01702e-24
0
-2.00567e-23
0
-2.40681e-23
0
-2.40681e-23
0
4.81362e-23
0
-4.81362e-23
0
3.20908e-23
0
-3.20908e-23
0
-4.01135e-23
0
4.81362e-23
0
-8.0227e-24
0
-4.01135e-23
0
-1.60454e-23
0
0
0
8.0227e-24
-1.60454e-23
1.60454e-23
0
0
0
4.01135e-24
0
-6.01702e-24
5.01419e-25
4.01135e-24
0
8.0227e-24
1.60454e-23
-3.20908e-23
0
-3.20908e-23
1.60454e-23
1.60454e-23
-4.81362e-23
-3.20908e-23
0
0
0
0
0
0
0
0
0
0
0
0
0
0
0
0
0
0
0
0
0
0
0
0
0
0
0
-1.80511e-23
1.60454e-23
8.0227e-24
3.20908e-23
2.40681e-23
4.01135e-23
-1.60454e-23
-2.00567e-23
1.60454e-23
-1.60454e-23
-1.60454e-23
-8.0227e-24
-1.2034e-23
-8.0227e-24
-1.2034e-23
-1.2034e-23
1.80511e-23
-1.2034e-23
-4.01135e-24
-6.01702e-24
-2.50709e-24
-2.00567e-24
2.00567e-24
1.943e-24
8.0227e-24
6.01702e-24
8.0227e-24
1.2034e-23
2.40681e-23
1.60454e-23
1.60454e-23
1.60454e-23
-2.40681e-23
4.81362e-23
1.60454e-23
1.60454e-23
-4.81362e-23
2.40681e-23
-4.81362e-23
-1.60454e-23
-8.0227e-24
-3.20908e-23
-3.20908e-23
4.81362e-23
-8.0227e-24
-2.40681e-23
0
-2.40681e-23
-2.40681e-23
-1.2034e-23
1.97583e-23
0
0
6.37909e-24
0
0
2.9479e-23
0
-4.81362e-23
-5.72298e-23
0
8.0227e-24
1.54382e-23
0
-8.0227e-24
-4.09093e-23
0
8.0227e-24
-3.65075e-23
0
8.0227e-24
-4.01773e-23
0
1.60454e-23
-2.31748e-23
0
-1.60454e-23
-3.0742e-23
0
4.01135e-24
-1.9449e-23
0
4.01135e-24
-7.03546e-24
0
0
8.27271e-24
-0
-2.00567e-24
2.61489e-23
-0
-8.0227e-24
4.72807e-23
-0
0
5.70308e-23
-0
-2.40681e-23
4.83711e-23
-0
-1.60454e-23
7.18403e-23
-0
-1.60454e-23
4.83734e-23
-0
-1.60454e-23
-2.13673e-23
-0
0
1.46707e-24
-0
1.60454e-23
3.57558e-23
-0
1.60454e-23
-2.17172e-23
-0
0
-4.77272e-24
-0
2.40681e-23
-1.52023e-23
-0
2.40681e-23
-1.60454e-23
0
0
0
8.0227e-24
0
-8.0227e-24
0
4.01135e-24
-4.01135e-24
0
5.01419e-25
4.01135e-24
0
8.0227e-24
1.60454e-23
-4.81362e-23
1.60454e-23
-3.20908e-23
0
1.60454e-23
-3.20908e-23
-3.20908e-23
8.0227e-24
0
2.80794e-23
0
3.20908e-23
0
0
0
1.60454e-23
0
-1.2034e-23
0
1.2034e-23
0
1.60454e-23
0
8.0227e-24
0
-4.01135e-24
0
8.0227e-24
0
4.51277e-24
0
-1.00284e-24
0
-4.01135e-24
-0
-1.2034e-23
-0
-2.40681e-23
-0
-4.01135e-23
-0
4.81362e-23
-0
-3.20908e-23
-0
4.81362e-23
-0
-3.20908e-23
-0
-4.81362e-23
-0
4.81362e-23
-0
1.60454e-23
-0
-3.20908e-23
-0
-2.40681e-23
-0
-1.80511e-23
8.0227e-24
-1.60454e-23
1.60454e-23
-1.60454e-23
2.40681e-23
-1.60454e-23
-4.01135e-23
0
1.2034e-23
-1.2034e-23
-3.20908e-23
-8.0227e-24
-2.80794e-23
-8.0227e-24
-2.80794e-23
0
-1.60454e-23
-6.01702e-24
-1.40397e-23
-3.00851e-24
-6.01702e-24
1.00284e-24
5.51561e-24
0
1.80511e-23
1.60454e-23
3.20908e-23
8.0227e-24
4.81362e-23
0
5.61589e-23
-1.60454e-23
4.81362e-23
1.60454e-23
8.0227e-23
-1.60454e-23
4.81362e-23
-1.60454e-23
-1.60454e-23
0
-3.20908e-23
-8.0227e-24
4.81362e-23
8.0227e-24
-2.40681e-23
0
-1.60454e-23
0
-1.2034e-23
-0
-0
-0
-0
-0
-0
-0
-0
-0
-0
-0
0
0
0
0
0
0
0
0
0
0
0
0
0
0
)
;
    }
    baffle_master
    {
        type            calculated;
        value           nonuniform List<scalar> 
150
(
9.42591e-29
0
0
4.05357e-29
0
0
-1.93778e-29
0
0
2.98058e-29
0
0
-1.21438e-27
0
-1.09888e-27
5.96997e-31
0
0
3.08789e-29
0
0
-1.04194e-28
0
-7.32588e-28
-5.54052e-28
0
0
9.37298e-28
0
-1.46518e-27
5.7886e-28
0
1.46518e-27
5.09931e-28
0
0
2.70104e-28
0
0
8.66815e-29
0
0
4.4295e-29
0
4.57867e-29
-3.54369e-29
0
-3.66294e-28
4.02198e-27
0
1.46518e-27
4.61492e-28
0
0
2.24351e-27
0
7.32588e-28
1.98593e-28
0
7.32588e-28
-3.23218e-28
0
1.46518e-27
-2.26601e-27
0
-1.46518e-27
-3.55566e-28
0
3.66294e-28
9.63976e-30
0
2.28934e-29
-5.57802e-28
0
-1.46518e-27
0
-8.49531e-28
0
7.32588e-28
-1.00485e-27
0
7.32588e-28
-7.85968e-28
0
7.32588e-28
-1.17936e-27
0
0
6.82893e-28
0
1.83147e-28
-1.73622e-28
0
-1.83147e-28
6.89627e-28
-0
-7.32588e-28
1.79289e-27
-0
2.19776e-27
2.70951e-27
-0
0
1.77204e-27
-0
1.46518e-27
3.42615e-27
-0
-1.46518e-27
2.41399e-27
-0
-7.32588e-28
1.35563e-27
-0
-7.32588e-28
9.10543e-28
-0
4.57867e-29
-1.31673e-28
0
7.32588e-28
-7.30441e-28
0
-1.46518e-27
-2.17977e-27
0
7.32588e-28
-1.4063e-27
0
-1.46518e-27
2.81774e-28
0
7.32588e-28
1.87439e-27
0
0
1.65022e-27
0
-1.46518e-27
2.1781e-27
0
0
-1.27603e-27
0
-2.28934e-29
-3.10776e-29
-0
1.46518e-27
-1.2915e-27
-0
)
;
    }
    baffle_slave
    {
        type            calculated;
        value           nonuniform List<scalar> 
150
(
6.01702e-24
-0
0
2.47575e-24
-0
8.0227e-24
-1.97434e-24
-0
0
6.14238e-24
-0
0
-2.53216e-23
-0
-1.60454e-23
-7.52128e-25
-0
0
-1.12819e-24
-0
8.0227e-24
-4.26206e-24
-0
0
7.52128e-25
-0
0
-2.25638e-24
-0
0
-6.26773e-25
-0
0
2.50709e-25
0
0
0
0
4.01135e-24
-1.75497e-24
0
0
-1.75497e-24
0
0
1.00284e-24
0
0
-4.41248e-23
0
-4.81362e-23
-7.77199e-24
0
1.60454e-23
-3.48486e-23
0
-4.81362e-23
0
0
-1.60454e-23
3.00851e-24
0
-1.60454e-23
2.58231e-23
0
1.60454e-23
-5.51561e-24
0
0
1.50426e-24
0
-8.0227e-24
-4.26206e-24
0
-8.0227e-24
-1.14972e-23
4.43756e-23
0
3.18094e-24
2.33708e-23
0
-2.24789e-24
1.83018e-23
0
3.94695e-24
2.61678e-23
0
-1.4664e-23
-2.9145e-23
0
-2.01276e-24
1.42904e-23
0
-1.0804e-23
1.49172e-23
0
-1.05939e-23
7.4586e-24
0
7.93396e-24
1.08432e-23
0
1.8022e-24
9.809e-24
0
-1.83294e-24
5.37458e-24
0
2.53184e-25
2.3504e-24
0
4.05014e-24
-1.02634e-24
0
6.78498e-24
-4.82615e-24
0
7.8402e-24
-8.5868e-24
0
2.93525e-23
-1.3977e-23
0
-1.45205e-23
-2.03075e-23
0
6.86877e-24
-2.10596e-23
0
-2.51108e-23
5.01419e-24
0
4.11259e-24
1.75497e-23
0
-1.47265e-23
1.65468e-23
0
-1.64907e-23
2.70766e-23
0
-3.86678e-23
-1.85525e-23
0
-7.51469e-24
6.51844e-24
0
-3.21419e-24
5.01419e-24
0
)
;
    }
}


// ************************************************************************* //
