/*--------------------------------*- C++ -*----------------------------------*\
| =========                 |                                                 |
| \\      /  F ield         | OpenFOAM: The Open Source CFD Toolbox           |
|  \\    /   O peration     | Version:  2212                                  |
|   \\  /    A nd           | Website:  www.openfoam.com                      |
|    \\/     M anipulation  |                                                 |
\*---------------------------------------------------------------------------*/
FoamFile
{
    version     2.0;
    format      ascii;
    arch        "LSB;label=32;scalar=64";
    class       volScalarField;
    location    "35/fluidRegion";
    object      k;
}
// * * * * * * * * * * * * * * * * * * * * * * * * * * * * * * * * * * * * * //

dimensions      [0 2 -2 0 0 0 0];

internalField   nonuniform List<scalar> 
350
(
0.421055
0.420985
0.420916
0.420846
0.420776
0.420706
0.420638
0.42057
0.420503
0.420437
0.420373
0.42031
0.420252
0.420199
0.420154
0.420123
0.420112
0.420133
0.4202
0.420339
0.420588
0.421004
0.421675
0.422738
0.4244
0.421055
0.420985
0.420916
0.420846
0.420776
0.420706
0.420638
0.42057
0.420503
0.420437
0.420373
0.42031
0.420252
0.420199
0.420154
0.420123
0.420112
0.420133
0.4202
0.420339
0.420588
0.421004
0.421675
0.422738
0.4244
397.566
375.872
351.087
323.679
294.421
264.082
233.406
203.088
173.763
145.994
120.257
96.9349
76.3014
58.5156
43.6123
31.5036
21.9899
14.7841
9.54447
5.90833
3.52194
2.06122
1.2468
0.853193
0.713986
403.121
381.177
356.103
328.355
298.719
267.975
236.877
206.132
176.384
148.204
122.08
98.3982
77.4421
59.3752
44.2358
31.9367
22.2761
14.9628
9.64866
5.96407
3.54862
2.07221
1.25051
0.854206
0.714371
396.646
374.992
350.259
322.909
293.716
263.446
232.841
202.594
173.34
145.638
119.965
96.7008
76.1194
58.3787
43.5131
31.4347
21.9442
14.7554
9.52756
5.89906
3.51729
2.0591
1.24593
0.852854
0.713855
401.902
380.01
354.996
327.32
297.766
267.11
236.104
205.452
175.797
147.709
121.67
98.0684
77.1844
59.1806
44.0944
31.8382
22.211
14.9221
9.62492
5.95137
3.54256
2.06973
1.24969
0.853996
0.714296
401.902
380.01
354.996
327.32
297.766
267.11
236.104
205.452
175.797
147.709
121.67
98.0684
77.1845
59.1806
44.0944
31.8383
22.211
14.9221
9.62492
5.95138
3.54256
2.06973
1.24969
0.853995
0.714296
396.646
374.992
350.259
322.909
293.716
263.447
232.841
202.594
173.34
145.638
119.965
96.7009
76.1196
58.3788
43.5132
31.4348
21.9443
14.7555
9.52759
5.89909
3.5173
2.05911
1.24594
0.852855
0.713856
403.121
381.177
356.103
328.355
298.719
267.975
236.877
206.132
176.384
148.204
122.08
98.3982
77.4421
59.3752
44.2358
31.9367
22.2761
14.9628
9.64866
5.96407
3.54862
2.07221
1.25051
0.854206
0.71437
397.566
375.872
351.087
323.679
294.421
264.082
233.406
203.088
173.763
145.994
120.257
96.9349
76.3014
58.5156
43.6124
31.5036
21.9899
14.7841
9.54449
5.90834
3.52195
2.06123
1.24681
0.853199
0.713991
401.902
380.01
354.996
327.32
297.766
267.11
236.104
205.452
175.797
147.709
121.67
98.0684
77.1845
59.1806
44.0944
31.8383
22.211
14.9221
9.62492
5.95138
3.54256
2.06973
1.24969
0.853998
0.714298
396.646
374.992
350.259
322.909
293.716
263.446
232.841
202.594
173.339
145.638
119.965
96.7008
76.1194
58.3786
43.5131
31.4347
21.9442
14.7554
9.52753
5.89903
3.51726
2.05908
1.24591
0.852841
0.713846
396.647
374.992
350.259
322.909
293.716
263.447
232.841
202.594
173.34
145.638
119.965
96.701
76.1196
58.3788
43.5133
31.4348
21.9443
14.7555
9.52761
5.8991
3.51731
2.05911
1.24594
0.852854
0.713853
401.902
380.01
354.996
327.32
297.766
267.11
236.104
205.452
175.797
147.709
121.67
98.0685
77.1845
59.1806
44.0944
31.8383
22.211
14.9222
9.62495
5.9514
3.54258
2.06975
1.2497
0.854007
0.714304
)
;

boundaryField
{
    outletCentralUnloaded
    {
        type            zeroGradient;
    }
    inletCentralUnloaded
    {
        type            zeroGradient;
    }
    outletFuelElement
    {
        type            zeroGradient;
    }
    inletFuelElement
    {
        type            zeroGradient;
    }
    defaultFaces
    {
        type            zeroGradient;
    }
    baffle_master
    {
        type            zeroGradient;
    }
    baffle_slave
    {
        type            zeroGradient;
    }
}


// ************************************************************************* //
