/*--------------------------------*- C++ -*----------------------------------*\
| =========                 |                                                 |
| \\      /  F ield         | OpenFOAM: The Open Source CFD Toolbox           |
|  \\    /   O peration     | Version:  2212                                  |
|   \\  /    A nd           | Website:  www.openfoam.com                      |
|    \\/     M anipulation  |                                                 |
\*---------------------------------------------------------------------------*/
FoamFile
{
    version     2.0;
    format      ascii;
    arch        "LSB;label=32;scalar=64";
    class       volTensorField;
    location    "35/fluidRegion";
    object      Kd;
}
// * * * * * * * * * * * * * * * * * * * * * * * * * * * * * * * * * * * * * //

dimensions      [1 -3 -1 0 0 0 0];

internalField   nonuniform List<tensor> 
350
(
(84.7354 0 0 0 84.7354 0 0 0 84.7354)
(84.7356 0 0 0 84.7356 0 0 0 84.7356)
(84.736 0 0 0 84.736 0 0 0 84.736)
(84.7367 0 0 0 84.7367 0 0 0 84.7367)
(84.7377 0 0 0 84.7377 0 0 0 84.7377)
(84.7388 0 0 0 84.7388 0 0 0 84.7388)
(84.7401 0 0 0 84.7401 0 0 0 84.7401)
(84.7414 0 0 0 84.7414 0 0 0 84.7414)
(84.7424 0 0 0 84.7424 0 0 0 84.7424)
(84.743 0 0 0 84.743 0 0 0 84.743)
(84.7431 0 0 0 84.7431 0 0 0 84.7431)
(84.7426 0 0 0 84.7426 0 0 0 84.7426)
(84.7417 0 0 0 84.7417 0 0 0 84.7417)
(84.7404 0 0 0 84.7404 0 0 0 84.7404)
(84.739 0 0 0 84.739 0 0 0 84.739)
(84.7377 0 0 0 84.7377 0 0 0 84.7377)
(84.7366 0 0 0 84.7366 0 0 0 84.7366)
(84.7358 0 0 0 84.7358 0 0 0 84.7358)
(84.7353 0 0 0 84.7353 0 0 0 84.7353)
(84.7352 0 0 0 84.7352 0 0 0 84.7352)
(84.7354 0 0 0 84.7354 0 0 0 84.7354)
(84.7358 0 0 0 84.7358 0 0 0 84.7358)
(84.7365 0 0 0 84.7365 0 0 0 84.7365)
(84.7373 0 0 0 84.7373 0 0 0 84.7373)
(84.8717 0 0 0 84.8717 0 0 0 84.8717)
(84.7354 0 0 0 84.7354 0 0 0 84.7354)
(84.7356 0 0 0 84.7356 0 0 0 84.7356)
(84.736 0 0 0 84.736 0 0 0 84.736)
(84.7367 0 0 0 84.7367 0 0 0 84.7367)
(84.7377 0 0 0 84.7377 0 0 0 84.7377)
(84.7388 0 0 0 84.7388 0 0 0 84.7388)
(84.7401 0 0 0 84.7401 0 0 0 84.7401)
(84.7414 0 0 0 84.7414 0 0 0 84.7414)
(84.7424 0 0 0 84.7424 0 0 0 84.7424)
(84.743 0 0 0 84.743 0 0 0 84.743)
(84.7431 0 0 0 84.7431 0 0 0 84.7431)
(84.7426 0 0 0 84.7426 0 0 0 84.7426)
(84.7417 0 0 0 84.7417 0 0 0 84.7417)
(84.7404 0 0 0 84.7404 0 0 0 84.7404)
(84.739 0 0 0 84.739 0 0 0 84.739)
(84.7377 0 0 0 84.7377 0 0 0 84.7377)
(84.7366 0 0 0 84.7366 0 0 0 84.7366)
(84.7358 0 0 0 84.7358 0 0 0 84.7358)
(84.7353 0 0 0 84.7353 0 0 0 84.7353)
(84.7352 0 0 0 84.7352 0 0 0 84.7352)
(84.7354 0 0 0 84.7354 0 0 0 84.7354)
(84.7358 0 0 0 84.7358 0 0 0 84.7358)
(84.7365 0 0 0 84.7365 0 0 0 84.7365)
(84.7373 0 0 0 84.7373 0 0 0 84.7373)
(84.8717 0 0 0 84.8717 0 0 0 84.8717)
(681.508 0 0 0 681.508 0 0 0 681.508)
(680.99 0 0 0 680.99 0 0 0 680.99)
(681.003 0 0 0 681.003 0 0 0 681.003)
(681.007 0 0 0 681.007 0 0 0 681.007)
(680.998 0 0 0 680.998 0 0 0 680.998)
(680.977 0 0 0 680.977 0 0 0 680.977)
(680.942 0 0 0 680.942 0 0 0 680.942)
(680.892 0 0 0 680.892 0 0 0 680.892)
(680.823 0 0 0 680.823 0 0 0 680.823)
(680.735 0 0 0 680.735 0 0 0 680.735)
(680.626 0 0 0 680.626 0 0 0 680.626)
(680.496 0 0 0 680.496 0 0 0 680.496)
(680.346 0 0 0 680.346 0 0 0 680.346)
(680.174 0 0 0 680.174 0 0 0 680.174)
(679.979 0 0 0 679.979 0 0 0 679.979)
(679.751 0 0 0 679.751 0 0 0 679.751)
(679.474 0 0 0 679.474 0 0 0 679.474)
(679.129 0 0 0 679.129 0 0 0 679.129)
(678.712 0 0 0 678.712 0 0 0 678.712)
(678.279 0 0 0 678.279 0 0 0 678.279)
(678.011 0 0 0 678.011 0 0 0 678.011)
(678.457 0 0 0 678.457 0 0 0 678.457)
(680.924 0 0 0 680.924 0 0 0 680.924)
(687.698 0 0 0 687.698 0 0 0 687.698)
(691.955 0 0 0 691.955 0 0 0 691.955)
(677.008 0 0 0 677.008 0 0 0 677.008)
(676.418 0 0 0 676.418 0 0 0 676.418)
(676.391 0 0 0 676.391 0 0 0 676.391)
(676.354 0 0 0 676.354 0 0 0 676.354)
(676.309 0 0 0 676.309 0 0 0 676.309)
(676.254 0 0 0 676.254 0 0 0 676.254)
(676.188 0 0 0 676.188 0 0 0 676.188)
(676.108 0 0 0 676.108 0 0 0 676.108)
(676.012 0 0 0 676.012 0 0 0 676.012)
(675.899 0 0 0 675.899 0 0 0 675.899)
(675.77 0 0 0 675.77 0 0 0 675.77)
(675.629 0 0 0 675.629 0 0 0 675.629)
(675.482 0 0 0 675.482 0 0 0 675.482)
(675.337 0 0 0 675.337 0 0 0 675.337)
(675.203 0 0 0 675.203 0 0 0 675.203)
(675.078 0 0 0 675.078 0 0 0 675.078)
(674.951 0 0 0 674.951 0 0 0 674.951)
(674.807 0 0 0 674.807 0 0 0 674.807)
(674.64 0 0 0 674.64 0 0 0 674.64)
(674.51 0 0 0 674.51 0 0 0 674.51)
(674.614 0 0 0 674.614 0 0 0 674.614)
(675.531 0 0 0 675.531 0 0 0 675.531)
(678.625 0 0 0 678.625 0 0 0 678.625)
(686.232 0 0 0 686.232 0 0 0 686.232)
(691.479 0 0 0 691.479 0 0 0 691.479)
(682.26 0 0 0 682.26 0 0 0 682.26)
(681.739 0 0 0 681.739 0 0 0 681.739)
(681.756 0 0 0 681.756 0 0 0 681.756)
(681.763 0 0 0 681.763 0 0 0 681.763)
(681.757 0 0 0 681.757 0 0 0 681.757)
(681.738 0 0 0 681.738 0 0 0 681.738)
(681.704 0 0 0 681.704 0 0 0 681.704)
(681.655 0 0 0 681.655 0 0 0 681.655)
(681.587 0 0 0 681.587 0 0 0 681.587)
(681.498 0 0 0 681.498 0 0 0 681.498)
(681.388 0 0 0 681.388 0 0 0 681.388)
(681.255 0 0 0 681.255 0 0 0 681.255)
(681.098 0 0 0 681.098 0 0 0 681.098)
(680.916 0 0 0 680.916 0 0 0 680.916)
(680.705 0 0 0 680.705 0 0 0 680.705)
(680.453 0 0 0 680.453 0 0 0 680.453)
(680.143 0 0 0 680.143 0 0 0 680.143)
(679.759 0 0 0 679.759 0 0 0 679.759)
(679.293 0 0 0 679.293 0 0 0 679.293)
(678.8 0 0 0 678.8 0 0 0 678.8)
(678.46 0 0 0 678.46 0 0 0 678.46)
(678.816 0 0 0 678.816 0 0 0 678.816)
(681.169 0 0 0 681.169 0 0 0 681.169)
(687.809 0 0 0 687.809 0 0 0 687.809)
(691.972 0 0 0 691.972 0 0 0 691.972)
(678.015 0 0 0 678.015 0 0 0 678.015)
(677.445 0 0 0 677.445 0 0 0 677.445)
(677.429 0 0 0 677.429 0 0 0 677.429)
(677.404 0 0 0 677.404 0 0 0 677.404)
(677.369 0 0 0 677.369 0 0 0 677.369)
(677.324 0 0 0 677.324 0 0 0 677.324)
(677.266 0 0 0 677.266 0 0 0 677.266)
(677.195 0 0 0 677.195 0 0 0 677.195)
(677.107 0 0 0 677.107 0 0 0 677.107)
(677.001 0 0 0 677.001 0 0 0 677.001)
(676.879 0 0 0 676.879 0 0 0 676.879)
(676.742 0 0 0 676.742 0 0 0 676.742)
(676.595 0 0 0 676.595 0 0 0 676.595)
(676.447 0 0 0 676.447 0 0 0 676.447)
(676.3 0 0 0 676.3 0 0 0 676.3)
(676.153 0 0 0 676.153 0 0 0 676.153)
(675.994 0 0 0 675.994 0 0 0 675.994)
(675.805 0 0 0 675.805 0 0 0 675.805)
(675.583 0 0 0 675.583 0 0 0 675.583)
(675.385 0 0 0 675.385 0 0 0 675.385)
(675.405 0 0 0 675.405 0 0 0 675.405)
(676.216 0 0 0 676.216 0 0 0 676.216)
(679.168 0 0 0 679.168 0 0 0 679.168)
(686.585 0 0 0 686.585 0 0 0 686.585)
(691.597 0 0 0 691.597 0 0 0 691.597)
(678.015 0 0 0 678.015 0 0 0 678.015)
(677.445 0 0 0 677.445 0 0 0 677.445)
(677.429 0 0 0 677.429 0 0 0 677.429)
(677.404 0 0 0 677.404 0 0 0 677.404)
(677.369 0 0 0 677.369 0 0 0 677.369)
(677.324 0 0 0 677.324 0 0 0 677.324)
(677.266 0 0 0 677.266 0 0 0 677.266)
(677.195 0 0 0 677.195 0 0 0 677.195)
(677.107 0 0 0 677.107 0 0 0 677.107)
(677.001 0 0 0 677.001 0 0 0 677.001)
(676.879 0 0 0 676.879 0 0 0 676.879)
(676.742 0 0 0 676.742 0 0 0 676.742)
(676.595 0 0 0 676.595 0 0 0 676.595)
(676.447 0 0 0 676.447 0 0 0 676.447)
(676.3 0 0 0 676.3 0 0 0 676.3)
(676.153 0 0 0 676.153 0 0 0 676.153)
(675.994 0 0 0 675.994 0 0 0 675.994)
(675.805 0 0 0 675.805 0 0 0 675.805)
(675.583 0 0 0 675.583 0 0 0 675.583)
(675.385 0 0 0 675.385 0 0 0 675.385)
(675.405 0 0 0 675.405 0 0 0 675.405)
(676.216 0 0 0 676.216 0 0 0 676.216)
(679.168 0 0 0 679.168 0 0 0 679.168)
(686.585 0 0 0 686.585 0 0 0 686.585)
(691.597 0 0 0 691.597 0 0 0 691.597)
(682.26 0 0 0 682.26 0 0 0 682.26)
(681.739 0 0 0 681.739 0 0 0 681.739)
(681.756 0 0 0 681.756 0 0 0 681.756)
(681.762 0 0 0 681.762 0 0 0 681.762)
(681.757 0 0 0 681.757 0 0 0 681.757)
(681.738 0 0 0 681.738 0 0 0 681.738)
(681.704 0 0 0 681.704 0 0 0 681.704)
(681.654 0 0 0 681.654 0 0 0 681.654)
(681.586 0 0 0 681.586 0 0 0 681.586)
(681.498 0 0 0 681.498 0 0 0 681.498)
(681.388 0 0 0 681.388 0 0 0 681.388)
(681.255 0 0 0 681.255 0 0 0 681.255)
(681.098 0 0 0 681.098 0 0 0 681.098)
(680.916 0 0 0 680.916 0 0 0 680.916)
(680.704 0 0 0 680.704 0 0 0 680.704)
(680.452 0 0 0 680.452 0 0 0 680.452)
(680.143 0 0 0 680.143 0 0 0 680.143)
(679.758 0 0 0 679.758 0 0 0 679.758)
(679.292 0 0 0 679.292 0 0 0 679.292)
(678.799 0 0 0 678.799 0 0 0 678.799)
(678.459 0 0 0 678.459 0 0 0 678.459)
(678.814 0 0 0 678.814 0 0 0 678.814)
(681.167 0 0 0 681.167 0 0 0 681.167)
(687.807 0 0 0 687.807 0 0 0 687.807)
(691.971 0 0 0 691.971 0 0 0 691.971)
(677.008 0 0 0 677.008 0 0 0 677.008)
(676.418 0 0 0 676.418 0 0 0 676.418)
(676.391 0 0 0 676.391 0 0 0 676.391)
(676.354 0 0 0 676.354 0 0 0 676.354)
(676.309 0 0 0 676.309 0 0 0 676.309)
(676.254 0 0 0 676.254 0 0 0 676.254)
(676.188 0 0 0 676.188 0 0 0 676.188)
(676.108 0 0 0 676.108 0 0 0 676.108)
(676.012 0 0 0 676.012 0 0 0 676.012)
(675.899 0 0 0 675.899 0 0 0 675.899)
(675.77 0 0 0 675.77 0 0 0 675.77)
(675.629 0 0 0 675.629 0 0 0 675.629)
(675.482 0 0 0 675.482 0 0 0 675.482)
(675.337 0 0 0 675.337 0 0 0 675.337)
(675.203 0 0 0 675.203 0 0 0 675.203)
(675.078 0 0 0 675.078 0 0 0 675.078)
(674.951 0 0 0 674.951 0 0 0 674.951)
(674.807 0 0 0 674.807 0 0 0 674.807)
(674.64 0 0 0 674.64 0 0 0 674.64)
(674.51 0 0 0 674.51 0 0 0 674.51)
(674.614 0 0 0 674.614 0 0 0 674.614)
(675.531 0 0 0 675.531 0 0 0 675.531)
(678.625 0 0 0 678.625 0 0 0 678.625)
(686.232 0 0 0 686.232 0 0 0 686.232)
(691.479 0 0 0 691.479 0 0 0 691.479)
(681.508 0 0 0 681.508 0 0 0 681.508)
(680.99 0 0 0 680.99 0 0 0 680.99)
(681.003 0 0 0 681.003 0 0 0 681.003)
(681.007 0 0 0 681.007 0 0 0 681.007)
(680.998 0 0 0 680.998 0 0 0 680.998)
(680.977 0 0 0 680.977 0 0 0 680.977)
(680.942 0 0 0 680.942 0 0 0 680.942)
(680.892 0 0 0 680.892 0 0 0 680.892)
(680.823 0 0 0 680.823 0 0 0 680.823)
(680.735 0 0 0 680.735 0 0 0 680.735)
(680.626 0 0 0 680.626 0 0 0 680.626)
(680.496 0 0 0 680.496 0 0 0 680.496)
(680.346 0 0 0 680.346 0 0 0 680.346)
(680.174 0 0 0 680.174 0 0 0 680.174)
(679.979 0 0 0 679.979 0 0 0 679.979)
(679.751 0 0 0 679.751 0 0 0 679.751)
(679.474 0 0 0 679.474 0 0 0 679.474)
(679.129 0 0 0 679.129 0 0 0 679.129)
(678.712 0 0 0 678.712 0 0 0 678.712)
(678.279 0 0 0 678.279 0 0 0 678.279)
(678.011 0 0 0 678.011 0 0 0 678.011)
(678.457 0 0 0 678.457 0 0 0 678.457)
(680.924 0 0 0 680.924 0 0 0 680.924)
(687.698 0 0 0 687.698 0 0 0 687.698)
(691.955 0 0 0 691.955 0 0 0 691.955)
(678.015 0 0 0 678.015 0 0 0 678.015)
(677.445 0 0 0 677.445 0 0 0 677.445)
(677.429 0 0 0 677.429 0 0 0 677.429)
(677.404 0 0 0 677.404 0 0 0 677.404)
(677.369 0 0 0 677.369 0 0 0 677.369)
(677.324 0 0 0 677.324 0 0 0 677.324)
(677.266 0 0 0 677.266 0 0 0 677.266)
(677.195 0 0 0 677.195 0 0 0 677.195)
(677.107 0 0 0 677.107 0 0 0 677.107)
(677.001 0 0 0 677.001 0 0 0 677.001)
(676.879 0 0 0 676.879 0 0 0 676.879)
(676.742 0 0 0 676.742 0 0 0 676.742)
(676.595 0 0 0 676.595 0 0 0 676.595)
(676.447 0 0 0 676.447 0 0 0 676.447)
(676.3 0 0 0 676.3 0 0 0 676.3)
(676.153 0 0 0 676.153 0 0 0 676.153)
(675.994 0 0 0 675.994 0 0 0 675.994)
(675.805 0 0 0 675.805 0 0 0 675.805)
(675.583 0 0 0 675.583 0 0 0 675.583)
(675.385 0 0 0 675.385 0 0 0 675.385)
(675.405 0 0 0 675.405 0 0 0 675.405)
(676.216 0 0 0 676.216 0 0 0 676.216)
(679.168 0 0 0 679.168 0 0 0 679.168)
(686.585 0 0 0 686.585 0 0 0 686.585)
(691.597 0 0 0 691.597 0 0 0 691.597)
(682.26 0 0 0 682.26 0 0 0 682.26)
(681.739 0 0 0 681.739 0 0 0 681.739)
(681.756 0 0 0 681.756 0 0 0 681.756)
(681.763 0 0 0 681.763 0 0 0 681.763)
(681.757 0 0 0 681.757 0 0 0 681.757)
(681.738 0 0 0 681.738 0 0 0 681.738)
(681.704 0 0 0 681.704 0 0 0 681.704)
(681.655 0 0 0 681.655 0 0 0 681.655)
(681.587 0 0 0 681.587 0 0 0 681.587)
(681.498 0 0 0 681.498 0 0 0 681.498)
(681.388 0 0 0 681.388 0 0 0 681.388)
(681.255 0 0 0 681.255 0 0 0 681.255)
(681.098 0 0 0 681.098 0 0 0 681.098)
(680.916 0 0 0 680.916 0 0 0 680.916)
(680.705 0 0 0 680.705 0 0 0 680.705)
(680.453 0 0 0 680.453 0 0 0 680.453)
(680.143 0 0 0 680.143 0 0 0 680.143)
(679.759 0 0 0 679.759 0 0 0 679.759)
(679.293 0 0 0 679.293 0 0 0 679.293)
(678.8 0 0 0 678.8 0 0 0 678.8)
(678.46 0 0 0 678.46 0 0 0 678.46)
(678.816 0 0 0 678.816 0 0 0 678.816)
(681.169 0 0 0 681.169 0 0 0 681.169)
(687.809 0 0 0 687.809 0 0 0 687.809)
(691.972 0 0 0 691.972 0 0 0 691.972)
(682.26 0 0 0 682.26 0 0 0 682.26)
(681.739 0 0 0 681.739 0 0 0 681.739)
(681.756 0 0 0 681.756 0 0 0 681.756)
(681.763 0 0 0 681.763 0 0 0 681.763)
(681.757 0 0 0 681.757 0 0 0 681.757)
(681.738 0 0 0 681.738 0 0 0 681.738)
(681.704 0 0 0 681.704 0 0 0 681.704)
(681.654 0 0 0 681.654 0 0 0 681.654)
(681.586 0 0 0 681.586 0 0 0 681.586)
(681.498 0 0 0 681.498 0 0 0 681.498)
(681.388 0 0 0 681.388 0 0 0 681.388)
(681.255 0 0 0 681.255 0 0 0 681.255)
(681.098 0 0 0 681.098 0 0 0 681.098)
(680.916 0 0 0 680.916 0 0 0 680.916)
(680.704 0 0 0 680.704 0 0 0 680.704)
(680.452 0 0 0 680.452 0 0 0 680.452)
(680.143 0 0 0 680.143 0 0 0 680.143)
(679.758 0 0 0 679.758 0 0 0 679.758)
(679.292 0 0 0 679.292 0 0 0 679.292)
(678.799 0 0 0 678.799 0 0 0 678.799)
(678.459 0 0 0 678.459 0 0 0 678.459)
(678.814 0 0 0 678.814 0 0 0 678.814)
(681.167 0 0 0 681.167 0 0 0 681.167)
(687.807 0 0 0 687.807 0 0 0 687.807)
(691.971 0 0 0 691.971 0 0 0 691.971)
(678.015 0 0 0 678.015 0 0 0 678.015)
(677.445 0 0 0 677.445 0 0 0 677.445)
(677.429 0 0 0 677.429 0 0 0 677.429)
(677.404 0 0 0 677.404 0 0 0 677.404)
(677.369 0 0 0 677.369 0 0 0 677.369)
(677.324 0 0 0 677.324 0 0 0 677.324)
(677.266 0 0 0 677.266 0 0 0 677.266)
(677.195 0 0 0 677.195 0 0 0 677.195)
(677.107 0 0 0 677.107 0 0 0 677.107)
(677.001 0 0 0 677.001 0 0 0 677.001)
(676.879 0 0 0 676.879 0 0 0 676.879)
(676.742 0 0 0 676.742 0 0 0 676.742)
(676.595 0 0 0 676.595 0 0 0 676.595)
(676.447 0 0 0 676.447 0 0 0 676.447)
(676.3 0 0 0 676.3 0 0 0 676.3)
(676.153 0 0 0 676.153 0 0 0 676.153)
(675.994 0 0 0 675.994 0 0 0 675.994)
(675.805 0 0 0 675.805 0 0 0 675.805)
(675.583 0 0 0 675.583 0 0 0 675.583)
(675.385 0 0 0 675.385 0 0 0 675.385)
(675.405 0 0 0 675.405 0 0 0 675.405)
(676.216 0 0 0 676.216 0 0 0 676.216)
(679.168 0 0 0 679.168 0 0 0 679.168)
(686.585 0 0 0 686.585 0 0 0 686.585)
(691.597 0 0 0 691.597 0 0 0 691.597)
)
;

boundaryField
{
    outletCentralUnloaded
    {
        type            zeroGradient;
    }
    inletCentralUnloaded
    {
        type            zeroGradient;
    }
    outletFuelElement
    {
        type            zeroGradient;
    }
    inletFuelElement
    {
        type            zeroGradient;
    }
    defaultFaces
    {
        type            zeroGradient;
    }
    baffle_master
    {
        type            zeroGradient;
    }
    baffle_slave
    {
        type            zeroGradient;
    }
}


// ************************************************************************* //
