/*--------------------------------*- C++ -*----------------------------------*\
| =========                 |                                                 |
| \\      /  F ield         | OpenFOAM: The Open Source CFD Toolbox           |
|  \\    /   O peration     | Version:  2212                                  |
|   \\  /    A nd           | Website:  www.openfoam.com                      |
|    \\/     M anipulation  |                                                 |
\*---------------------------------------------------------------------------*/
FoamFile
{
    version     2.0;
    format      ascii;
    arch        "LSB;label=32;scalar=64";
    class       volScalarField;
    location    "35/fluidRegion";
    object      p;
}
// * * * * * * * * * * * * * * * * * * * * * * * * * * * * * * * * * * * * * //

dimensions      [1 -1 -2 0 0 0 0];

internalField   nonuniform List<scalar> 
350
(
3.44743e+06
3.44772e+06
3.44802e+06
3.44832e+06
3.44861e+06
3.44891e+06
3.4492e+06
3.4495e+06
3.44979e+06
3.45009e+06
3.45039e+06
3.45068e+06
3.45098e+06
3.45127e+06
3.45157e+06
3.45186e+06
3.45216e+06
3.45245e+06
3.45275e+06
3.45304e+06
3.45334e+06
3.45363e+06
3.45393e+06
3.45422e+06
3.45451e+06
3.44743e+06
3.44772e+06
3.44802e+06
3.44832e+06
3.44861e+06
3.44891e+06
3.4492e+06
3.4495e+06
3.44979e+06
3.45009e+06
3.45039e+06
3.45068e+06
3.45098e+06
3.45127e+06
3.45157e+06
3.45186e+06
3.45216e+06
3.45245e+06
3.45275e+06
3.45304e+06
3.45334e+06
3.45363e+06
3.45393e+06
3.45422e+06
3.45451e+06
3.47343e+06
3.5245e+06
3.575e+06
3.62462e+06
3.67307e+06
3.72005e+06
3.76532e+06
3.80862e+06
3.84975e+06
3.88852e+06
3.92477e+06
3.95837e+06
3.98919e+06
4.01716e+06
4.04223e+06
4.06441e+06
4.08372e+06
4.10027e+06
4.11418e+06
4.12563e+06
4.13482e+06
4.14197e+06
4.14732e+06
4.15115e+06
4.15382e+06
3.47343e+06
3.5245e+06
3.575e+06
3.62462e+06
3.67307e+06
3.72005e+06
3.76532e+06
3.80862e+06
3.84975e+06
3.88852e+06
3.92477e+06
3.95837e+06
3.98919e+06
4.01716e+06
4.04223e+06
4.06441e+06
4.08372e+06
4.10027e+06
4.11418e+06
4.12563e+06
4.13482e+06
4.14197e+06
4.14732e+06
4.15115e+06
4.15382e+06
3.47343e+06
3.5245e+06
3.575e+06
3.62462e+06
3.67307e+06
3.72005e+06
3.76532e+06
3.80862e+06
3.84975e+06
3.88852e+06
3.92477e+06
3.95837e+06
3.98919e+06
4.01716e+06
4.04223e+06
4.06441e+06
4.08372e+06
4.10027e+06
4.11418e+06
4.12563e+06
4.13482e+06
4.14197e+06
4.14732e+06
4.15115e+06
4.15382e+06
3.47343e+06
3.5245e+06
3.575e+06
3.62462e+06
3.67307e+06
3.72005e+06
3.76532e+06
3.80862e+06
3.84975e+06
3.88852e+06
3.92477e+06
3.95837e+06
3.98919e+06
4.01716e+06
4.04223e+06
4.06441e+06
4.08372e+06
4.10027e+06
4.11418e+06
4.12563e+06
4.13482e+06
4.14197e+06
4.14732e+06
4.15115e+06
4.15382e+06
3.47343e+06
3.5245e+06
3.575e+06
3.62462e+06
3.67307e+06
3.72005e+06
3.76532e+06
3.80862e+06
3.84975e+06
3.88852e+06
3.92477e+06
3.95837e+06
3.98919e+06
4.01716e+06
4.04223e+06
4.06441e+06
4.08372e+06
4.10027e+06
4.11418e+06
4.12563e+06
4.13482e+06
4.14197e+06
4.14732e+06
4.15115e+06
4.15382e+06
3.47343e+06
3.5245e+06
3.575e+06
3.62462e+06
3.67307e+06
3.72005e+06
3.76532e+06
3.80862e+06
3.84975e+06
3.88852e+06
3.92477e+06
3.95837e+06
3.98919e+06
4.01716e+06
4.04223e+06
4.06441e+06
4.08372e+06
4.10027e+06
4.11418e+06
4.12563e+06
4.13482e+06
4.14197e+06
4.14732e+06
4.15115e+06
4.15382e+06
3.47343e+06
3.5245e+06
3.575e+06
3.62462e+06
3.67307e+06
3.72005e+06
3.76532e+06
3.80862e+06
3.84975e+06
3.88852e+06
3.92477e+06
3.95837e+06
3.98919e+06
4.01716e+06
4.04223e+06
4.06441e+06
4.08372e+06
4.10027e+06
4.11418e+06
4.12563e+06
4.13482e+06
4.14197e+06
4.14732e+06
4.15115e+06
4.15382e+06
3.47343e+06
3.5245e+06
3.575e+06
3.62462e+06
3.67307e+06
3.72005e+06
3.76532e+06
3.80862e+06
3.84975e+06
3.88852e+06
3.92477e+06
3.95837e+06
3.98919e+06
4.01716e+06
4.04223e+06
4.06441e+06
4.08372e+06
4.10027e+06
4.11418e+06
4.12563e+06
4.13482e+06
4.14197e+06
4.14732e+06
4.15115e+06
4.15382e+06
3.47343e+06
3.5245e+06
3.575e+06
3.62462e+06
3.67307e+06
3.72005e+06
3.76532e+06
3.80862e+06
3.84975e+06
3.88852e+06
3.92477e+06
3.95837e+06
3.98919e+06
4.01716e+06
4.04223e+06
4.06441e+06
4.08372e+06
4.10027e+06
4.11418e+06
4.12563e+06
4.13482e+06
4.14197e+06
4.14732e+06
4.15115e+06
4.15382e+06
3.47343e+06
3.5245e+06
3.575e+06
3.62462e+06
3.67307e+06
3.72005e+06
3.76532e+06
3.80862e+06
3.84975e+06
3.88852e+06
3.92477e+06
3.95837e+06
3.98919e+06
4.01716e+06
4.04223e+06
4.06441e+06
4.08372e+06
4.10027e+06
4.11418e+06
4.12563e+06
4.13482e+06
4.14197e+06
4.14732e+06
4.15115e+06
4.15382e+06
3.47343e+06
3.5245e+06
3.575e+06
3.62462e+06
3.67307e+06
3.72005e+06
3.76532e+06
3.80862e+06
3.84975e+06
3.88852e+06
3.92477e+06
3.95837e+06
3.98919e+06
4.01716e+06
4.04223e+06
4.06441e+06
4.08372e+06
4.10027e+06
4.11418e+06
4.12563e+06
4.13482e+06
4.14197e+06
4.14732e+06
4.15115e+06
4.15382e+06
3.47343e+06
3.5245e+06
3.575e+06
3.62462e+06
3.67307e+06
3.72005e+06
3.76532e+06
3.80862e+06
3.84975e+06
3.88852e+06
3.92477e+06
3.95837e+06
3.98919e+06
4.01716e+06
4.04223e+06
4.06441e+06
4.08372e+06
4.10027e+06
4.11418e+06
4.12563e+06
4.13482e+06
4.14197e+06
4.14732e+06
4.15115e+06
4.15382e+06
)
;

boundaryField
{
    outletCentralUnloaded
    {
        type            fixedValue;
        value           uniform 3.44728e+06;
    }
    inletCentralUnloaded
    {
        type            zeroGradient;
    }
    outletFuelElement
    {
        type            fixedValue;
        value           uniform 3.44728e+06;
    }
    inletFuelElement
    {
        type            zeroGradient;
    }
    defaultFaces
    {
        type            zeroGradient;
    }
    baffle_master
    {
        type            zeroGradient;
    }
    baffle_slave
    {
        type            zeroGradient;
    }
}


// ************************************************************************* //
