/*--------------------------------*- C++ -*----------------------------------*\
| =========                 |                                                 |
| \\      /  F ield         | OpenFOAM: The Open Source CFD Toolbox           |
|  \\    /   O peration     | Version:  2212                                  |
|   \\  /    A nd           | Website:  www.openfoam.com                      |
|    \\/     M anipulation  |                                                 |
\*---------------------------------------------------------------------------*/
FoamFile
{
    version     2.0;
    format      ascii;
    arch        "LSB;label=32;scalar=64";
    class       volScalarField;
    location    "35/fluidRegion";
    object      Re;
}
// * * * * * * * * * * * * * * * * * * * * * * * * * * * * * * * * * * * * * //

dimensions      [0 0 0 0 0 0 0];

internalField   nonuniform List<scalar> 
350
(
174014
174015
174016
174018
174020
174024
174027
174031
174033
174035
174035
174034
174031
174028
174024
174020
174017
174015
174014
174014
174014
174015
174017
174019
174387
174014
174015
174016
174018
174020
174024
174027
174031
174033
174035
174035
174034
174031
174028
174024
174020
174017
174015
174014
174014
174014
174015
174017
174019
174387
55308.1
55252
55253.4
55253.8
55252.9
55250.6
55246.8
55241.3
55233.9
55224.4
55212.6
55198.6
55182.3
55163.7
55142.7
55118
55088
55050.8
55005.7
54958.9
54930
54978.1
55244.9
55978.9
56441.4
54821.6
54757.9
54755
54751.1
54746.2
54740.3
54733.1
54724.4
54714.1
54701.9
54688
54672.8
54656.9
54641.3
54626.8
54613.3
54599.6
54584.1
54566.1
54552.1
54563.3
54662.3
54996.2
55819.7
56389.6
55389.4
55333
55334.9
55335.6
55334.9
55332.9
55329.3
55323.9
55316.5
55307
55295
55280.6
55263.7
55244
55221.1
55193.9
55160.4
55118.8
55068.4
55015.2
54978.4
55016.9
55271.3
55990.8
56443.2
54930.4
54868.8
54867.1
54864.4
54860.6
54855.7
54849.5
54841.8
54832.3
54820.9
54807.7
54792.9
54777.1
54761
54745.2
54729.4
54712.1
54691.8
54667.8
54646.5
54648.6
54736.2
55054.9
55858.1
56402.4
54930.4
54868.8
54867.1
54864.4
54860.6
54855.7
54849.5
54841.8
54832.3
54820.9
54807.7
54792.9
54777.1
54761
54745.2
54729.4
54712.1
54691.8
54667.8
54646.5
54648.6
54736.2
55054.9
55858.1
56402.4
55389.4
55333
55334.9
55335.6
55334.9
55332.9
55329.2
55323.9
55316.5
55306.9
55295
55280.6
55263.6
55244
55221.1
55193.8
55160.3
55118.7
55068.3
55015.1
54978.3
55016.7
55271.2
55990.7
56443.1
54821.6
54757.9
54755
54751.1
54746.2
54740.3
54733.1
54724.4
54714.1
54701.9
54688
54672.8
54656.9
54641.3
54626.8
54613.3
54599.6
54584.1
54566.1
54552.1
54563.3
54662.2
54996.2
55819.7
56389.6
55308.1
55252
55253.4
55253.8
55252.9
55250.6
55246.8
55241.3
55233.9
55224.4
55212.6
55198.6
55182.3
55163.7
55142.7
55118
55088
55050.8
55005.7
54958.9
54930
54978.1
55244.9
55978.9
56441.4
54930.4
54868.8
54867.1
54864.4
54860.6
54855.7
54849.5
54841.8
54832.3
54820.9
54807.7
54792.9
54777.1
54761
54745.2
54729.4
54712.1
54691.8
54667.8
54646.5
54648.6
54736.2
55054.9
55858.1
56402.4
55389.4
55333
55334.9
55335.6
55334.9
55332.9
55329.3
55323.9
55316.5
55307
55295
55280.6
55263.7
55244
55221.1
55193.9
55160.4
55118.8
55068.4
55015.2
54978.4
55016.9
55271.3
55990.9
56443.2
55389.4
55333
55334.9
55335.6
55334.9
55332.9
55329.2
55323.9
55316.5
55306.9
55295
55280.6
55263.6
55244
55221.1
55193.8
55160.3
55118.7
55068.3
55015.1
54978.3
55016.7
55271.2
55990.7
56443.1
54930.4
54868.8
54867.1
54864.4
54860.6
54855.7
54849.5
54841.8
54832.3
54820.9
54807.7
54792.9
54777.1
54761
54745.2
54729.4
54712.1
54691.8
54667.8
54646.4
54648.6
54736.2
55054.9
55858.1
56402.4
)
;

boundaryField
{
    outletCentralUnloaded
    {
        type            zeroGradient;
    }
    inletCentralUnloaded
    {
        type            zeroGradient;
    }
    outletFuelElement
    {
        type            zeroGradient;
    }
    inletFuelElement
    {
        type            zeroGradient;
    }
    defaultFaces
    {
        type            zeroGradient;
    }
    baffle_master
    {
        type            zeroGradient;
    }
    baffle_slave
    {
        type            zeroGradient;
    }
}


// ************************************************************************* //
