/*--------------------------------*- C++ -*----------------------------------*\
| =========                 |                                                 |
| \\      /  F ield         | OpenFOAM: The Open Source CFD Toolbox           |
|  \\    /   O peration     | Version:  2212                                  |
|   \\  /    A nd           | Website:  www.openfoam.com                      |
|    \\/     M anipulation  |                                                 |
\*---------------------------------------------------------------------------*/
FoamFile
{
    version     2.0;
    format      ascii;
    arch        "LSB;label=32;scalar=64";
    class       volScalarField;
    location    "35/fluidRegion";
    object      T.fuelAvForNeutronics;
}
// * * * * * * * * * * * * * * * * * * * * * * * * * * * * * * * * * * * * * //

dimensions      [0 0 0 1 0 0 0];

internalField   nonuniform List<scalar> 
350
(
0
0
0
0
0
0
0
0
0
0
0
0
0
0
0
0
0
0
0
0
0
0
0
0
0
0
0
0
0
0
0
0
0
0
0
0
0
0
0
0
0
0
0
0
0
0
0
0
0
0
2143
2926.01
3678.73
4389.7
5048.05
5643.69
6167.46
6611.3
6968.37
7233.16
7401.58
7471.05
7440.55
7310.65
7083.47
6762.64
6353.11
5860.93
5292.71
4655.19
3954.1
3193.07
2372.51
1492.82
567.477
2173.95
2966.13
3727.59
4446.75
5112.61
5714.96
6244.55
6693.22
7054.05
7321.47
7491.36
7561.12
7529.7
7397.69
7167.23
6842.03
6427.12
5928.65
5353.37
4708.14
3998.77
3228.93
2398.94
1509.06
572.93
2137.98
2919.55
3670.89
4380.57
5037.75
5632.33
6155.19
6598.28
6954.77
7219.15
7387.34
7456.78
7426.43
7296.87
7070.21
6750.08
6341.41
5850.22
5283.12
4646.83
3947.05
3187.43
2368.37
1490.28
566.617
2166.97
2957.02
3716.46
4433.72
5097.83
5698.62
6226.86
6674.41
7034.36
7301.17
7470.71
7540.4
7509.18
7377.65
7147.94
6823.74
6410.08
5913.05
5339.39
4695.94
3988.48
3220.67
2392.85
1505.32
571.674
2166.97
2957.02
3716.46
4433.72
5097.83
5698.62
6226.86
6674.41
7034.36
7301.17
7470.71
7540.4
7509.18
7377.65
7147.94
6823.74
6410.08
5913.05
5339.39
4695.94
3988.48
3220.67
2392.85
1505.32
571.674
2137.98
2919.55
3670.9
4380.58
5037.75
5632.33
6155.2
6598.29
6954.77
7219.15
7387.34
7456.78
7426.44
7296.87
7070.21
6750.08
6341.41
5850.22
5283.12
4646.83
3947.05
3187.43
2368.37
1490.28
566.617
2173.95
2966.13
3727.59
4446.75
5112.61
5714.96
6244.55
6693.21
7054.05
7321.47
7491.36
7561.12
7529.7
7397.68
7167.23
6842.03
6427.12
5928.65
5353.37
4708.14
3998.77
3228.93
2398.94
1509.06
572.93
2143
2926.01
3678.73
4389.7
5048.05
5643.69
6167.46
6611.3
6968.37
7233.16
7401.57
7471.05
7440.55
7310.65
7083.47
6762.64
6353.11
5860.92
5292.71
4655.19
3954.1
3193.07
2372.52
1492.82
567.477
2166.97
2957.02
3716.46
4433.72
5097.83
5698.62
6226.86
6674.41
7034.36
7301.17
7470.71
7540.4
7509.18
7377.65
7147.94
6823.74
6410.08
5913.05
5339.39
4695.94
3988.48
3220.67
2392.85
1505.32
571.674
2137.98
2919.55
3670.89
4380.58
5037.75
5632.33
6155.19
6598.28
6954.77
7219.15
7387.34
7456.78
7426.43
7296.87
7070.21
6750.08
6341.41
5850.22
5283.12
4646.83
3947.05
3187.43
2368.37
1490.28
566.617
2137.98
2919.55
3670.89
4380.58
5037.75
5632.33
6155.2
6598.29
6954.77
7219.15
7387.34
7456.78
7426.44
7296.87
7070.21
6750.08
6341.41
5850.22
5283.12
4646.83
3947.05
3187.43
2368.37
1490.28
566.617
2166.97
2957.02
3716.46
4433.72
5097.83
5698.62
6226.86
6674.41
7034.36
7301.17
7470.71
7540.4
7509.18
7377.65
7147.94
6823.74
6410.08
5913.05
5339.39
4695.94
3988.48
3220.67
2392.85
1505.32
571.674
)
;

boundaryField
{
    outletCentralUnloaded
    {
        type            zeroGradient;
    }
    inletCentralUnloaded
    {
        type            zeroGradient;
    }
    outletFuelElement
    {
        type            zeroGradient;
    }
    inletFuelElement
    {
        type            zeroGradient;
    }
    defaultFaces
    {
        type            zeroGradient;
    }
    baffle_master
    {
        type            zeroGradient;
    }
    baffle_slave
    {
        type            zeroGradient;
    }
}


// ************************************************************************* //
