/*--------------------------------*- C++ -*----------------------------------*\
| =========                 |                                                 |
| \\      /  F ield         | OpenFOAM: The Open Source CFD Toolbox           |
|  \\    /   O peration     | Version:  2212                                  |
|   \\  /    A nd           | Website:  www.openfoam.com                      |
|    \\/     M anipulation  |                                                 |
\*---------------------------------------------------------------------------*/
FoamFile
{
    version     2.0;
    format      ascii;
    arch        "LSB;label=32;scalar=64";
    class       volScalarField;
    location    "35/fluidRegion";
    object      Tcav.nuclearFuelPin;
}
// * * * * * * * * * * * * * * * * * * * * * * * * * * * * * * * * * * * * * //

dimensions      [0 0 0 1 0 0 0];

internalField   nonuniform List<scalar> 
350
(
0
0
0
0
0
0
0
0
0
0
0
0
0
0
0
0
0
0
0
0
0
0
0
0
0
0
0
0
0
0
0
0
0
0
0
0
0
0
0
0
0
0
0
0
0
0
0
0
0
0
1823.35
1862.36
1888.43
1901.57
1901.9
1889.69
1865.37
1829.5
1782.79
1726.08
1660.36
1586.7
1506.34
1420.61
1330.94
1238.78
1145.51
1052.16
959.109
865.52
768.475
661.75
534.863
376.247
187.722
1851.24
1890.88
1917.37
1930.69
1930.97
1918.49
1893.69
1857.13
1809.53
1751.76
1684.8
1609.76
1527.88
1440.51
1349.11
1255.17
1160.09
1064.99
970.297
875.197
776.777
668.73
540.36
379.812
188.928
1818.81
1857.74
1883.77
1896.9
1897.25
1885.1
1860.87
1825.13
1778.57
1722.05
1656.53
1583.11
1503
1417.53
1328.14
1236.26
1143.27
1050.19
957.403
864.05
767.222
660.708
534.054
375.726
187.539
1844.97
1884.45
1910.83
1924.09
1924.37
1911.94
1887.23
1850.82
1803.41
1745.88
1679.19
1604.46
1522.92
1435.93
1344.92
1251.39
1156.73
1062.03
967.711
872.959
774.856
667.114
539.086
378.984
188.649
1844.97
1884.45
1910.83
1924.09
1924.37
1911.94
1887.23
1850.82
1803.41
1745.88
1679.19
1604.46
1522.92
1435.93
1344.92
1251.39
1156.73
1062.03
967.711
872.959
774.856
667.114
539.086
378.984
188.649
1818.81
1857.74
1883.77
1896.9
1897.25
1885.1
1860.87
1825.13
1778.58
1722.05
1656.53
1583.11
1503
1417.53
1328.14
1236.26
1143.27
1050.19
957.404
864.051
767.223
660.709
534.055
375.727
187.539
1851.24
1890.88
1917.37
1930.69
1930.97
1918.49
1893.69
1857.13
1809.53
1751.76
1684.8
1609.76
1527.88
1440.51
1349.11
1255.17
1160.09
1064.99
970.297
875.197
776.777
668.73
540.36
379.812
188.928
1823.35
1862.36
1888.43
1901.57
1901.9
1889.69
1865.37
1829.5
1782.79
1726.08
1660.35
1586.7
1506.34
1420.61
1330.94
1238.78
1145.51
1052.16
959.109
865.52
768.475
661.751
534.864
376.247
187.722
1844.97
1884.45
1910.83
1924.09
1924.37
1911.94
1887.23
1850.82
1803.41
1745.88
1679.19
1604.46
1522.92
1435.93
1344.92
1251.39
1156.73
1062.03
967.711
872.959
774.856
667.114
539.086
378.984
188.649
1818.81
1857.74
1883.77
1896.9
1897.25
1885.1
1860.87
1825.13
1778.57
1722.05
1656.53
1583.11
1503
1417.53
1328.14
1236.26
1143.27
1050.19
957.403
864.051
767.222
660.708
534.054
375.726
187.539
1818.81
1857.74
1883.77
1896.9
1897.25
1885.1
1860.87
1825.13
1778.58
1722.05
1656.53
1583.11
1503
1417.53
1328.14
1236.26
1143.27
1050.19
957.404
864.051
767.223
660.709
534.055
375.727
187.539
1844.97
1884.45
1910.83
1924.09
1924.37
1911.94
1887.23
1850.82
1803.41
1745.88
1679.19
1604.46
1522.92
1435.93
1344.92
1251.39
1156.73
1062.03
967.711
872.959
774.856
667.114
539.086
378.984
188.649
)
;

boundaryField
{
    outletCentralUnloaded
    {
        type            zeroGradient;
    }
    inletCentralUnloaded
    {
        type            zeroGradient;
    }
    outletFuelElement
    {
        type            zeroGradient;
    }
    inletFuelElement
    {
        type            zeroGradient;
    }
    defaultFaces
    {
        type            zeroGradient;
    }
    baffle_master
    {
        type            zeroGradient;
    }
    baffle_slave
    {
        type            zeroGradient;
    }
}


// ************************************************************************* //
