/*--------------------------------*- C++ -*----------------------------------*\
| =========                 |                                                 |
| \\      /  F ield         | OpenFOAM: The Open Source CFD Toolbox           |
|  \\    /   O peration     | Version:  2212                                  |
|   \\  /    A nd           | Website:  www.openfoam.com                      |
|    \\/     M anipulation  |                                                 |
\*---------------------------------------------------------------------------*/
FoamFile
{
    version     2.0;
    format      ascii;
    arch        "LSB;label=32;scalar=64";
    class       volScalarField;
    location    "35/fluidRegion";
    object      Tco.nuclearFuelPin;
}
// * * * * * * * * * * * * * * * * * * * * * * * * * * * * * * * * * * * * * //

dimensions      [0 0 0 1 0 0 0];

internalField   nonuniform List<scalar> 
350
(
0
0
0
0
0
0
0
0
0
0
0
0
0
0
0
0
0
0
0
0
0
0
0
0
0
0
0
0
0
0
0
0
0
0
0
0
0
0
0
0
0
0
0
0
0
0
0
0
0
0
1818.48
1846.24
1861.32
1863.89
1854.27
1832.86
1800.25
1757.12
1704.3
1642.74
1573.47
1497.65
1416.54
1331.48
1243.89
1155.19
1066.7
979.388
893.532
808.174
720.27
623.448
507.058
359.355
181.983
1846.33
1874.59
1889.95
1892.59
1882.8
1861.02
1827.83
1783.93
1730.15
1667.46
1596.92
1519.69
1437.05
1350.36
1261.07
1170.62
1080.39
991.396
903.971
817.196
728.022
629.99
512.238
362.728
183.124
1813.96
1841.65
1856.7
1859.29
1849.7
1828.38
1795.87
1752.88
1700.23
1638.86
1569.8
1494.22
1413.35
1328.56
1241.24
1152.82
1064.61
977.556
891.945
806.809
719.105
622.475
506.299
358.865
181.809
1840.07
1868.19
1883.48
1886.09
1876.32
1854.62
1821.54
1777.81
1724.24
1661.8
1591.54
1514.63
1432.33
1346.01
1257.11
1167.06
1077.23
988.62
901.557
815.109
726.228
628.475
511.037
361.945
182.86
1840.07
1868.19
1883.48
1886.09
1876.32
1854.62
1821.54
1777.81
1724.24
1661.8
1591.54
1514.63
1432.33
1346.01
1257.11
1167.06
1077.23
988.62
901.557
815.109
726.228
628.475
511.038
361.945
182.86
1813.96
1841.65
1856.7
1859.29
1849.71
1828.38
1795.87
1752.88
1700.23
1638.86
1569.8
1494.22
1413.36
1328.56
1241.24
1152.82
1064.61
977.557
891.946
806.81
719.106
622.476
506.3
358.866
181.809
1846.33
1874.59
1889.95
1892.59
1882.8
1861.02
1827.83
1783.93
1730.15
1667.46
1596.92
1519.69
1437.05
1350.36
1261.07
1170.62
1080.39
991.396
903.971
817.196
728.022
629.99
512.238
362.728
183.124
1818.48
1846.24
1861.32
1863.89
1854.27
1832.86
1800.25
1757.12
1704.3
1642.74
1573.47
1497.65
1416.54
1331.48
1243.89
1155.19
1066.7
979.388
893.532
808.174
720.27
623.448
507.059
359.355
181.983
1840.07
1868.19
1883.48
1886.09
1876.32
1854.62
1821.54
1777.81
1724.24
1661.8
1591.54
1514.63
1432.33
1346.01
1257.11
1167.06
1077.23
988.62
901.557
815.109
726.228
628.475
511.038
361.945
182.86
1813.96
1841.65
1856.7
1859.29
1849.7
1828.38
1795.87
1752.88
1700.23
1638.86
1569.8
1494.22
1413.35
1328.56
1241.24
1152.82
1064.61
977.556
891.945
806.809
719.105
622.475
506.299
358.865
181.809
1813.96
1841.65
1856.7
1859.29
1849.71
1828.38
1795.87
1752.88
1700.23
1638.86
1569.8
1494.22
1413.36
1328.56
1241.24
1152.82
1064.61
977.557
891.946
806.81
719.106
622.476
506.3
358.866
181.809
1840.07
1868.19
1883.48
1886.09
1876.32
1854.62
1821.54
1777.81
1724.24
1661.8
1591.54
1514.63
1432.33
1346.01
1257.11
1167.06
1077.23
988.62
901.557
815.109
726.228
628.475
511.038
361.945
182.86
)
;

boundaryField
{
    outletCentralUnloaded
    {
        type            zeroGradient;
    }
    inletCentralUnloaded
    {
        type            zeroGradient;
    }
    outletFuelElement
    {
        type            zeroGradient;
    }
    inletFuelElement
    {
        type            zeroGradient;
    }
    defaultFaces
    {
        type            zeroGradient;
    }
    baffle_master
    {
        type            zeroGradient;
    }
    baffle_slave
    {
        type            zeroGradient;
    }
}


// ************************************************************************* //
