/*--------------------------------*- C++ -*----------------------------------*\
| =========                 |                                                 |
| \\      /  F ield         | OpenFOAM: The Open Source CFD Toolbox           |
|  \\    /   O peration     | Version:  2212                                  |
|   \\  /    A nd           | Website:  www.openfoam.com                      |
|    \\/     M anipulation  |                                                 |
\*---------------------------------------------------------------------------*/
FoamFile
{
    version     2.0;
    format      ascii;
    arch        "LSB;label=32;scalar=64";
    class       volScalarField;
    location    "35/fluidRegion";
    object      Tfo.nuclearFuelPin;
}
// * * * * * * * * * * * * * * * * * * * * * * * * * * * * * * * * * * * * * //

dimensions      [0 0 0 1 0 0 0];

internalField   nonuniform List<scalar> 
350
(
0
0
0
0
0
0
0
0
0
0
0
0
0
0
0
0
0
0
0
0
0
0
0
0
0
0
0
0
0
0
0
0
0
0
0
0
0
0
0
0
0
0
0
0
0
0
0
0
0
0
1975.04
2363.13
2730.13
3070.65
3379.68
3652.63
3885.41
4074.55
4217.22
4311.28
4355.32
4348.73
4291.68
4185.13
4030.84
3831.29
3589.54
3308.97
2992.89
2644.02
2263.49
1849.68
1397.22
900.126
365.684
2004.41
2397.13
2768.45
3112.91
3425.44
3701.39
3936.65
4127.69
4271.65
4366.37
4410.45
4403.26
4344.96
4236.55
4079.81
3877.26
3632.03
3347.57
3027.31
2674.01
2288.86
1870.22
1412.55
909.642
368.884
1970.28
2357.64
2723.97
3063.89
3372.38
3644.86
3877.26
4066.12
4208.6
4302.56
4346.61
4340.13
4283.27
4177.02
4023.13
3824.06
3582.86
3302.9
2987.49
2639.32
2259.51
1846.48
1394.85
898.657
365.183
1997.8
2389.44
2759.74
3103.29
3415
3690.24
3924.91
4115.5
4259.16
4353.72
4397.78
4390.72
4332.7
4224.71
4068.53
3866.67
3622.23
3338.68
3019.37
2667.1
2283.01
1865.48
1409.01
907.445
368.146
1997.8
2389.44
2759.74
3103.29
3415
3690.24
3924.91
4115.5
4259.16
4353.72
4397.78
4390.72
4332.7
4224.71
4068.53
3866.67
3622.23
3338.68
3019.37
2667.1
2283.01
1865.48
1409.01
907.445
368.146
1970.28
2357.64
2723.97
3063.89
3372.38
3644.86
3877.27
4066.12
4208.6
4302.56
4346.61
4340.13
4283.28
4177.02
4023.13
3824.06
3582.86
3302.9
2987.49
2639.32
2259.51
1846.48
1394.85
898.657
365.183
2004.41
2397.13
2768.45
3112.91
3425.44
3701.39
3936.65
4127.68
4271.65
4366.37
4410.45
4403.26
4344.96
4236.55
4079.8
3877.26
3632.03
3347.57
3027.31
2674.01
2288.86
1870.22
1412.55
909.642
368.884
1975.04
2363.13
2730.13
3070.65
3379.68
3652.63
3885.41
4074.55
4217.22
4311.28
4355.32
4348.73
4291.68
4185.13
4030.84
3831.29
3589.54
3308.97
2992.89
2644.02
2263.49
1849.68
1397.22
900.126
365.684
1997.8
2389.44
2759.74
3103.29
3415
3690.24
3924.91
4115.5
4259.16
4353.72
4397.78
4390.72
4332.7
4224.71
4068.53
3866.67
3622.23
3338.68
3019.37
2667.1
2283.01
1865.48
1409.01
907.446
368.146
1970.28
2357.64
2723.97
3063.89
3372.38
3644.86
3877.26
4066.12
4208.6
4302.56
4346.61
4340.13
4283.27
4177.02
4023.13
3824.06
3582.86
3302.9
2987.49
2639.32
2259.51
1846.48
1394.85
898.657
365.183
1970.28
2357.64
2723.97
3063.89
3372.38
3644.86
3877.27
4066.12
4208.6
4302.56
4346.61
4340.13
4283.28
4177.02
4023.13
3824.06
3582.86
3302.9
2987.49
2639.32
2259.51
1846.48
1394.85
898.657
365.183
1997.79
2389.44
2759.74
3103.29
3415
3690.24
3924.91
4115.5
4259.16
4353.72
4397.78
4390.72
4332.7
4224.71
4068.53
3866.67
3622.23
3338.68
3019.37
2667.1
2283.01
1865.48
1409.01
907.445
368.146
)
;

boundaryField
{
    outletCentralUnloaded
    {
        type            zeroGradient;
    }
    inletCentralUnloaded
    {
        type            zeroGradient;
    }
    outletFuelElement
    {
        type            zeroGradient;
    }
    inletFuelElement
    {
        type            zeroGradient;
    }
    defaultFaces
    {
        type            zeroGradient;
    }
    baffle_master
    {
        type            zeroGradient;
    }
    baffle_slave
    {
        type            zeroGradient;
    }
}


// ************************************************************************* //
