/*--------------------------------*- C++ -*----------------------------------*\
| =========                 |                                                 |
| \\      /  F ield         | OpenFOAM: The Open Source CFD Toolbox           |
|  \\    /   O peration     | Version:  2212                                  |
|   \\  /    A nd           | Website:  www.openfoam.com                      |
|    \\/     M anipulation  |                                                 |
\*---------------------------------------------------------------------------*/
FoamFile
{
    version     2.0;
    format      ascii;
    arch        "LSB;label=32;scalar=64";
    class       scalarFieldField;
    location    "35/fluidRegion";
    object      Trad.nuclearFuelPin;
}
// * * * * * * * * * * * * * * * * * * * * * * * * * * * * * * * * * * * * * //


350
(
0()
0()
0()
0()
0()
0()
0()
0()
0()
0()
0()
0()
0()
0()
0()
0()
0()
0()
0()
0()
0()
0()
0()
0()
0()
0()
0()
0()
0()
0()
0()
0()
0()
0()
0()
0()
0()
0()
0()
0()
0()
0()
0()
0()
0()
0()
0()
0()
0()
0()

20
(
2308.35
2306.92
2302.65
2295.51
2285.49
2272.57
2256.72
2237.91
2216.1
2191.23
2163.28
2132.17
2097.85
2060.27
2019.35
1975.04
1828.56
1825.09
1821.73
1818.48
)


20
(
3489.21
3484.27
3469.44
3444.73
3410.1
3365.53
3310.99
3246.44
3171.84
3087.13
2992.25
2887.15
2771.75
2646
2509.82
2363.13
1879.63
1868.13
1857.01
1846.24
)


20
(
4630.52
4622.15
4597.02
4555.14
4496.47
4420.99
4328.66
4219.43
4093.26
3950.09
3789.85
3612.47
3417.89
3206.03
2976.8
2730.13
1917.48
1898.14
1879.43
1861.32
)


20
(
5714.71
5703.04
5668.02
5609.65
5527.89
5422.71
5294.08
5141.95
4966.25
4766.93
4543.91
4297.13
4026.5
3731.93
3413.35
3070.65
1941.93
1915.06
1889.07
1863.89
)


20
(
6725.03
6710.25
6665.91
6591.97
6488.44
6355.26
6192.39
5999.79
5777.39
5525.11
5242.9
4930.66
4588.31
4215.76
3812.92
3379.68
1952.92
1918.95
1886.09
1854.27
)


20
(
7645.85
7628.19
7575.22
7486.92
7363.27
7204.21
7009.72
6779.72
6514.17
6212.98
5876.07
5503.36
5094.76
4650.17
4169.49
3652.63
1950.57
1910.04
1870.83
1832.86
)


20
(
8462.88
8442.63
8381.89
8280.62
8138.82
7956.43
7733.41
7469.69
7165.22
6819.91
6433.68
6006.44
5538.1
5028.54
4477.68
3885.41
1935.13
1888.68
1843.75
1800.25
)


20
(
9163.44
9140.93
9073.37
8960.76
8803.07
8600.25
8352.25
8059.02
7720.47
7336.54
6907.14
6432.16
5911.52
5345.11
4732.82
4074.55
1907.03
1855.41
1805.48
1757.12
)


20
(
9736.65
9712.23
9638.94
9516.77
9345.7
9125.68
8856.65
8538.56
8171.33
7754.88
7289.13
6773.97
6209.31
5595.03
4931.04
4217.22
1866.87
1810.89
1756.74
1704.3
)


20
(
10173.6
10147.7
10069.8
9940.02
9758.29
9524.55
9238.78
8900.88
8510.8
8068.45
7573.75
7026.58
6426.86
5774.48
5069.32
4311.28
1815.37
1755.93
1698.42
1642.74
)


20
(
10467.5
10440.4
10359.3
10223.9
10034.4
9790.69
9492.7
9140.37
8733.63
8272.41
7756.6
7186.12
6560.86
5880.71
5145.57
4355.32
1753.44
1691.47
1631.52
1573.47
)


20
(
10613.8
10586.1
10502.8
10364.1
10169.8
9919.98
9614.5
9253.33
8836.39
8363.61
7834.89
7250.14
6609.25
5912.13
5158.66
4348.73
1682.1
1618.59
1557.15
1497.65
)


20
(
10610.3
10582.3
10498.3
10358.4
10162.5
9910.45
9602.34
9238.06
8817.53
8340.69
7807.44
7217.7
6571.35
5868.3
5108.45
4291.68
1602.55
1538.5
1476.54
1416.54
)


20
(
10457.1
10429.3
10345.9
10207
10012.5
9762.35
9456.49
9094.87
8677.44
8204.1
7674.78
7089.39
6447.83
5750
4995.8
4185.13
1516.1
1452.53
1391.04
1331.48
)


20
(
10156.7
10129.5
10048.1
9912.44
9722.44
9478.09
9179.33
8826.12
8418.4
7956.07
7439.08
6867.32
6240.71
5559.16
4822.57
4030.84
1424.2
1362.11
1302.05
1243.89
)


20
(
9713.87
9687.81
9609.64
9479.33
9296.86
9062.19
8775.29
8436.09
8044.54
7600.56
7104.09
6555.04
5953.32
5298.85
4591.54
3831.29
1328.33
1268.72
1211.04
1155.19
)


20
(
9135.55
9110.98
9037.28
8914.41
8742.38
8521.13
8250.62
7930.82
7561.66
7143.08
6675
6157.36
5590.08
4973.07
4306.25
3589.54
1229.93
1173.72
1119.35
1066.7
)


20
(
8430.39
8407.7
8339.63
8226.17
8067.29
7862.97
7613.17
7317.84
6976.93
6590.39
6158.15
5680.14
5156.29
4586.53
3970.78
3308.97
1130.11
1078.21
1028.01
979.388
)


20
(
7608.35
7587.91
7526.56
7424.3
7281.12
7096.98
6871.85
6605.69
6298.45
5950.09
5560.55
5129.76
4657.67
4144.21
3589.3
2992.89
1029.36
982.591
937.347
893.532
)


20
(
6680.25
6662.37
6608.72
6519.29
6394.08
6233.04
6036.16
5803.4
5534.72
5230.07
4889.42
4512.69
4099.85
3650.83
3165.57
2644.02
926.952
886.055
846.49
808.174
)


20
(
5656.41
5641.38
5596.28
5521.11
5415.84
5280.47
5114.97
4919.3
4693.44
4437.35
4150.99
3834.31
3487.27
3109.81
2701.9
2263.49
820.114
785.736
752.478
720.27
)


20
(
4545.78
4533.84
4498
4438.26
4354.61
4247.04
4115.53
3960.04
3780.56
3577.07
3349.51
3097.87
2822.11
2522.18
2198.05
1849.68
702.783
675.466
649.04
623.448
)


20
(
3354.66
3345.99
3319.96
3276.59
3215.85
3137.74
3042.24
2929.35
2799.04
2651.29
2486.07
2303.38
2103.17
1885.43
1650.12
1397.22
564.65
544.82
525.636
507.058
)


20
(
2089.91
2084.63
2068.8
2042.42
2005.49
1957.99
1899.92
1831.27
1752.04
1662.22
1561.79
1450.74
1329.06
1196.74
1053.77
900.126
394.342
382.295
370.641
359.355
)


20
(
771.249
769.444
764.029
755.005
742.372
726.132
706.285
682.833
655.778
625.122
590.866
553.013
511.566
466.527
417.899
365.684
193.871
189.778
185.818
181.983
)


20
(
2340.82
2339.38
2335.07
2327.86
2317.75
2304.72
2288.73
2269.75
2247.73
2222.65
2194.43
2163.03
2128.39
2090.45
2049.15
2004.41
1856.5
1853
1849.61
1846.33
)


20
(
3535.4
3530.41
3515.43
3490.45
3455.45
3410.4
3355.28
3290.03
3214.62
3129
3033.09
2926.85
2810.21
2683.09
2545.42
2397.13
1908.34
1896.72
1885.47
1874.59
)


20
(
4689.92
4681.45
4656.05
4613.7
4554.39
4478.07
4384.72
4274.29
4146.72
4001.97
3839.95
3660.61
3463.87
3249.65
3017.87
2768.45
1946.74
1927.18
1908.27
1889.95
)


20
(
5786.58
5774.78
5739.37
5680.34
5597.67
5491.32
5361.26
5207.42
5029.76
4828.21
4602.7
4353.15
4079.49
3781.62
3459.46
3112.91
1971.5
1944.33
1918.04
1892.59
)


20
(
6808.45
6793.51
6748.66
6673.9
6569.2
6434.53
6269.83
6075.06
5850.16
5595.05
5309.66
4993.91
4647.7
4270.95
3863.56
3425.44
1982.57
1948.22
1914.99
1882.8
)


20
(
7739.72
7721.86
7668.3
7579
7453.95
7293.1
7096.42
6863.83
6595.28
6290.69
5949.98
5573.06
5159.84
4710.22
4224.11
3701.39
1980.06
1939.07
1899.42
1861.02
)


20
(
8565.93
8545.46
8484.03
8381.62
8238.21
8053.76
7828.22
7561.52
7253.61
6904.39
6513.79
6081.72
5608.07
5092.74
4535.64
3936.65
1964.24
1917.27
1871.83
1827.83
)


20
(
9274.28
9251.51
9183.19
9069.3
8909.82
8704.71
8453.9
8157.35
7814.97
7426.69
6992.42
6512.06
5985.51
5412.67
4793.43
4127.69
1935.54
1883.34
1832.84
1783.93
)


20
(
9853.74
9829.04
9754.92
9631.37
9458.36
9235.84
8963.76
8642.06
8270.67
7849.5
7378.45
6857.45
6286.37
5665.12
4993.58
4271.65
1894.57
1837.96
1783.19
1730.15
)


20
(
10295.3
10269.1
10190.3
10059.1
9875.29
9638.91
9349.88
9008.15
8613.64
8166.27
7665.94
7112.56
6506.02
5846.22
5133.04
4366.37
1842.06
1781.94
1723.78
1667.46
)


20
(
10592.1
10564.8
10482.7
10345.8
10154.1
9907.65
9606.27
9249.94
8838.58
8372.11
7850.44
7273.47
6641.09
5953.21
5209.7
4410.45
1778.94
1716.26
1655.63
1596.92
)


20
(
10739.6
10711.6
10627.4
10487.1
10290.6
10037.9
9728.96
9363.68
8942
8463.84
7929.11
7337.7
6689.52
5984.46
5222.41
4403.26
1706.24
1642.01
1579.87
1519.69
)


20
(
10735.5
10707.2
10622.3
10480.8
10282.6
10027.7
9716.1
9347.67
8922.36
8440.1
7900.78
7304.31
6650.61
5939.55
5171.04
4344.96
1625.18
1560.4
1497.74
1437.05
)


20
(
10579.9
10551.8
10467.5
10327
10130.3
9877.3
9567.96
9202.23
8780.05
8301.32
7765.97
7173.91
6525.04
5819.26
5056.46
4236.55
1537.09
1472.8
1410.6
1350.36
)


20
(
10275.4
10248
10165.7
10028.4
9836.27
9589.13
9286.98
8929.75
8517.37
8049.78
7526.9
6948.63
6314.88
5625.56
4880.57
4079.81
1443.43
1380.64
1319.89
1261.07
)


20
(
9826.89
9800.54
9721.48
9589.68
9405.13
9167.79
8877.62
8534.56
8138.55
7689.51
7187.38
6632.07
6023.49
5361.56
4646.18
3877.26
1345.74
1285.44
1227.11
1170.62
)


20
(
9241.28
9216.43
9141.89
9017.63
8843.63
8619.85
8346.27
8022.82
7649.45
7226.1
6752.69
6229.14
5655.39
5031.34
4356.92
3632.03
1245.48
1188.64
1133.65
1080.39
)


20
(
8527.41
8504.47
8435.62
8320.87
8160.18
7953.53
7700.88
7402.19
7057.39
6666.44
6229.27
5745.8
5215.98
4639.72
4016.94
3347.57
1143.84
1091.35
1040.57
991.396
)


20
(
7695.44
7674.75
7612.71
7509.29
7364.47
7178.23
6950.53
6681.33
6370.6
6018.26
5624.27
5188.57
4711.09
4191.77
3630.53
3027.31
1041.35
994.047
948.287
903.971
)


20
(
6756.31
6738.22
6683.96
6593.51
6466.87
6303.99
6104.87
5869.45
5597.71
5289.59
4945.04
4564.02
4146.46
3692.32
3201.52
2674.01
937.331
895.966
855.95
817.196
)


20
(
5720.5
5705.3
5659.69
5583.65
5477.19
5340.28
5172.88
4974.99
4746.55
4487.54
4197.91
3877.61
3526.61
3144.85
2732.29
2288.86
829.006
794.235
760.597
728.022
)


20
(
4597.06
4584.98
4548.73
4488.32
4403.72
4294.92
4161.9
4004.65
3823.12
3617.31
3387.16
3132.65
2853.74
2550.39
2222.56
1870.22
710.23
682.602
655.874
629.99
)


20
(
3392.26
3383.49
3357.17
3313.3
3251.87
3172.88
3076.3
2962.12
2830.32
2680.89
2513.8
2329.02
2126.53
1906.31
1668.33
1412.55
570.486
550.43
531.028
512.238
)


20
(
2112.91
2107.58
2091.57
2064.89
2027.54
1979.5
1920.77
1851.35
1771.22
1680.38
1578.81
1466.51
1343.45
1209.63
1065.03
909.642
398.112
385.929
374.142
362.728
)


20
(
778.968
777.143
771.669
762.545
749.772
733.351
713.284
689.572
662.216
631.219
596.582
558.307
516.398
470.856
421.684
368.884
195.145
191.006
187.002
183.124
)


20
(
2303.09
2301.66
2297.39
2290.26
2280.26
2267.36
2251.53
2232.75
2210.97
2186.14
2158.22
2127.16
2092.9
2055.37
2014.52
1970.28
1824.02
1820.55
1817.2
1813.96
)


20
(
3481.78
3476.84
3462.05
3437.37
3402.8
3358.31
3303.87
3239.43
3164.95
3080.38
2985.67
2880.75
2765.56
2640.02
2504.08
2357.64
1874.98
1863.5
1852.4
1841.65
)


20
(
4621
4612.65
4587.57
4545.75
4487.19
4411.84
4319.67
4210.64
4084.69
3941.77
3781.81
3604.75
3410.52
3199.03
2970.2
2723.97
1912.77
1893.46
1874.79
1856.7
)


20
(
5703.23
5691.58
5656.62
5598.35
5516.73
5411.75
5283.34
5131.48
4956.1
4757.13
4534.51
4288.17
4018.02
3723.98
3405.97
3063.89
1937.18
1910.36
1884.42
1859.29
)


20
(
6711.73
6696.97
6652.7
6578.91
6475.55
6342.61
6180.04
5987.78
5765.78
5513.96
5232.25
4920.57
4578.83
4206.95
3804.83
3372.38
1948.18
1914.27
1881.47
1849.7
)


20
(
7630.89
7613.27
7560.4
7472.25
7348.82
7190.05
6995.91
6766.33
6501.25
6200.6
5864.3
5492.26
5084.39
4640.6
4160.79
3644.86
1945.87
1905.41
1866.28
1828.38
)


20
(
8446.48
8426.27
8365.63
8264.55
8123
7940.94
7718.32
7455.08
7151.16
6806.47
6420.94
5994.47
5526.97
5018.33
4468.47
3877.26
1930.51
1884.15
1839.3
1795.87
)


20
(
9145.82
9123.34
9055.91
8943.5
8786.09
8583.64
8336.09
8043.38
7705.45
7322.21
6893.59
6419.47
5899.77
5334.38
4723.2
4066.12
1902.52
1851
1801.15
1752.88
)


20
(
9718.05
9693.66
9620.51
9498.56
9327.8
9108.17
8839.63
8522.12
8155.55
7739.86
7274.94
6760.72
6197.08
5583.91
4921.13
4208.6
1862.5
1806.63
1752.58
1700.23
)


20
(
10154.3
10128.4
10050.7
9921.11
9739.7
9506.4
9221.13
8883.85
8494.48
8052.93
7559.12
7012.95
6414.31
5763.11
5059.23
4302.56
1811.18
1751.84
1694.44
1638.86
)


20
(
10447.7
10420.7
10339.7
10204.6
10015.4
9772.13
9474.67
9122.98
8716.98
8256.59
7741.72
7172.27
6548.15
5869.23
5135.42
4346.61
1749.44
1687.59
1627.75
1569.8
)


20
(
10593.8
10566.1
10483.1
10344.6
10150.7
9901.27
9596.34
9235.83
8819.65
8347.72
7819.96
7236.26
6596.54
5900.68
5148.58
4340.13
1678.33
1614.94
1553.61
1494.22
)


20
(
10590.4
10562.5
10478.7
10339
10143.4
9891.85
9584.3
9220.68
8800.92
8324.94
7792.66
7203.98
6558.81
5857.03
5098.56
4283.27
1599.03
1535.1
1473.25
1413.35
)


20
(
10437.6
10409.8
10326.7
10188
9993.83
9744.12
9438.82
9077.86
8661.18
8188.7
7660.34
7076.01
6435.61
5739.05
4986.22
4177.02
1512.85
1449.39
1388.01
1328.56
)


20
(
10137.8
10110.7
10029.5
9894.05
9704.39
9460.48
9162.27
8809.7
8402.72
7941.23
7425.17
6854.46
6228.99
5548.67
4813.42
4023.13
1421.22
1359.25
1299.3
1241.24
)


20
(
9695.95
9669.94
9591.91
9461.83
9279.7
9045.46
8759.07
8420.49
8029.65
7586.48
7090.91
6542.85
5942.23
5288.95
4582.92
3824.06
1325.65
1266.14
1208.57
1152.82
)


20
(
9118.79
9094.27
9020.7
8898.06
8726.33
8505.48
8235.47
7916.25
7547.76
7129.94
6662.71
6146.01
5579.76
4963.87
4298.27
3582.86
1227.53
1171.43
1117.16
1064.61
)


20
(
8415.01
8392.36
8324.42
8211.16
8052.57
7848.62
7599.28
7304.48
6964.2
6578.36
6146.9
5669.76
5146.86
4578.14
3963.51
3302.9
1128
1076.2
1026.09
977.556
)


20
(
7594.56
7574.14
7512.91
7410.84
7267.91
7084.11
6859.39
6593.71
6287.04
5939.31
5550.47
5120.47
4649.24
4136.71
3582.81
2987.49
1027.53
980.842
935.681
891.945
)


20
(
6668.2
6650.36
6596.8
6507.54
6382.55
6221.81
6025.28
5792.95
5524.75
5220.66
4880.63
4504.59
4092.5
3644.29
3159.92
2639.32
925.371
884.548
845.055
806.809
)


20
(
5646.27
5631.26
5586.25
5511.21
5406.14
5271.01
5105.81
4910.5
4685.05
4429.42
4143.58
3827.48
3481.07
3104.3
2697.13
2259.51
818.768
784.452
751.254
719.105
)


20
(
4537.68
4525.76
4489.98
4430.35
4346.86
4239.48
4108.2
3953
3773.85
3570.72
3343.58
3092.4
2817.14
2517.75
2194.22
1846.48
701.666
674.399
648.02
622.475
)


20
(
3348.73
3340.07
3314.1
3270.8
3210.17
3132.2
3036.88
2924.19
2794.12
2646.63
2481.72
2299.35
2099.51
1882.16
1647.28
1394.85
563.786
543.992
524.843
506.299
)


20
(
2086.29
2081.02
2065.22
2038.89
2002.02
1954.6
1896.64
1828.12
1749.03
1659.37
1559.12
1448.27
1326.82
1194.74
1052.02
898.657
393.789
381.764
370.131
358.865
)


20
(
770.027
768.225
762.82
753.812
741.202
724.99
705.178
681.768
654.761
624.159
589.964
552.178
510.805
465.846
417.305
365.183
193.677
189.591
185.638
181.809
)


20
(
2333.48
2332.05
2327.74
2320.55
2310.47
2297.46
2281.5
2262.56
2240.59
2215.56
2187.4
2156.07
2121.51
2083.65
2042.43
1997.8
1850.22
1846.72
1843.34
1840.07
)


20
(
3524.89
3519.91
3504.97
3480.05
3445.13
3400.2
3345.21
3280.12
3204.9
3119.49
3023.82
2917.84
2801.49
2674.68
2537.36
2389.44
1901.87
1890.27
1879.06
1868.19
)


20
(
4676.35
4667.91
4642.57
4600.33
4541.17
4465.04
4371.93
4261.77
4134.53
3990.14
3828.53
3649.64
3453.4
3239.72
3008.53
2759.74
1940.12
1920.62
1901.75
1883.48
)


20
(
5770.13
5758.36
5723.04
5664.17
5581.71
5475.63
5345.89
5192.45
5015.24
4814.2
4589.27
4340.36
4067.39
3770.28
3448.95
3103.29
1964.8
1937.7
1911.48
1886.09
)


20
(
6789.33
6774.43
6729.69
6655.13
6550.69
6416.36
6252.09
6057.82
5833.49
5579.04
5294.38
4979.43
4634.12
4258.33
3851.99
3415
1975.84
1941.57
1908.42
1876.32
)


20
(
7718.18
7700.37
7646.94
7557.88
7433.15
7272.71
7076.53
6844.54
6576.68
6272.87
5933.04
5557.09
5144.93
4696.47
4211.61
3690.24
1973.35
1932.47
1892.92
1854.62
)


20
(
8542.27
8521.85
8460.57
8358.43
8215.39
8031.42
7806.45
7540.45
7233.32
6885.01
6495.41
6064.45
5592.02
5078.02
4522.36
3924.91
1957.6
1910.75
1865.43
1821.54
)


20
(
9248.81
9226.1
9157.96
9044.37
8885.3
8680.71
8430.55
8134.76
7793.27
7405.99
6972.83
6493.71
5968.53
5397.17
4779.53
4115.5
1929.03
1876.96
1826.59
1777.81
)


20
(
9826.83
9802.19
9728.26
9605.03
9432.46
9210.52
8939.14
8618.27
8247.84
7827.75
7357.93
6838.27
6268.67
5649.02
4979.22
4259.16
1888.23
1831.76
1777.14
1724.24
)


20
(
10267.3
10241.2
10162.6
10031.7
9848.38
9612.61
9324.33
8983.49
8590
8143.78
7644.75
7092.8
6487.83
5829.73
5118.4
4353.72
1835.95
1775.98
1717.98
1661.8
)


20
(
10563.5
10536.2
10454.3
10317.8
10126.6
9880.74
9580.14
9224.73
8814.44
8349.18
7828.86
7253.38
6622.64
5936.54
5194.95
4397.78
1773.09
1710.57
1650.1
1591.54
)


20
(
10710.7
10682.7
10598.7
10458.8
10262.8
10010.8
9702.62
9338.29
8917.7
8440.78
7907.43
7317.55
6671.05
5967.82
5207.74
4390.72
1700.7
1636.63
1574.65
1514.63
)


20
(
10706.7
10678.4
10593.8
10452.6
10254.9
10000.7
9689.92
9322.44
8898.24
8417.22
7879.3
7284.38
6632.36
5923.15
5156.63
4332.7
1619.97
1555.36
1492.86
1432.33
)


20
(
10551.6
10523.6
10439.6
10299.4
10103.2
9850.84
9542.3
9177.52
8756.42
8278.94
7744.98
7154.45
6507.26
5803.31
5042.49
4224.71
1532.26
1468.13
1406.09
1346.01
)


20
(
10248.1
10220.7
10138.6
10001.7
9810.06
9563.56
9262.19
8905.89
8494.58
8028.21
7506.68
6929.9
6297.8
5610.27
4867.21
4068.53
1439
1376.37
1315.78
1257.11
)


20
(
9800.87
9774.58
9695.72
9564.27
9380.2
9143.48
8854.06
8511.88
8116.9
7669.03
7168.2
6614.32
6007.33
5347.11
4633.59
3866.67
1341.72
1281.58
1223.4
1167.06
)


20
(
9216.93
9192.15
9117.8
8993.86
8820.31
8597.12
8324.24
8001.63
7629.23
7206.98
6734.79
6212.61
5640.35
5017.92
4345.24
3622.23
1241.89
1185.19
1130.34
1077.23
)


20
(
8505.07
8482.18
8413.52
8299.06
8138.79
7932.67
7680.68
7382.76
7038.86
6648.92
6212.88
5730.68
5202.23
4627.46
4006.31
3338.68
1140.67
1088.31
1037.67
988.62
)


20
(
7675.38
7654.75
7592.87
7489.71
7345.27
7159.51
6932.41
6663.91
6353.98
6002.56
5609.59
5175.02
4698.78
4180.81
3621.03
3019.37
1038.58
991.399
945.757
901.557
)


20
(
6738.79
6720.75
6666.63
6576.42
6450.1
6287.65
6089.04
5854.24
5583.2
5275.88
4932.23
4552.19
4135.72
3682.76
3193.23
2667.1
934.931
893.674
853.762
815.109
)


20
(
5705.74
5690.58
5645.08
5569.25
5463.06
5326.5
5159.54
4962.16
4734.32
4475.98
4187.1
3867.64
3517.55
3136.78
2725.28
2283.01
826.95
792.269
758.719
726.228
)


20
(
4585.25
4573.2
4537.05
4476.79
4392.4
4283.89
4151.22
3994.37
3813.32
3608.03
3378.48
3124.63
2846.45
2543.89
2216.91
1865.48
708.507
680.95
654.291
628.475
)


20
(
3383.6
3374.85
3348.6
3304.84
3243.57
3164.78
3068.45
2954.57
2823.11
2674.07
2507.41
2323.11
2121.15
1901.5
1664.13
1409.01
569.134
549.13
529.778
511.037
)


20
(
2107.61
2102.29
2086.32
2059.71
2022.45
1974.54
1915.97
1846.72
1766.8
1676.19
1574.89
1462.87
1340.13
1206.66
1062.43
907.445
397.238
385.086
373.33
361.945
)


20
(
777.19
775.37
769.909
760.808
748.067
731.688
711.672
688.02
660.733
629.814
595.265
557.087
515.284
469.858
420.811
368.146
194.851
190.722
186.728
182.86
)


20
(
2333.48
2332.05
2327.74
2320.55
2310.47
2297.46
2281.5
2262.56
2240.59
2215.56
2187.4
2156.07
2121.51
2083.65
2042.43
1997.8
1850.22
1846.72
1843.34
1840.07
)


20
(
3524.89
3519.91
3504.97
3480.05
3445.13
3400.2
3345.21
3280.12
3204.9
3119.49
3023.82
2917.84
2801.49
2674.68
2537.36
2389.44
1901.87
1890.27
1879.06
1868.19
)


20
(
4676.35
4667.91
4642.57
4600.33
4541.17
4465.04
4371.93
4261.77
4134.53
3990.14
3828.53
3649.65
3453.4
3239.72
3008.53
2759.74
1940.12
1920.62
1901.75
1883.48
)


20
(
5770.13
5758.36
5723.05
5664.17
5581.71
5475.63
5345.89
5192.45
5015.24
4814.2
4589.27
4340.36
4067.39
3770.28
3448.95
3103.29
1964.8
1937.7
1911.48
1886.09
)


20
(
6789.33
6774.43
6729.69
6655.13
6550.69
6416.36
6252.09
6057.82
5833.49
5579.04
5294.38
4979.43
4634.12
4258.33
3851.99
3415
1975.84
1941.57
1908.42
1876.32
)


20
(
7718.18
7700.37
7646.94
7557.88
7433.15
7272.71
7076.53
6844.54
6576.68
6272.87
5933.04
5557.09
5144.93
4696.47
4211.61
3690.24
1973.35
1932.47
1892.92
1854.62
)


20
(
8542.27
8521.85
8460.57
8358.43
8215.39
8031.42
7806.45
7540.45
7233.32
6885.01
6495.41
6064.45
5592.02
5078.02
4522.36
3924.91
1957.6
1910.75
1865.43
1821.54
)


20
(
9248.81
9226.1
9157.96
9044.36
8885.3
8680.71
8430.55
8134.76
7793.26
7405.99
6972.83
6493.71
5968.53
5397.17
4779.53
4115.5
1929.03
1876.96
1826.59
1777.81
)


20
(
9826.83
9802.19
9728.26
9605.03
9432.46
9210.52
8939.14
8618.27
8247.84
7827.75
7357.93
6838.27
6268.67
5649.02
4979.22
4259.16
1888.23
1831.76
1777.14
1724.24
)


20
(
10267.3
10241.2
10162.6
10031.7
9848.38
9612.61
9324.33
8983.49
8590
8143.78
7644.75
7092.8
6487.83
5829.73
5118.4
4353.72
1835.95
1775.98
1717.98
1661.8
)


20
(
10563.5
10536.2
10454.3
10317.8
10126.6
9880.74
9580.14
9224.73
8814.44
8349.18
7828.86
7253.38
6622.64
5936.54
5194.95
4397.78
1773.09
1710.57
1650.1
1591.54
)


20
(
10710.7
10682.7
10598.7
10458.8
10262.8
10010.8
9702.62
9338.29
8917.7
8440.78
7907.43
7317.55
6671.05
5967.82
5207.74
4390.72
1700.7
1636.63
1574.65
1514.63
)


20
(
10706.7
10678.4
10593.8
10452.6
10254.9
10000.7
9689.91
9322.44
8898.24
8417.22
7879.3
7284.38
6632.36
5923.15
5156.63
4332.7
1619.97
1555.36
1492.86
1432.33
)


20
(
10551.6
10523.6
10439.6
10299.4
10103.2
9850.84
9542.3
9177.52
8756.42
8278.94
7744.98
7154.45
6507.26
5803.31
5042.49
4224.71
1532.26
1468.13
1406.09
1346.01
)


20
(
10248.1
10220.7
10138.6
10001.7
9810.06
9563.56
9262.19
8905.89
8494.58
8028.21
7506.67
6929.9
6297.8
5610.27
4867.21
4068.53
1439
1376.37
1315.78
1257.11
)


20
(
9800.87
9774.58
9695.72
9564.27
9380.2
9143.48
8854.06
8511.88
8116.9
7669.03
7168.2
6614.32
6007.33
5347.11
4633.59
3866.67
1341.72
1281.58
1223.4
1167.06
)


20
(
9216.93
9192.15
9117.8
8993.86
8820.31
8597.12
8324.24
8001.63
7629.23
7206.98
6734.79
6212.61
5640.35
5017.92
4345.24
3622.23
1241.89
1185.19
1130.34
1077.23
)


20
(
8505.07
8482.18
8413.51
8299.06
8138.79
7932.67
7680.68
7382.76
7038.86
6648.92
6212.88
5730.68
5202.23
4627.46
4006.31
3338.68
1140.67
1088.31
1037.67
988.62
)


20
(
7675.38
7654.75
7592.87
7489.71
7345.27
7159.51
6932.41
6663.91
6353.98
6002.56
5609.59
5175.02
4698.78
4180.81
3621.03
3019.37
1038.58
991.399
945.757
901.557
)


20
(
6738.79
6720.75
6666.63
6576.42
6450.1
6287.65
6089.04
5854.24
5583.2
5275.88
4932.23
4552.19
4135.72
3682.76
3193.23
2667.1
934.931
893.674
853.762
815.109
)


20
(
5705.74
5690.58
5645.08
5569.25
5463.06
5326.5
5159.54
4962.16
4734.32
4475.98
4187.1
3867.64
3517.55
3136.78
2725.28
2283.01
826.95
792.269
758.719
726.228
)


20
(
4585.25
4573.2
4537.05
4476.79
4392.4
4283.89
4151.22
3994.37
3813.32
3608.03
3378.48
3124.64
2846.45
2543.89
2216.91
1865.48
708.507
680.95
654.292
628.475
)


20
(
3383.6
3374.85
3348.6
3304.84
3243.57
3164.78
3068.45
2954.57
2823.11
2674.07
2507.41
2323.11
2121.15
1901.5
1664.13
1409.01
569.134
549.13
529.778
511.038
)


20
(
2107.61
2102.29
2086.32
2059.71
2022.45
1974.54
1915.97
1846.72
1766.8
1676.19
1574.89
1462.87
1340.13
1206.66
1062.43
907.445
397.238
385.086
373.33
361.945
)


20
(
777.19
775.37
769.909
760.808
748.067
731.688
711.672
688.02
660.733
629.814
595.265
557.088
515.284
469.858
420.811
368.146
194.851
190.722
186.728
182.86
)


20
(
2303.09
2301.67
2297.39
2290.26
2280.26
2267.36
2251.53
2232.75
2210.97
2186.14
2158.22
2127.16
2092.9
2055.37
2014.52
1970.28
1824.02
1820.55
1817.2
1813.96
)


20
(
3481.78
3476.85
3462.05
3437.37
3402.8
3358.31
3303.87
3239.43
3164.95
3080.38
2985.67
2880.75
2765.56
2640.02
2504.08
2357.64
1874.98
1863.5
1852.4
1841.65
)


20
(
4621.01
4612.65
4587.57
4545.76
4487.19
4411.84
4319.67
4210.64
4084.69
3941.77
3781.81
3604.75
3410.52
3199.03
2970.21
2723.97
1912.77
1893.46
1874.79
1856.7
)


20
(
5703.23
5691.58
5656.62
5598.35
5516.74
5411.75
5283.35
5131.48
4956.1
4757.13
4534.52
4288.17
4018.02
3723.98
3405.97
3063.89
1937.19
1910.36
1884.42
1859.29
)


20
(
6711.73
6696.97
6652.71
6578.91
6475.56
6342.61
6180.04
5987.78
5765.78
5513.96
5232.25
4920.57
4578.83
4206.95
3804.83
3372.38
1948.18
1914.28
1881.47
1849.71
)


20
(
7630.9
7613.27
7560.4
7472.26
7348.82
7190.05
6995.91
6766.33
6501.25
6200.6
5864.3
5492.26
5084.39
4640.6
4160.79
3644.86
1945.87
1905.41
1866.28
1828.38
)


20
(
8446.48
8426.27
8365.63
8264.55
8123
7940.94
7718.32
7455.08
7151.16
6806.47
6420.94
5994.47
5526.97
5018.34
4468.47
3877.27
1930.51
1884.15
1839.3
1795.87
)


20
(
9145.82
9123.34
9055.91
8943.5
8786.09
8583.64
8336.09
8043.38
7705.45
7322.22
6893.59
6419.47
5899.77
5334.38
4723.2
4066.12
1902.52
1851
1801.15
1752.88
)


20
(
9718.05
9693.66
9620.51
9498.56
9327.8
9108.17
8839.63
8522.12
8155.55
7739.86
7274.94
6760.72
6197.08
5583.92
4921.13
4208.6
1862.5
1806.63
1752.58
1700.23
)


20
(
10154.3
10128.4
10050.7
9921.11
9739.7
9506.4
9221.13
8883.85
8494.48
8052.93
7559.12
7012.95
6414.31
5763.11
5059.23
4302.56
1811.18
1751.84
1694.44
1638.86
)


20
(
10447.7
10420.7
10339.7
10204.6
10015.4
9772.13
9474.68
9122.98
8716.99
8256.59
7741.72
7172.27
6548.15
5869.23
5135.43
4346.61
1749.44
1687.59
1627.75
1569.8
)


20
(
10593.8
10566.1
10483.1
10344.6
10150.7
9901.27
9596.34
9235.83
8819.65
8347.72
7819.96
7236.27
6596.54
5900.68
5148.58
4340.13
1678.33
1614.94
1553.61
1494.22
)


20
(
10590.4
10562.5
10478.7
10339
10143.4
9891.85
9584.3
9220.68
8800.92
8324.94
7792.66
7203.98
6558.81
5857.03
5098.56
4283.28
1599.03
1535.1
1473.25
1413.36
)


20
(
10437.6
10409.8
10326.7
10188
9993.83
9744.12
9438.82
9077.86
8661.18
8188.7
7660.34
7076.01
6435.61
5739.05
4986.22
4177.02
1512.85
1449.39
1388.01
1328.56
)


20
(
10137.8
10110.7
10029.5
9894.05
9704.39
9460.48
9162.27
8809.71
8402.72
7941.23
7425.17
6854.46
6228.99
5548.67
4813.42
4023.13
1421.22
1359.25
1299.3
1241.24
)


20
(
9695.95
9669.94
9591.91
9461.84
9279.7
9045.46
8759.07
8420.49
8029.65
7586.48
7090.91
6542.85
5942.23
5288.95
4582.92
3824.06
1325.65
1266.14
1208.57
1152.82
)


20
(
9118.79
9094.27
9020.7
8898.06
8726.33
8505.48
8235.47
7916.25
7547.76
7129.94
6662.71
6146.02
5579.76
4963.88
4298.27
3582.86
1227.53
1171.43
1117.16
1064.61
)


20
(
8415.01
8392.36
8324.42
8211.16
8052.57
7848.63
7599.28
7304.49
6964.2
6578.36
6146.9
5669.76
5146.87
4578.14
3963.51
3302.9
1128.01
1076.2
1026.09
977.557
)


20
(
7594.56
7574.15
7512.91
7410.84
7267.92
7084.11
6859.39
6593.71
6287.04
5939.31
5550.48
5120.47
4649.24
4136.71
3582.81
2987.49
1027.53
980.843
935.682
891.946
)


20
(
6668.21
6650.36
6596.8
6507.54
6382.55
6221.81
6025.28
5792.95
5524.75
5220.66
4880.63
4504.59
4092.5
3644.29
3159.92
2639.32
925.372
884.548
845.056
806.81
)


20
(
5646.27
5631.26
5586.25
5511.21
5406.14
5271.01
5105.81
4910.5
4685.05
4429.42
4143.58
3827.48
3481.07
3104.3
2697.13
2259.51
818.768
784.452
751.255
719.106
)


20
(
4537.68
4525.76
4489.99
4430.36
4346.86
4239.48
4108.21
3953
3773.85
3570.72
3343.59
3092.4
2817.14
2517.76
2194.22
1846.48
701.667
674.4
648.021
622.476
)


20
(
3348.73
3340.08
3314.1
3270.8
3210.17
3132.21
3036.88
2924.19
2794.12
2646.63
2481.72
2299.36
2099.51
1882.16
1647.29
1394.85
563.787
543.993
524.844
506.3
)


20
(
2086.29
2081.02
2065.22
2038.89
2002.02
1954.6
1896.64
1828.12
1749.03
1659.37
1559.12
1448.28
1326.82
1194.74
1052.02
898.657
393.789
381.764
370.131
358.866
)


20
(
770.027
768.226
762.82
753.812
741.202
724.99
705.178
681.768
654.761
624.159
589.964
552.179
510.805
465.846
417.305
365.183
193.677
189.591
185.638
181.809
)


20
(
2340.82
2339.38
2335.07
2327.86
2317.75
2304.72
2288.73
2269.75
2247.73
2222.65
2194.43
2163.03
2128.39
2090.45
2049.15
2004.41
1856.5
1853
1849.61
1846.33
)


20
(
3535.4
3530.41
3515.43
3490.45
3455.45
3410.4
3355.28
3290.03
3214.62
3129
3033.09
2926.85
2810.21
2683.09
2545.42
2397.13
1908.34
1896.72
1885.47
1874.59
)


20
(
4689.92
4681.45
4656.05
4613.7
4554.39
4478.07
4384.72
4274.29
4146.72
4001.97
3839.95
3660.61
3463.87
3249.65
3017.87
2768.45
1946.74
1927.18
1908.27
1889.95
)


20
(
5786.58
5774.78
5739.37
5680.34
5597.67
5491.32
5361.26
5207.42
5029.76
4828.21
4602.7
4353.15
4079.49
3781.62
3459.46
3112.91
1971.5
1944.33
1918.04
1892.59
)


20
(
6808.45
6793.51
6748.66
6673.9
6569.2
6434.53
6269.83
6075.06
5850.16
5595.05
5309.66
4993.91
4647.7
4270.95
3863.56
3425.44
1982.57
1948.22
1914.99
1882.8
)


20
(
7739.72
7721.86
7668.3
7579
7453.95
7293.1
7096.42
6863.83
6595.28
6290.69
5949.98
5573.06
5159.84
4710.22
4224.11
3701.39
1980.06
1939.07
1899.42
1861.02
)


20
(
8565.93
8545.46
8484.03
8381.62
8238.21
8053.76
7828.22
7561.52
7253.61
6904.39
6513.79
6081.72
5608.07
5092.74
4535.64
3936.65
1964.24
1917.27
1871.83
1827.83
)


20
(
9274.28
9251.51
9183.19
9069.3
8909.82
8704.71
8453.9
8157.35
7814.97
7426.69
6992.41
6512.06
5985.51
5412.67
4793.43
4127.68
1935.54
1883.34
1832.84
1783.93
)


20
(
9853.74
9829.04
9754.92
9631.37
9458.36
9235.84
8963.76
8642.06
8270.67
7849.5
7378.45
6857.45
6286.37
5665.12
4993.58
4271.65
1894.57
1837.96
1783.19
1730.15
)


20
(
10295.3
10269.1
10190.3
10059.1
9875.29
9638.91
9349.88
9008.15
8613.64
8166.27
7665.94
7112.56
6506.02
5846.22
5133.04
4366.37
1842.06
1781.94
1723.78
1667.46
)


20
(
10592.1
10564.8
10482.7
10345.8
10154.1
9907.65
9606.27
9249.94
8838.58
8372.11
7850.44
7273.47
6641.09
5953.21
5209.7
4410.45
1778.94
1716.26
1655.63
1596.92
)


20
(
10739.6
10711.6
10627.4
10487.1
10290.6
10037.9
9728.96
9363.68
8942
8463.84
7929.11
7337.7
6689.52
5984.46
5222.41
4403.26
1706.24
1642.01
1579.87
1519.69
)


20
(
10735.5
10707.2
10622.3
10480.8
10282.6
10027.7
9716.1
9347.67
8922.36
8440.09
7900.78
7304.31
6650.6
5939.55
5171.04
4344.96
1625.18
1560.4
1497.74
1437.05
)


20
(
10579.9
10551.8
10467.5
10327
10130.3
9877.3
9567.96
9202.23
8780.04
8301.32
7765.97
7173.91
6525.04
5819.26
5056.46
4236.55
1537.09
1472.8
1410.6
1350.36
)


20
(
10275.4
10248
10165.7
10028.4
9836.27
9589.13
9286.98
8929.75
8517.37
8049.78
7526.9
6948.63
6314.88
5625.56
4880.57
4079.8
1443.43
1380.64
1319.89
1261.07
)


20
(
9826.9
9800.54
9721.48
9589.68
9405.13
9167.79
8877.62
8534.56
8138.55
7689.51
7187.38
6632.07
6023.49
5361.56
4646.18
3877.26
1345.74
1285.44
1227.11
1170.62
)


20
(
9241.28
9216.43
9141.89
9017.63
8843.63
8619.85
8346.27
8022.82
7649.45
7226.1
6752.69
6229.14
5655.39
5031.34
4356.92
3632.03
1245.48
1188.64
1133.65
1080.39
)


20
(
8527.41
8504.47
8435.62
8320.87
8160.18
7953.53
7700.88
7402.18
7057.39
6666.44
6229.27
5745.8
5215.98
4639.72
4016.94
3347.57
1143.84
1091.35
1040.57
991.396
)


20
(
7695.44
7674.75
7612.71
7509.29
7364.47
7178.23
6950.53
6681.33
6370.6
6018.26
5624.27
5188.57
4711.09
4191.77
3630.53
3027.31
1041.35
994.047
948.287
903.971
)


20
(
6756.31
6738.22
6683.96
6593.51
6466.87
6303.99
6104.87
5869.45
5597.71
5289.59
4945.04
4564.02
4146.46
3692.32
3201.52
2674.01
937.331
895.966
855.95
817.196
)


20
(
5720.5
5705.3
5659.69
5583.65
5477.19
5340.28
5172.88
4974.99
4746.55
4487.54
4197.91
3877.61
3526.61
3144.85
2732.29
2288.86
829.006
794.235
760.597
728.022
)


20
(
4597.06
4584.98
4548.73
4488.32
4403.72
4294.92
4161.9
4004.65
3823.12
3617.31
3387.16
3132.65
2853.74
2550.39
2222.56
1870.22
710.23
682.602
655.874
629.99
)


20
(
3392.26
3383.49
3357.17
3313.3
3251.87
3172.88
3076.3
2962.12
2830.32
2680.89
2513.8
2329.02
2126.53
1906.31
1668.33
1412.55
570.486
550.43
531.028
512.238
)


20
(
2112.91
2107.58
2091.57
2064.89
2027.54
1979.5
1920.77
1851.35
1771.22
1680.38
1578.81
1466.51
1343.45