/*--------------------------------*- C++ -*----------------------------------*\
| =========                 |                                                 |
| \\      /  F ield         | OpenFOAM: The Open Source CFD Toolbox           |
|  \\    /   O peration     | Version:  2212                                  |
|   \\  /    A nd           | Website:  www.openfoam.com                      |
|    \\/     M anipulation  |                                                 |
\*---------------------------------------------------------------------------*/
FoamFile
{
    version     2.0;
    format      ascii;
    arch        "LSB;label=32;scalar=64";
    class       surfaceScalarField;
    location    "71/fluidRegion";
    object      alphaRhoPhi;
}
// * * * * * * * * * * * * * * * * * * * * * * * * * * * * * * * * * * * * * //

dimensions      [1 0 -1 0 0 0 0];

oriented        oriented;

internalField   nonuniform List<scalar> 
661
(
-0.00585025
-1.20155e-11
-0.00585016
-1.41092e-11
-0.00585003
-1.01683e-11
-0.00584986
-3.41105e-12
-0.00584967
4.40939e-12
-0.00584949
1.15655e-11
-0.00584935
1.59778e-11
-0.00584926
1.6307e-11
-0.00584923
1.25622e-11
-0.00584924
6.00316e-12
-0.00584928
-1.22145e-12
-0.00584933
-6.70312e-12
-0.00584938
-8.97343e-12
-0.00584945
-8.08284e-12
-0.00584954
-5.21625e-12
-0.00584965
-2.0462e-12
-0.00584977
5.09047e-13
-0.00584988
2.23461e-12
-0.00584996
3.42953e-12
-0.00585
4.50876e-12
-0.00584999
5.52677e-12
-0.00584994
5.82208e-12
-0.00584986
4.61966e-12
-0.00584976
1.01904e-13
-7.46112e-12
-0.00585025
-0.00585016
-0.00585003
-0.00584986
-0.00584967
-0.00584949
-0.00584935
-0.00584926
-0.00584923
-0.00584924
-0.00584928
-0.00584933
-0.00584938
-0.00584945
-0.00584954
-0.00584965
-0.00584977
-0.00584988
-0.00584996
-0.00585
-0.00584999
-0.00584994
-0.00584986
-0.00584976
-0.00939699
6.46088e-07
-0.00939722
3.12552e-07
-0.00939749
3.47043e-07
-0.00939773
3.22182e-07
-0.00939796
3.0287e-07
-0.00939818
2.8595e-07
-0.00939838
2.71135e-07
-0.00939857
2.5681e-07
-0.00939875
2.39019e-07
-0.00939891
2.10077e-07
-0.00939902
1.57753e-07
-0.00939907
6.50089e-08
-0.009399
-8.53908e-08
-0.00939874
-3.01176e-07
-0.00939823
-5.82822e-07
-0.00939743
-9.11777e-07
-0.00939629
-1.26212e-06
-0.00939481
-1.61743e-06
-0.00939297
-1.98932e-06
-0.00939069
-2.42779e-06
-0.00938783
-3.0241e-06
-0.00938413
-3.87379e-06
-0.00937928
-5.0069e-06
-0.00937354
-5.89702e-06
-7.20681e-06
-0.00931274
-1.67506e-08
-1.76666e-08
-0.0093123
-7.96757e-08
-8.33594e-08
-0.00931182
-7.7232e-08
-8.11515e-08
-0.00931138
-6.84827e-08
-7.28499e-08
-0.00931098
-6.10557e-08
-6.59184e-08
-0.0093106
-5.40856e-08
-5.95909e-08
-0.00931025
-4.75027e-08
-5.38075e-08
-0.00930993
-4.08622e-08
-4.8097e-08
-0.00930964
-3.30499e-08
-4.14343e-08
-0.00930939
-2.18489e-08
-3.1665e-08
-0.00930922
-3.499e-09
-1.50597e-08
-0.0093092
2.70162e-08
1.34298e-08
-0.00930942
7.44879e-08
5.81715e-08
-0.00930997
1.46276e-07
1.26453e-07
-0.00931098
2.40505e-07
2.16137e-07
-0.00931254
3.53104e-07
3.2279e-07
-0.00931467
4.76509e-07
4.38205e-07
-0.00931741
6.05857e-07
5.56871e-07
-0.00932079
7.45903e-07
6.82236e-07
-0.00932493
9.14099e-07
8.31412e-07
-0.00933011
1.14236e-06
1.03434e-06
-0.00933674
1.45603e-06
1.32076e-06
-0.00934525
1.83801e-06
1.67286e-06
-0.00935492
1.97487e-06
1.80472e-06
1.92221e-06
1.81062e-06
-0.0094108
3.19359e-07
-0.00941112
3.07163e-07
-0.00941145
3.03205e-07
-0.00941174
2.78744e-07
-0.009412
2.57798e-07
-0.00941225
2.39042e-07
-0.00941247
2.21884e-07
-0.00941267
2.04369e-07
-0.00941285
1.81884e-07
-0.00941299
1.45825e-07
-0.00941307
8.25923e-08
-0.00941303
-2.49654e-08
-0.0094128
-1.95032e-07
-0.00941229
-4.37129e-07
-0.00941141
-7.49067e-07
-0.00941008
-1.11071e-06
-0.00940827
-1.49519e-06
-0.00940595
-1.88735e-06
-0.00940309
-2.30347e-06
-0.00939958
-2.80055e-06
-0.00939518
-3.47505e-06
-0.00938954
-4.42231e-06
-0.00938236
-5.58636e-06
-0.00937432
-6.29204e-06
-6.57825e-06
-0.00933163
2.60031e-09
-0.00933137
1.23328e-09
-0.0093311
1.40373e-09
-0.00933085
1.43063e-09
-0.00933063
1.50514e-09
-0.00933042
1.5467e-09
-0.00933023
1.5127e-09
-0.00933006
1.46086e-09
-0.0093299
1.31222e-09
-0.00932978
1.01639e-09
-0.00932971
6.0977e-10
-0.00932974
2.11291e-11
-0.00932992
-8.62575e-10
-0.00933032
-2.08916e-09
-0.00933102
-3.83112e-09
-0.00933207
-6.1812e-09
-0.00933349
-9.14669e-09
-0.00933529
-1.26774e-08
-0.0093375
-1.69697e-08
-0.0093402
-2.17827e-08
-0.00934357
-2.69506e-08
-0.00934787
-3.25074e-08
-0.00935333
-3.85067e-08
-0.0093595
-3.87061e-08
-3.29158e-08
-0.00933165
-3.13656e-07
-0.00933138
-3.04478e-07
-0.00933111
-3.00008e-07
-0.00933087
-2.75416e-07
-0.00933064
-2.54243e-07
-0.00933043
-2.3531e-07
-0.00933024
-2.18055e-07
-0.00933007
-2.00462e-07
-0.00932991
-1.78033e-07
-0.00932979
-1.42212e-07
-0.00932972
-7.93655e-08
-0.00932975
2.76836e-08
-0.00932993
1.96792e-07
-0.00933033
4.3745e-07
-0.00933103
7.47273e-07
-0.00933208
1.10597e-06
-0.0093335
1.48657e-06
-0.0093353
1.87381e-06
-0.00933751
2.28323e-06
-0.00934021
2.77159e-06
-0.00934358
3.43425e-06
-0.00934788
4.36572e-06
-0.00935335
5.50711e-06
-0.00935951
6.20094e-06
6.48705e-06
-0.0094108
1.56456e-08
-0.00941113
8.09352e-08
-0.00941145
7.8455e-08
-0.00941174
6.98939e-08
-0.00941201
6.27371e-08
-0.00941225
5.6108e-08
-0.00941247
4.9953e-08
-0.00941268
4.38768e-08
-0.00941285
3.67614e-08
-0.00941299
2.64363e-08
-0.00941307
9.21403e-09
-0.00941303
-1.99314e-08
-0.0094128
-6.54594e-08
-0.00941229
-1.3491e-07
-0.0094114
-2.26244e-07
-0.00941008
-3.35311e-07
-0.00940826
-4.54395e-07
-0.00940594
-5.78646e-07
-0.00940308
-7.13051e-07
-0.00939957
-8.75478e-07
-0.00939517
-1.09818e-06
-0.00938952
-1.40846e-06
-0.00938234
-1.79244e-06
-0.0093743
-1.93743e-06
-1.89447e-06
-0.00931274
-6.45823e-07
-1.99821e-08
-0.0093123
-3.12161e-07
-8.36909e-08
-0.00931182
-3.46638e-07
-8.16313e-08
-0.00931138
-3.21757e-07
-7.32538e-08
-0.00931098
-3.02377e-07
-6.62738e-08
-0.0093106
-2.85403e-07
-5.98317e-08
-0.00931025
-2.70544e-07
-5.38362e-08
-0.00930993
-2.56158e-07
-4.78428e-08
-0.00930964
-2.38339e-07
-4.07316e-08
-0.00930939
-2.09395e-07
-3.03017e-08
-0.00930922
-1.57049e-07
-1.28127e-08
-0.0093092
-6.43368e-08
1.66738e-08
-0.00930942
8.5879e-08
6.32225e-08
-0.00930997
3.01292e-07
1.34038e-07
-0.00931098
5.82074e-07
2.27433e-07
-0.00931254
9.09352e-07
3.39598e-07
-0.00931467
1.2566e-06
4.63321e-07
-0.00931741
1.60621e-06
5.94612e-07
-0.00932079
1.9672e-06
7.40022e-07
-0.00932493
2.38578e-06
9.20432e-07
-0.00933011
2.94581e-06
1.17187e-06
-0.00933674
3.73633e-06
1.52669e-06
-0.00934525
4.77176e-06
1.96931e-06
-0.00935492
5.57261e-06
2.16627e-06
6.84924e-06
2.15322e-06
-0.00939699
-0.00939722
-0.00939749
-0.00939773
-0.00939796
-0.00939818
-0.00939838
-0.00939857
-0.00939875
-0.00939891
-0.00939902
-0.00939907
-0.009399
-0.00939874
-0.00939823
-0.00939743
-0.00939629
-0.00939481
-0.00939297
-0.0093907
-0.00938784
-0.00938413
-0.00937929
-0.00937355
-0.00933163
-3.15187e-07
3.50929e-13
-0.00933137
-3.02171e-07
-1.9173e-09
-0.0093311
-2.9779e-07
-2.00447e-09
-0.00933085
-2.72882e-07
-2.24335e-09
-0.00933063
-2.51361e-07
-2.5728e-09
-0.00933042
-2.31961e-07
-2.97534e-09
-0.00933023
-2.14108e-07
-3.4554e-09
-0.00933006
-1.95796e-07
-4.08672e-09
-0.0093299
-1.72457e-07
-4.8701e-09
-0.00932978
-1.35473e-07
-5.83385e-09
-0.00932971
-7.12076e-08
-7.1138e-09
-0.00932974
3.76515e-08
-8.47822e-09
-0.00932992
2.09147e-07
-1.07858e-08
-0.00933032
4.52968e-07
-1.37224e-08
-0.00933102
7.67125e-07
-1.7726e-08
-0.00933207
1.1319e-06
-2.3387e-08
-0.00933349
1.52153e-06
-3.1821e-08
-0.00933529
1.92257e-06
-4.46662e-08
-0.0093375
2.35448e-06
-6.46873e-08
-0.0093402
2.87946e-06
-9.5833e-08
-0.00934356
3.60372e-06
-1.44672e-07
-0.00934787
4.62859e-06
-2.12207e-07
-0.00935333
5.90369e-06
-2.98176e-07
-0.0093595
6.71568e-06
-3.59499e-07
7.00993e-06
-3.40584e-07
-0.0094108
-0.00941112
-0.00941144
-0.00941174
-0.009412
-0.00941225
-0.00941247
-0.00941267
-0.00941285
-0.00941299
-0.00941307
-0.00941303
-0.0094128
-0.00941229
-0.00941141
-0.00941008
-0.00940827
-0.00940595
-0.00940309
-0.00939958
-0.00939518
-0.00938954
-0.00938236
-0.00937433
-0.0094108
3.15101e-07
-0.00941113
3.06061e-07
-0.00941145
3.01671e-07
-0.00941174
2.77193e-07
-0.00941201
2.56248e-07
-0.00941225
2.37543e-07
-0.00941247
2.20513e-07
-0.00941268
2.03234e-07
-0.00941285
1.81127e-07
-0.00941299
1.45631e-07
-0.00941307
8.3188e-08
-0.00941303
-2.36273e-08
-0.0094128
-1.91954e-07
-0.00941229
-4.31862e-07
-0.00941141
-7.4097e-07
-0.00941008
-1.09901e-06
-0.00940826
-1.47909e-06
-0.00940595
-1.86656e-06
-0.00940308
-2.27876e-06
-0.00939957
-2.77525e-06
-0.00939517
-3.45792e-06
-0.00938953
-4.42872e-06
-0.00938234
-5.64165e-06
-0.0093743
-6.41494e-06
-6.73749e-06
-0.00933165
-0.00933138
-0.00933111
-0.00933087
-0.00933064
-0.00933043
-0.00933024
-0.00933007
-0.00932991
-0.00932979
-0.00932972
-0.00932975
-0.00932993
-0.00933034
-0.00933103
-0.00933208
-0.0093335
-0.0093353
-0.00933751
-0.00934021
-0.00934358
-0.00934789
-0.00935335
-0.00935952
)
;

boundaryField
{
    outletCentralUnloaded
    {
        type            calculated;
        value           nonuniform List<scalar> 2(0.00585028 0.00585028);
    }
    inletCentralUnloaded
    {
        type            calculated;
        value           nonuniform List<scalar> 2(-0.00587369 -0.00587369);
    }
    outletFuelElement
    {
        type            calculated;
        value           nonuniform List<scalar> 
12
(
0.00939642
0.0093134
0.00941052
0.00933192
0.00933193
0.00941053
0.0093134
0.00939642
0.00933192
0.00941052
0.00941053
0.00933193
)
;
    }
    inletFuelElement
    {
        type            calculated;
        value           nonuniform List<scalar> 
12
(
-0.00953891
-0.00953892
-0.00953891
-0.00953891
-0.00953892
-0.00953891
-0.00953892
-0.00953891
-0.00953891
-0.00953891
-0.00953891
-0.00953892
)
;
    }
    defaultFaces
    {
        type            calculated;
        value           nonuniform List<scalar> 
450
(
5.44275e-24
-2.81087e-23
0
9.53289e-24
3.04792e-25
0
9.97215e-24
1.42349e-24
0
-2.35447e-23
-1.2345e-23
0
-7.63816e-24
-2.06516e-23
0
-1.90765e-23
-1.01317e-23
0
-1.7906e-23
-3.39066e-24
0
-2.09722e-23
-7.00213e-24
0
-8.97995e-24
-7.03843e-24
0
-1.26928e-23
-5.07751e-24
0
-1.13297e-23
-7.83424e-24
0
-4.84434e-24
-1.38307e-24
0
4.93452e-24
3.56838e-24
0
2.07166e-23
8.7699e-24
0
3.84264e-23
9.94832e-24
0
6.1449e-23
2.58318e-23
0
7.4831e-23
-1.11878e-23
0
9.86013e-23
1.02865e-22
0
8.66813e-23
-7.91796e-23
0
-6.15601e-23
-2.27016e-23
0
-1.47441e-22
-1.09217e-22
0
1.80171e-22
-7.76786e-23
0
-7.4831e-23
7.27779e-23
0
-2.06538e-22
-1.78985e-22
0
-1.3174e-22
-2.34249e-22
0
1.29566e-23
0
1.13092e-23
0
3.86378e-24
0
7.97191e-24
0
-2.06959e-24
0
6.49118e-24
0
6.83433e-24
0
3.62454e-24
0
-3.87496e-24
0
5.5708e-24
0
3.97859e-24
0
-8.33188e-25
0
-7.41141e-24
0
-1.25161e-23
0
-2.85727e-23
0
-2.20742e-23
0
5.2022e-23
0
-6.24441e-23
0
0
0
-9.5994e-23
0
-1.854e-22
0
2.45332e-22
0
1.10692e-22
0
-3.00004e-22
0
-1.92187e-22
0
-7.29785e-24
-7.43057e-24
0
0
0
-4.26296e-24
-4.48788e-24
-4.75981e-24
7.63238e-24
-2.74297e-24
-1.4925e-24
4.10229e-25
3.64927e-24
0
9.38287e-24
2.17552e-23
-5.12988e-23
3.08103e-23
0
0
6.11931e-23
-1.6223e-22
-1.10036e-22
0
-9.59993e-23
0
0
0
0
0
0
0
0
0
0
0
0
0
0
0
0
0
0
0
0
0
0
0
0
0
-8.32926e-24
7.40379e-24
0
1.13092e-23
7.72755e-24
2.31827e-23
-5.97893e-24
-5.97893e-24
8.27834e-24
-4.13917e-24
-8.6549e-24
-6.49117e-24
-4.55622e-24
-6.83432e-24
-4.83272e-24
-4.83272e-24
1.29165e-23
-2.5833e-24
-4.17809e-24
-1.3927e-24
-2.27348e-24
-1.51565e-24
1.66637e-24
1.97882e-24
5.55855e-24
5.55855e-24
1.66882e-23
1.25161e-23
1.90484e-23
2.85726e-23
2.20742e-23
2.20742e-23
-3.90165e-23
6.50274e-23
3.1222e-23
4.6833e-23
-1.53045e-22
1.14784e-22
-1.43991e-22
-7.19954e-23
0
-6.18e-23
-2.04443e-22
2.04443e-22
-5.53459e-23
-1.10692e-22
-7.5001e-23
-2.62504e-22
-3.84374e-22
-1.4414e-22
-1.34053e-24
0
0
1.73984e-24
0
0
8.11944e-24
0
-3.08317e-23
-2.8656e-23
0
7.95155e-24
1.24887e-23
0
0
-2.24437e-23
0
4.3163e-24
-2.51816e-23
0
0
-2.58359e-23
0
4.82019e-24
-1.56792e-23
0
-1.03064e-23
-1.78944e-23
0
5.5563e-24
-1.67184e-23
0
3.02342e-24
-5.40238e-24
0
8.31029e-25
7.30365e-24
-0
0
3.14103e-23
-0
-4.16145e-24
4.96858e-23
-0
-9.50055e-24
7.63085e-23
-0
-2.20211e-23
8.15776e-23
-0
-2.59511e-23
1.50895e-22
-0
-6.23084e-23
8.19282e-23
-0
-7.63689e-23
-5.84517e-23
-0
0
2.04228e-23
-0
6.17024e-23
1.15938e-22
-0
8.16715e-23
-1.47635e-22
-0
0
-7.34966e-23
-0
1.49921e-22
-1.84157e-22
-0
1.92155e-22
0
-7.43057e-24
0
-3.9274e-24
4.07791e-24
-4.26296e-24
-4.48788e-24
-2.3799e-24
0
-2.74297e-24
-1.4925e-24
8.20457e-25
7.29855e-24
0
9.38287e-24
2.17552e-23
-5.12988e-23
0
-1.51164e-22
0
6.11931e-23
-3.2446e-22
-1.10036e-22
0
-9.59993e-23
1.29566e-23
0
7.53949e-24
0
0
0
7.97191e-24
0
-6.20876e-24
0
6.49118e-24
0
4.55622e-24
0
4.83272e-24
0
-3.87496e-24
0
4.1781e-24
0
2.27348e-24
0
-8.33188e-25
-0
-9.26426e-24
-0
-1.25161e-23
-0
-1.90484e-23
-0
-2.20742e-23
-0
7.8033e-23
-0
-6.2444e-23
-0
1.53046e-22
-0
-4.7997e-23
-0
-2.472e-22
-0
1.63554e-22
-0
5.5346e-23
-0
-2.25003e-22
-0
-1.92187e-22
-0
-1.29566e-23
7.40379e-24
-7.53949e-24
1.13092e-23
-1.15913e-23
1.54551e-23
-7.9719e-24
-1.79368e-23
-2.06958e-24
8.27834e-24
-6.49117e-24
-1.51461e-23
-6.83432e-24
-1.82249e-23
-2.41636e-24
-1.20818e-23
1.29165e-24
-7.74991e-24
-1.3927e-24
-9.74888e-24
-2.27348e-24
-6.0626e-24
4.16594e-25
3.25464e-24
3.7057e-24
1.48228e-23
8.34408e-24
3.33763e-23
9.52421e-24
5.23831e-23
1.10371e-23
7.72597e-23
1.30055e-23
7.80329e-23
4.6833e-23
1.71721e-22
-1.91307e-23
1.14784e-22
0
-9.59939e-23
3.09e-23
-1.236e-22
0
2.8622e-22
1.66038e-22
-2.21384e-22
7.5001e-23
-2.25003e-22
0
-2.40234e-22
-0
-0
-0
-0
-0
-0
-0
-0
-0
-0
-0
0
0
0
0
0
0
0
0
0
0
0
0
0
0
)
;
    }
    baffle_master
    {
        type            calculated;
        value           nonuniform List<scalar> 
150
(
5.69184e-29
0
2.48461e-28
-1.35925e-28
0
-2.48481e-28
-9.95708e-29
0
-1.24251e-28
1.89975e-29
0
-6.21305e-29
2.36354e-28
0
1.24271e-28
1.23628e-28
0
-2.48563e-28
1.2606e-28
0
-2.48584e-28
7.25962e-30
0
-2.48604e-28
-7.27188e-29
0
0
2.37755e-29
0
1.24323e-28
1.78382e-29
0
0
4.20501e-29
0
1.24344e-28
-7.51999e-29
0
-1.24354e-28
-3.37108e-29
0
0
-1.92625e-29
0
-6.21872e-29
1.63812e-29
0
-3.10961e-29
-4.94297e-29
0
-3.10987e-29
2.56786e-29
0
-3.11013e-29
-2.22151e-28
0
-1.24415e-28
4.64584e-30
0
0
1.51325e-29
0
-1.24436e-28
2.94125e-28
0
1.24447e-28
-1.79884e-29
0
0
-2.75022e-31
0
-1.94479e-30
-2.44937e-29
0
1.24477e-28
-2.48461e-28
-5.31946e-28
0
0
-3.29027e-28
0
2.48502e-28
-2.47598e-28
0
0
-9.62542e-29
0
-6.21357e-29
-9.69811e-29
-0
-2.48563e-28
7.17594e-28
-0
-2.48584e-28
4.89527e-28
-0
-2.48604e-28
2.43932e-28
-0
2.48625e-28
5.69538e-28
-0
-1.24323e-28
1.80157e-28
-0
1.55416e-29
-4.79205e-29
0
0
-3.18417e-28
0
2.48708e-28
-3.28964e-28
0
1.24364e-28
-2.51368e-28
0
6.21872e-29
-1.66988e-28
0
3.10961e-29
-7.19963e-29
0
1.55493e-29
1.91237e-29
-0
-6.22025e-29
5.86173e-29
-0
6.22077e-29
1.13584e-29
-0
0
-1.52955e-28
-0
0
-1.65853e-28
-0
2.48893e-28
-2.08219e-28
-0
1.86685e-28
1.7761e-28
-0
1.94479e-30
-2.06418e-30
-0
1.24477e-28
1.16338e-28
0
)
;
    }
    baffle_slave
    {
        type            calculated;
        value           nonuniform List<scalar> 
150
(
6.36378e-24
-0
0
2.08261e-24
-0
0
3.08272e-24
-0
3.80747e-24
1.10066e-24
-0
-3.9274e-24
-1.42215e-23
-0
-1.22337e-23
-2.6547e-25
-0
-4.26296e-24
8.38402e-25
-0
0
5.92783e-25
-0
0
-3.16834e-25
-0
0
1.36635e-24
-0
0
7.43443e-25
-0
0
4.0868e-25
0
0
4.54438e-25
0
0
-2.04684e-24
0
0
-2.33705e-24
0
-9.38287e-24
-1.08384e-23
0
-2.17552e-23
-7.18877e-23
0
-1.02598e-22
5.7578e-24
0
0
-7.77028e-23
0
-7.55821e-23
0
0
-9.49198e-23
1.14452e-23
0
6.11931e-23
1.56838e-22
0
8.11151e-23
2.74675e-23
0
0
9.33551e-24
0
0
2.99925e-23
0
-9.59993e-23
1.21751e-24
2.59097e-23
0
-4.03815e-24
9.71883e-24
0
1.81405e-24
9.24816e-24
0
-2.90906e-24
1.23519e-23
0
-9.2496e-25
-1.49834e-23
0
1.86767e-25
7.16769e-24
0
-2.14251e-24
6.28802e-24
0
-4.71762e-24
6.66881e-24
0
8.40008e-24
6.65352e-24
0
3.30212e-25
6.66098e-24
0
-2.54558e-24
4.46066e-24
0
6.50103e-25
2.96293e-24
0
6.58261e-24
-9.08877e-25
0
6.66598e-24
-5.34097e-24
0
6.87122e-24
-1.2379e-23
0
4.38892e-23
-2.20154e-23
0
-7.47484e-23
-2.7557e-23
0
5.50873e-23
-3.98248e-23
0
-8.36776e-24
1.17732e-24
0
5.73902e-23
2.95787e-23
0
1.55078e-23
4.19657e-23
0
-2.4677e-22
1.31541e-22
0
-1.06343e-22
-9.61363e-23
0
3.65463e-23
7.46841e-23
0
-3.07439e-23
2.3994e-23
0
)
;
    }
}


// ************************************************************************* //
