/*--------------------------------*- C++ -*----------------------------------*\
| =========                 |                                                 |
| \\      /  F ield         | OpenFOAM: The Open Source CFD Toolbox           |
|  \\    /   O peration     | Version:  2212                                  |
|   \\  /    A nd           | Website:  www.openfoam.com                      |
|    \\/     M anipulation  |                                                 |
\*---------------------------------------------------------------------------*/
FoamFile
{
    version     2.0;
    format      ascii;
    arch        "LSB;label=32;scalar=64";
    class       volScalarField;
    location    "71/fluidRegion";
    object      alphat;
}
// * * * * * * * * * * * * * * * * * * * * * * * * * * * * * * * * * * * * * //

dimensions      [1 -1 -1 0 0 0 0];

internalField   nonuniform List<scalar> 
350
(
0.00258561
0.0025856
0.00258562
0.00258566
0.00258568
0.00258568
0.00258566
0.00258563
0.00258562
0.00258563
0.00258566
0.00258573
0.00258582
0.00258594
0.00258609
0.0025863
0.0025866
0.00258705
0.00258773
0.00258877
0.00259036
0.0025928
0.00259654
0.00260226
0.00261102
0.00258561
0.0025856
0.00258562
0.00258566
0.00258568
0.00258568
0.00258566
0.00258563
0.00258562
0.00258562
0.00258566
0.00258573
0.00258582
0.00258594
0.00258609
0.0025863
0.0025866
0.00258705
0.00258773
0.00258877
0.00259036
0.0025928
0.00259654
0.00260226
0.00261102
0.000895876
0.000884272
0.000872862
0.000861291
0.000849454
0.000837244
0.000824557
0.000811295
0.000797372
0.000782723
0.000767318
0.000751162
0.000734299
0.000716799
0.000698742
0.000680224
0.00066142
0.000642787
0.000625503
0.000612403
0.000609883
0.000631329
0.000699562
0.000832308
0.00100222
0.000888017
0.000876427
0.000865053
0.000853525
0.000841738
0.000829587
0.000816966
0.000803775
0.000789928
0.00077536
0.000760041
0.000743981
0.000727235
0.000709882
0.000692017
0.000673744
0.000655237
0.000636938
0.000620006
0.000607248
0.000605043
0.000626816
0.000695612
0.00082961
0.00100148
0.00089713
0.000885513
0.000874093
0.00086251
0.00085066
0.000838436
0.000825734
0.000812456
0.000798516
0.00078385
0.000768425
0.000752248
0.000735361
0.000717831
0.000699737
0.000681173
0.000662316
0.000643621
0.000626272
0.000613108
0.000610526
0.000631909
0.000700058
0.000832646
0.00100234
0.000889821
0.000878233
0.000866853
0.000855318
0.000843522
0.000831359
0.000818725
0.000805519
0.000791655
0.000777069
0.00076173
0.000745648
0.000728874
0.000711487
0.000693577
0.000675247
0.000656671
0.000638296
0.000621282
0.000608445
0.000606167
0.000627865
0.000696532
0.000830241
0.00100165
0.000889821
0.000878233
0.000866853
0.000855318
0.000843522
0.000831359
0.000818725
0.000805519
0.000791655
0.000777069
0.00076173
0.000745648
0.000728874
0.000711487
0.000693578
0.000675247
0.000656672
0.000638296
0.000621282
0.000608445
0.000606167
0.000627865
0.000696532
0.000830241
0.00100165
0.000897129
0.000885513
0.000874092
0.00086251
0.000850659
0.000838435
0.000825734
0.000812456
0.000798516
0.00078385
0.000768425
0.000752248
0.000735361
0.000717831
0.000699737
0.000681173
0.000662315
0.000643621
0.000626272
0.000613108
0.000610525
0.000631909
0.000700058
0.000832647
0.00100234
0.000888017
0.000876427
0.000865053
0.000853525
0.000841738
0.000829587
0.000816966
0.000803775
0.000789928
0.00077536
0.00076004
0.000743981
0.000727235
0.000709882
0.000692017
0.000673744
0.000655237
0.000636939
0.000620006
0.000607248
0.000605043
0.000626816
0.000695612
0.000829609
0.00100148
0.000895876
0.000884272
0.000872862
0.000861291
0.000849454
0.000837244
0.000824557
0.000811295
0.000797372
0.000782723
0.000767318
0.000751162
0.000734299
0.000716799
0.000698742
0.000680224
0.000661421
0.000642787
0.000625503
0.000612404
0.000609885
0.000631332
0.000699567
0.000832314
0.00100223
0.000889821
0.000878233
0.000866853
0.000855318
0.000843522
0.000831359
0.000818725
0.000805519
0.000791655
0.000777069
0.00076173
0.000745648
0.000728874
0.000711487
0.000693577
0.000675247
0.000656671
0.000638296
0.000621282
0.000608445
0.000606167
0.000627865
0.000696533
0.000830243
0.00100166
0.00089713
0.000885513
0.000874093
0.00086251
0.00085066
0.000838436
0.000825734
0.000812456
0.000798516
0.00078385
0.000768425
0.000752248
0.000735361
0.000717831
0.000699737
0.000681173
0.000662315
0.00064362
0.000626271
0.000613106
0.000610522
0.000631904
0.00070005
0.000832636
0.00100233
0.00089713
0.000885513
0.000874093
0.00086251
0.00085066
0.000838436
0.000825734
0.000812456
0.000798516
0.00078385
0.000768425
0.000752248
0.000735361
0.000717831
0.000699737
0.000681174
0.000662316
0.000643622
0.000626273
0.000613108
0.000610526
0.00063191
0.000700058
0.000832644
0.00100234
0.000889822
0.000878233
0.000866853
0.000855318
0.000843522
0.00083136
0.000818725
0.000805519
0.000791655
0.000777069
0.00076173
0.000745648
0.000728874
0.000711487
0.000693578
0.000675248
0.000656672
0.000638297
0.000621283
0.000608447
0.00060617
0.00062787
0.000696539
0.00083025
0.00100166
)
;

boundaryField
{
    outletCentralUnloaded
    {
        type            zeroGradient;
    }
    inletCentralUnloaded
    {
        type            zeroGradient;
    }
    outletFuelElement
    {
        type            zeroGradient;
    }
    inletFuelElement
    {
        type            zeroGradient;
    }
    defaultFaces
    {
        type            zeroGradient;
    }
    baffle_master
    {
        type            calculated;
        value           nonuniform List<scalar> 
150
(
0.00258561
0.00258561
0.00258561
0.0025856
0.0025856
0.0025856
0.00258562
0.00258562
0.00258562
0.00258566
0.00258566
0.00258566
0.00258568
0.00258568
0.00258568
0.00258568
0.00258568
0.00258568
0.00258566
0.00258566
0.00258566
0.00258563
0.00258563
0.00258563
0.00258562
0.00258562
0.00258562
0.00258563
0.00258563
0.00258563
0.00258566
0.00258566
0.00258566
0.00258573
0.00258573
0.00258573
0.00258582
0.00258582
0.00258582
0.00258594
0.00258594
0.00258594
0.00258609
0.00258609
0.00258609
0.0025863
0.0025863
0.0025863
0.0025866
0.0025866
0.0025866
0.00258705
0.00258705
0.00258705
0.00258773
0.00258773
0.00258773
0.00258877
0.00258877
0.00258877
0.00259036
0.00259036
0.00259036
0.0025928
0.0025928
0.0025928
0.00259654
0.00259654
0.00259654
0.00260226
0.00260226
0.00260226
0.00261102
0.00261102
0.00261102
0.00258561
0.00258561
0.00258561
0.0025856
0.0025856
0.0025856
0.00258562
0.00258562
0.00258562
0.00258566
0.00258566
0.00258566
0.00258568
0.00258568
0.00258568
0.00258568
0.00258568
0.00258568
0.00258566
0.00258566
0.00258566
0.00258563
0.00258563
0.00258563
0.00258562
0.00258562
0.00258562
0.00258562
0.00258562
0.00258562
0.00258566
0.00258566
0.00258566
0.00258573
0.00258573
0.00258573
0.00258582
0.00258582
0.00258582
0.00258594
0.00258594
0.00258594
0.00258609
0.00258609
0.00258609
0.0025863
0.0025863
0.0025863
0.0025866
0.0025866
0.0025866
0.00258705
0.00258705
0.00258705
0.00258773
0.00258773
0.00258773
0.00258877
0.00258877
0.00258877
0.00259036
0.00259036
0.00259036
0.0025928
0.0025928
0.0025928
0.00259654
0.00259654
0.00259654
0.00260226
0.00260226
0.00260226
0.00261102
0.00261102
0.00261102
)
;
    }
    baffle_slave
    {
        type            calculated;
        value           nonuniform List<scalar> 
150
(
0.000888017
0.000889821
0.000889822
0.000876427
0.000878233
0.000878233
0.000865053
0.000866853
0.000866853
0.000853525
0.000855318
0.000855318
0.000841738
0.000843522
0.000843522
0.000829587
0.000831359
0.00083136
0.000816966
0.000818725
0.000818725
0.000803775
0.000805519
0.000805519
0.000789928
0.000791655
0.000791655
0.00077536
0.000777069
0.000777069
0.000760041
0.00076173
0.00076173
0.000743981
0.000745648
0.000745648
0.000727235
0.000728874
0.000728874
0.000709882
0.000711487
0.000711487
0.000692017
0.000693577
0.000693578
0.000673744
0.000675247
0.000675248
0.000655237
0.000656671
0.000656672
0.000636938
0.000638296
0.000638297
0.000620006
0.000621282
0.000621283
0.000607248
0.000608445
0.000608447
0.000605043
0.000606167
0.00060617
0.000626816
0.000627865
0.00062787
0.000695612
0.000696532
0.000696539
0.00082961
0.000830241
0.00083025
0.00100148
0.00100165
0.00100166
0.000889821
0.000888017
0.000889821
0.000878233
0.000876427
0.000878233
0.000866853
0.000865053
0.000866853
0.000855318
0.000853525
0.000855318
0.000843522
0.000841738
0.000843522
0.000831359
0.000829587
0.000831359
0.000818725
0.000816966
0.000818725
0.000805519
0.000803775
0.000805519
0.000791655
0.000789928
0.000791655
0.000777069
0.00077536
0.000777069
0.00076173
0.00076004
0.00076173
0.000745648
0.000743981
0.000745648
0.000728874
0.000727235
0.000728874
0.000711487
0.000709882
0.000711487
0.000693578
0.000692017
0.000693577
0.000675247
0.000673744
0.000675247
0.000656672
0.000655237
0.000656671
0.000638296
0.000636939
0.000638296
0.000621282
0.000620006
0.000621282
0.000608445
0.000607248
0.000608445
0.000606167
0.000605043
0.000606167
0.000627865
0.000626816
0.000627865
0.000696532
0.000695612
0.000696533
0.000830241
0.000829609
0.000830243
0.00100165
0.00100148
0.00100166
)
;
    }
}


// ************************************************************************* //
