/*--------------------------------*- C++ -*----------------------------------*\
| =========                 |                                                 |
| \\      /  F ield         | OpenFOAM: The Open Source CFD Toolbox           |
|  \\    /   O peration     | Version:  2212                                  |
|   \\  /    A nd           | Website:  www.openfoam.com                      |
|    \\/     M anipulation  |                                                 |
\*---------------------------------------------------------------------------*/
FoamFile
{
    version     2.0;
    format      ascii;
    arch        "LSB;label=32;scalar=64";
    class       volScalarField;
    location    "71/fluidRegion";
    object      epsilon;
}
// * * * * * * * * * * * * * * * * * * * * * * * * * * * * * * * * * * * * * //

dimensions      [0 2 -3 0 0 0 0];

internalField   nonuniform List<scalar> 
350
(
66.9843
66.9684
66.9526
66.9369
66.921
66.9051
66.889
66.8727
66.8563
66.8397
66.8232
66.8069
66.7912
66.7765
66.7636
66.7532
66.7467
66.7461
66.7543
66.776
66.8182
66.8914
67.012
67.2046
67.5066
66.9843
66.9684
66.9526
66.9369
66.921
66.9051
66.889
66.8727
66.8563
66.8397
66.8232
66.8069
66.7912
66.7765
66.7636
66.7532
66.7467
66.7461
66.7543
66.776
66.8182
66.8914
67.012
67.2046
67.5067
7.65564e+06
7.04496e+06
6.36907e+06
5.64919e+06
4.91319e+06
4.18661e+06
3.49162e+06
2.84625e+06
2.264e+06
1.75372e+06
1.31973e+06
962171
677491
459137
298351
185121
109168
60860
31886.7
15619.3
7152.43
3117.64
1385.82
735.662
547.109
7.82141e+06
7.19896e+06
6.50995e+06
5.77551e+06
5.02418e+06
4.2821e+06
3.57197e+06
2.91226e+06
2.31685e+06
1.79484e+06
1.35073e+06
984711
693234
469642
305011
189107
111404
62024
32442.2
15857.8
7242.08
3146
1393.01
737.106
547.533
7.62852e+06
7.0197e+06
6.34607e+06
5.62864e+06
4.8952e+06
4.1712e+06
3.4787e+06
2.83567e+06
2.25556e+06
1.74718e+06
1.31482e+06
958609
675010
457484
297305
184495
108817
60676
31798
15580.4
7137.21
3112.37
1384.19
735.173
546.934
7.78469e+06
7.16478e+06
6.4786e+06
5.74733e+06
4.99937e+06
4.26071e+06
3.55392e+06
2.8974e+06
2.30493e+06
1.78555e+06
1.34371e+06
979596
689654
467249
303492
188196
110893
61757.6
32315.1
15803.3
7221.63
3139.58
1391.41
736.806
547.453
7.78469e+06
7.16479e+06
6.4786e+06
5.74734e+06
4.99937e+06
4.26071e+06
3.55392e+06
2.8974e+06
2.30493e+06
1.78555e+06
1.34371e+06
979595
689654
467249
303492
188196
110893
61757.6
32315
15803.2
7221.63
3139.58
1391.41
736.807
547.453
7.62853e+06
7.01971e+06
6.34608e+06
5.62865e+06
4.89521e+06
4.1712e+06
3.4787e+06
2.83568e+06
2.25557e+06
1.74718e+06
1.31482e+06
958610
675011
457485
297305
184495
108817
60676
31797.9
15580.4
7137.19
3112.35
1384.18
735.168
546.932
7.82141e+06
7.19896e+06
6.50995e+06
5.77551e+06
5.02418e+06
4.2821e+06
3.57197e+06
2.91226e+06
2.31685e+06
1.79484e+06
1.35073e+06
984711
693234
469643
305011
189107
111404
62024
32442.2
15857.8
7242.07
3146
1393.01
737.106
547.533
7.65564e+06
7.04496e+06
6.36907e+06
5.64919e+06
4.91319e+06
4.18661e+06
3.49162e+06
2.84625e+06
2.264e+06
1.75372e+06
1.31973e+06
962171
677491
459137
298351
185121
109168
60860
31886.7
15619.3
7152.41
3117.62
1385.81
735.656
547.105
7.78469e+06
7.16478e+06
6.4786e+06
5.74733e+06
4.99937e+06
4.26071e+06
3.55392e+06
2.8974e+06
2.30493e+06
1.78555e+06
1.34371e+06
979595
689654
467249
303492
188196
110893
61757.6
32315.1
15803.2
7221.63
3139.58
1391.41
736.805
547.451
7.62852e+06
7.0197e+06
6.34607e+06
5.62864e+06
4.8952e+06
4.1712e+06
3.4787e+06
2.83567e+06
2.25556e+06
1.74718e+06
1.31482e+06
958609
675010
457485
297305
184495
108817
60676.1
31798.1
15580.5
7137.26
3112.4
1384.21
735.185
546.944
7.62853e+06
7.01971e+06
6.34608e+06
5.62865e+06
4.89521e+06
4.1712e+06
3.4787e+06
2.83568e+06
2.25557e+06
1.74718e+06
1.31482e+06
958609
675010
457485
297305
184495
108817
60675.9
31797.9
15580.4
7137.17
3112.35
1384.18
735.169
546.934
7.78469e+06
7.16478e+06
6.4786e+06
5.74733e+06
4.99937e+06
4.26071e+06
3.55392e+06
2.8974e+06
2.30493e+06
1.78555e+06
1.34371e+06
979595
689654
467249
303491
188196
110892
61757.5
32315
15803.2
7221.59
3139.55
1391.4
736.797
547.446
)
;

boundaryField
{
    outletCentralUnloaded
    {
        type            zeroGradient;
    }
    inletCentralUnloaded
    {
        type            zeroGradient;
    }
    outletFuelElement
    {
        type            zeroGradient;
    }
    inletFuelElement
    {
        type            zeroGradient;
    }
    defaultFaces
    {
        type            zeroGradient;
    }
    baffle_master
    {
        type            zeroGradient;
    }
    baffle_slave
    {
        type            zeroGradient;
    }
}


// ************************************************************************* //
