/*--------------------------------*- C++ -*----------------------------------*\
| =========                 |                                                 |
| \\      /  F ield         | OpenFOAM: The Open Source CFD Toolbox           |
|  \\    /   O peration     | Version:  2212                                  |
|   \\  /    A nd           | Website:  www.openfoam.com                      |
|    \\/     M anipulation  |                                                 |
\*---------------------------------------------------------------------------*/
FoamFile
{
    version     2.0;
    format      ascii;
    arch        "LSB;label=32;scalar=64";
    class       volScalarField;
    location    "71/fluidRegion";
    object      Tcav.nuclearFuelPin;
}
// * * * * * * * * * * * * * * * * * * * * * * * * * * * * * * * * * * * * * //

dimensions      [0 0 0 1 0 0 0];

internalField   nonuniform List<scalar> 
350
(
0
0
0
0
0
0
0
0
0
0
0
0
0
0
0
0
0
0
0
0
0
0
0
0
0
0
0
0
0
0
0
0
0
0
0
0
0
0
0
0
0
0
0
0
0
0
0
0
0
0
1845.84
1883.93
1909.07
1921.26
1920.64
1907.46
1882.16
1845.31
1797.61
1739.91
1673.18
1598.54
1517.19
1430.49
1339.86
1246.76
1152.6
1058.42
964.638
870.421
772.856
665.647
538.041
377.924
186.899
1874.3
1913
1938.52
1950.88
1950.18
1936.72
1910.91
1873.33
1824.72
1765.93
1697.94
1621.89
1539
1450.63
1358.25
1263.34
1167.35
1071.4
975.946
880.198
781.244
672.703
543.609
381.543
188.123
1841.22
1879.23
1904.32
1916.51
1915.92
1902.81
1877.6
1840.88
1793.34
1735.83
1669.31
1594.9
1513.81
1427.37
1337.02
1244.21
1150.33
1056.44
962.915
868.937
771.591
664.594
537.222
377.397
186.713
1867.9
1906.44
1931.86
1944.17
1943.47
1930.06
1904.35
1866.93
1818.52
1759.97
1692.26
1616.52
1533.98
1445.99
1354.01
1259.52
1163.95
1068.4
973.331
877.937
779.303
671.07
542.319
380.703
187.84
1867.9
1906.44
1931.86
1944.17
1943.47
1930.06
1904.35
1866.93
1818.52
1759.97
1692.26
1616.52
1533.98
1445.99
1354.01
1259.52
1163.95
1068.4
973.331
877.937
779.303
671.07
542.319
380.703
187.84
1841.22
1879.23
1904.33
1916.51
1915.92
1902.81
1877.61
1840.88
1793.34
1735.83
1669.32
1594.9
1513.81
1427.37
1337.02
1244.22
1150.33
1056.44
962.916
868.938
771.592
664.595
537.223
377.397
186.713
1874.3
1913
1938.52
1950.88
1950.18
1936.72
1910.91
1873.33
1824.72
1765.93
1697.94
1621.89
1539
1450.63
1358.25
1263.34
1167.35
1071.4
975.946
880.198
781.244
672.704
543.61
381.543
188.123
1845.84
1883.93
1909.07
1921.26
1920.64
1907.46
1882.16
1845.31
1797.61
1739.91
1673.18
1598.54
1517.19
1430.49
1339.86
1246.76
1152.6
1058.42
964.638
870.421
772.856
665.647
538.041
377.924
186.899
1867.9
1906.44
1931.86
1944.17
1943.47
1930.06
1904.35
1866.93
1818.52
1759.97
1692.26
1616.52
1533.98
1445.99
1354.01
1259.52
1163.95
1068.4
973.331
877.937
779.303
671.07
542.319
380.703
187.84
1841.22
1879.23
1904.32
1916.51
1915.92
1902.81
1877.6
1840.88
1793.34
1735.83
1669.31
1594.9
1513.81
1427.37
1337.02
1244.21
1150.33
1056.44
962.915
868.938
771.591
664.594
537.222
377.397
186.713
1841.22
1879.23
1904.33
1916.51
1915.92
1902.81
1877.61
1840.88
1793.34
1735.83
1669.32
1594.9
1513.81
1427.37
1337.02
1244.21
1150.33
1056.44
962.916
868.938
771.592
664.595
537.223
377.397
186.713
1867.9
1906.44
1931.86
1944.17
1943.47
1930.06
1904.35
1866.93
1818.52
1759.97
1692.26
1616.52
1533.98
1445.99
1354.01
1259.52
1163.95
1068.4
973.331
877.937
779.303
671.07
542.319
380.703
187.84
)
;

boundaryField
{
    outletCentralUnloaded
    {
        type            zeroGradient;
    }
    inletCentralUnloaded
    {
        type            zeroGradient;
    }
    outletFuelElement
    {
        type            zeroGradient;
    }
    inletFuelElement
    {
        type            zeroGradient;
    }
    defaultFaces
    {
        type            zeroGradient;
    }
    baffle_master
    {
        type            zeroGradient;
    }
    baffle_slave
    {
        type            zeroGradient;
    }
}


// ************************************************************************* //
