/*--------------------------------*- C++ -*----------------------------------*\
| =========                 |                                                 |
| \\      /  F ield         | OpenFOAM: The Open Source CFD Toolbox           |
|  \\    /   O peration     | Version:  2212                                  |
|   \\  /    A nd           | Website:  www.openfoam.com                      |
|    \\/     M anipulation  |                                                 |
\*---------------------------------------------------------------------------*/
FoamFile
{
    version     2.0;
    format      ascii;
    arch        "LSB;label=32;scalar=64";
    class       volScalarField;
    location    "71/fluidRegion";
    object      Tfi.nuclearFuelPin;
}
// * * * * * * * * * * * * * * * * * * * * * * * * * * * * * * * * * * * * * //

dimensions      [0 0 0 1 0 0 0];

internalField   nonuniform List<scalar> 
350
(
0
0
0
0
0
0
0
0
0
0
0
0
0
0
0
0
0
0
0
0
0
0
0
0
0
0
0
0
0
0
0
0
0
0
0
0
0
0
0
0
0
0
0
0
0
0
0
0
0
0
2425.19
3613.61
4761.79
5852.04
6867.47
7792.33
8612.25
9314.47
9888.05
10324
10615.6
10758.3
10749.7
10590.2
10282.4
9830.99
9243.17
8527.75
7694.89
6755.51
5719.94
4596.73
3391.06
2107.9
766.648
2460.28
3662.48
4823.92
5926.68
6953.68
7888.99
8718.09
9428.06
10007.8
10448.4
10742.8
10886.5
10877.3
10715.3
10403.2
9945.9
9350.61
8626.29
7783.29
6832.7
5784.99
4648.82
3429.31
2131.34
774.512
2419.51
3605.75
4751.85
5840.12
6853.73
7776.94
8595.42
9296.42
9869.03
10304.3
10595.4
10737.9
10729.5
10570.4
10263.2
9812.79
9226.15
8512.14
7680.89
6743.29
5709.65
4588.51
3385.04
2104.22
765.405
2452.35
3651.37
4809.74
5909.6
6933.93
7866.82
8693.79
9401.96
9980.31
10419.8
10713.6
10857
10847.9
10686.5
10375.4
9919.44
9325.87
8603.6
7762.93
6814.92
5770.01
4636.82
3420.5
2125.93
772.7
2452.35
3651.37
4809.74
5909.6
6933.92
7866.82
8693.79
9401.96
9980.31
10419.8
10713.6
10857
10847.9
10686.5
10375.4
9919.44
9325.87
8603.6
7762.93
6814.92
5770.01
4636.82
3420.5
2125.93
772.701
2419.51
3605.75
4751.85
5840.13
6853.73
7776.94
8595.42
9296.42
9869.03
10304.3
10595.4
10737.9
10729.5
10570.4
10263.2
9812.79
9226.16
8512.14
7680.89
6743.29
5709.65
4588.51
3385.04
2104.22
765.405
2460.28
3662.48
4823.93
5926.68
6953.68
7888.99
8718.09
9428.06
10007.8
10448.4
10742.8
10886.5
10877.3
10715.3
10403.2
9945.91
9350.61
8626.29
7783.29
6832.7
5784.99
4648.82
3429.31
2131.34
774.512
2425.19
3613.61
4761.8
5852.04
6867.47
7792.33
8612.25
9314.47
9888.05
10324
10615.6
10758.3
10749.7
10590.2
10282.4
9830.99
9243.17
8527.75
7694.89
6755.51
5719.94
4596.74
3391.07
2107.9
766.648
2452.35
3651.37
4809.74
5909.6
6933.92
7866.82
8693.79
9401.96
9980.31
10419.8
10713.6
10857
10847.9
10686.5
10375.4
9919.44
9325.87
8603.6
7762.93
6814.92
5770.01
4636.82
3420.5
2125.93
772.701
2419.51
3605.75
4751.85
5840.12
6853.73
7776.94
8595.42
9296.42
9869.03
10304.3
10595.4
10737.9
10729.5
10570.4
10263.2
9812.79
9226.15
8512.14
7680.89
6743.29
5709.65
4588.51
3385.04
2104.22
765.405
2419.51
3605.75
4751.85
5840.13
6853.73
7776.94
8595.42
9296.42
9869.03
10304.3
10595.4
10737.9
10729.5
10570.4
10263.2
9812.79
9226.15
8512.14
7680.89
6743.29
5709.65
4588.51
3385.04
2104.22
765.405
2452.35
3651.37
4809.74
5909.6
6933.92
7866.82
8693.79
9401.96
9980.31
10419.8
10713.6
10857
10847.9
10686.5
10375.4
9919.44
9325.87
8603.6
7762.93
6814.92
5770.01
4636.82
3420.5
2125.93
772.7
)
;

boundaryField
{
    outletCentralUnloaded
    {
        type            zeroGradient;
    }
    inletCentralUnloaded
    {
        type            zeroGradient;
    }
    outletFuelElement
    {
        type            zeroGradient;
    }
    inletFuelElement
    {
        type            zeroGradient;
    }
    defaultFaces
    {
        type            zeroGradient;
    }
    baffle_master
    {
        type            zeroGradient;
    }
    baffle_slave
    {
        type            zeroGradient;
    }
}


// ************************************************************************* //
