/*--------------------------------*- C++ -*----------------------------------*\
| =========                 |                                                 |
| \\      /  F ield         | OpenFOAM: The Open Source CFD Toolbox           |
|  \\    /   O peration     | Version:  2212                                  |
|   \\  /    A nd           | Website:  www.openfoam.com                      |
|    \\/     M anipulation  |                                                 |
\*---------------------------------------------------------------------------*/
FoamFile
{
    version     2.0;
    format      ascii;
    arch        "LSB;label=32;scalar=64";
    class       scalarFieldField;
    location    "71/fluidRegion";
    object      Trad.nuclearFuelPin;
}
// * * * * * * * * * * * * * * * * * * * * * * * * * * * * * * * * * * * * * //


350
(
0()
0()
0()
0()
0()
0()
0()
0()
0()
0()
0()
0()
0()
0()
0()
0()
0()
0()
0()
0()
0()
0()
0()
0()
0()
0()
0()
0()
0()
0()
0()
0()
0()
0()
0()
0()
0()
0()
0()
0()
0()
0()
0()
0()
0()
0()
0()
0()
0()
0()

20
(
2425.19
2423.4
2418.04
2409.09
2396.57
2380.48
2360.8
2337.55
2310.72
2280.31
2246.32
2208.75
2167.61
2122.89
2074.58
2022.7
1851.95
1847.89
1843.95
1840.14
)


20
(
3613.61
3608.27
3592.24
3565.54
3528.16
3480.09
3421.34
3351.91
3271.8
3181.01
3079.54
2967.38
2844.54
2711.01
2566.81
2411.92
1902.17
1890.02
1878.28
1866.9
)


20
(
4761.79
4752.99
4726.56
4682.52
4620.86
4541.59
4444.69
4330.18
4198.06
4048.31
3880.95
3695.97
3493.37
3273.15
3035.32
2779.86
1939.15
1919.12
1899.75
1880.99
)


20
(
5852.04
5839.9
5803.49
5742.81
5657.85
5548.61
5415.1
5257.32
5075.26
4868.92
4638.31
4383.43
4104.27
3800.83
3473.12
3121.13
1962.71
1935.12
1908.42
1882.57
)


20
(
6867.47
6852.2
6806.37
6730
6623.08
6485.61
6317.59
6119.02
5889.9
5630.23
5340.01
5019.24
4667.91
4286.04
3873.62
3430.65
1972.8
1938.07
1904.48
1871.94
)


20
(
7792.33
7774.16
7719.65
7628.79
7501.6
7338.06
7138.17
6901.95
6629.38
6320.47
5975.22
5593.62
5175.68
4721.4
4230.77
3703.8
1969.52
1928.2
1888.24
1849.53
)


20
(
8612.25
8591.47
8529.13
8425.22
8279.76
8092.73
7864.14
7593.99
7282.27
6928.99
6534.15
6097.75
5619.78
5100.25
4539.16
3936.5
1953.13
1905.88
1860.18
1815.91
)


20
(
9314.47
9291.41
9222.22
9106.91
8945.47
8737.9
8484.2
8184.38
7838.44
7446.36
7008.16
6523.83
5993.38
5416.8
4794.08
4125.25
1924.07
1871.63
1820.91
1771.78
)


20
(
9888.05
9863.07
9788.13
9663.22
9488.35
9263.52
8988.72
8663.96
8289.24
7864.55
7389.9
6865.29
6290.71
5666.17
4991.66
4267.19
1882.92
1826.12
1771.18
1717.97
)


20
(
10324
10297.5
10218
10085.5
9899.95
9661.39
9369.83
9025.25
8627.66
8177.06
7673.45
7116.82
6507.18
5844.53
5128.86
4360.18
1830.43
1770.17
1711.87
1655.41
)


20
(
10615.6
10588
10505.2
10367.1
10173.8
9925.32
9621.58
9262.62
8848.44
8379.03
7854.39
7274.53
6639.44
5949.13
5203.59
4402.83
1767.48
1704.71
1643.97
1585.16
)


20
(
10758.3
10730
10645.1
10503.7
10305.7
10051.2
9740.06
9372.38
8948.13
8467.31
7929.93
7335.98
6685.46
5978.38
5214.73
4394.51
1695.13
1630.83
1568.62
1508.37
)


20
(
10749.7
10721.2
10635.7
10493.2
10293.6
10037
9723.44
9352.83
8925.21
8440.57
7898.92
7300.25
6644.56
5931.85
5162.13
4335.39
1614.55
1549.74
1487.04
1426.31
)


20
(
10590.2
10562
10477.1
10335.7
10137.7
9883.15
9572.04
9204.35
8780.1
8299.29
7761.9
7167.95
6517.43
5810.34
5046.69
4226.46
1527.08
1462.78
1400.57
1340.32
)


20
(
10282.4
10254.7
10171.9
10033.8
9840.56
9592.05
9288.31
8929.35
8515.16
8045.74
7521.1
6941.24
6306.15
5615.83
4870.29
4069.52
1434.15
1371.38
1310.64
1251.83
)


20
(
9830.99
9804.49
9724.97
9592.44
9406.89
9168.34
8876.77
8532.19
8134.59
7683.99
7180.37
6623.73
6014.09
5351.43
4635.75
3867.06
1337.28
1277.02
1218.72
1162.26
)


20
(
9243.17
9218.19
9143.25
9018.34
8843.46
8618.62
8343.82
8019.06
7644.33
7219.63
6744.97
6220.35
5645.76
5021.21
4346.69
3622.21
1237.91
1181.11
1126.17
1072.96
)


20
(
8527.75
8504.69
8435.5
8320.18
8158.73
7951.16
7697.46
7397.63
7051.67
6659.59
6221.38
5737.04
5206.57
4629.98
4007.26
3338.4
1137.19
1084.75
1034.02
984.896
)


20
(
7694.89
7674.11
7611.76
7507.85
7362.38
7175.35
6946.75
6676.59
6364.87
6011.58
5616.73
5180.31
4702.34
4182.79
3621.69
3019.02
1035.61
988.361
942.653
898.388
)


20
(
6755.51
6737.34
6682.82
6591.96
6464.76
6301.21
6101.32
5865.09
5592.51
5283.59
4938.32
4556.71
4138.75
3684.45
3193.81
2666.82
932.479
891.165
851.197
812.491
)


20
(
5719.94
5704.66
5658.83
5582.46
5475.53
5338.05
5170.02
4971.44
4742.3
4482.62
4192.38
3871.6
3520.26
3138.37
2725.93
2282.93
825.023
790.293
756.696
724.159
)


20
(
4596.73
4584.6
4548.18
4487.49
4402.52
4293.28
4159.75
4001.96
3819.88
3613.53
3382.9
3127.99
2848.81
2545.35
2217.61
1865.6
707.1
679.503
652.806
626.951
)


20
(
3391.06
3382.25
3355.83
3311.78
3250.11
3170.83
3073.92
2959.4
2827.25
2677.49
2510.11
2325.11
2122.49
1902.25
1664.39
1408.91
568.126
548.098
528.722
509.957
)


20
(
2107.9
2102.56
2086.53
2059.83
2022.43
1974.36
1915.6
1846.15
1766.03
1675.22
1573.72
1461.54
1338.68
1205.14
1060.91
905.993
396.167
384.022
372.273
360.895
)


20
(
766.648
764.858
759.488
750.537
738.006
721.894
702.202
678.93
652.078
621.645
587.633
550.039
508.866
464.112
415.778
363.864
193.013
188.943
185.006
181.193
)


20
(
2460.28
2458.47
2453.04
2443.99
2431.33
2415.05
2395.15
2371.63
2344.49
2313.74
2279.36
2241.36
2199.75
2154.51
2105.66
2053.18
1880.48
1876.36
1872.38
1868.53
)


20
(
3662.48
3657.08
3640.88
3613.87
3576.06
3527.44
3468.02
3397.8
3316.77
3224.94
3122.3
3008.86
2884.61
2749.56
2603.7
2447.03
1931.44
1919.16
1907.28
1895.77
)


20
(
4823.92
4815.01
4788.29
4743.74
4681.38
4601.19
4503.19
4387.37
4253.73
4102.27
3932.99
3745.89
3540.97
3318.23
3077.67
2819.29
1968.95
1948.69
1929.1
1910.12
)


20
(
5926.68
5914.4
5877.57
5816.19
5730.26
5619.77
5484.74
5325.14
5141
4932.3
4699.05
4441.25
4158.89
3851.97
3520.51
3164.49
1992.8
1964.89
1937.89
1911.74
)


20
(
6953.68
6938.23
6891.88
6814.63
6706.49
6567.44
6397.5
6196.65
5964.91
5702.26
5408.72
5084.27
4728.93
4342.68
3925.54
3477.49
2002.94
1967.82
1933.84
1900.93
)


20
(
7888.99
7870.61
7815.48
7723.58
7594.93
7429.51
7227.34
6988.41
6712.72
6400.28
6051.07
5665.1
5242.37
4782.89
4286.64
3753.63
1999.48
1957.7
1917.27
1878.12
)


20
(
8718.09
8697.07
8634.01
8528.92
8381.78
8192.61
7961.4
7688.16
7372.87
7015.55
6616.18
6174.78
5691.34
5165.86
4598.34
3988.78
1982.69
1934.9
1888.67
1843.9
)


20
(
9428.06
9404.73
9334.75
9218.11
9054.82
8844.88
8588.28
8285.02
7935.11
7538.55
7095.33
6605.45
6068.92
5485.73
4855.89
4179.39
1953
1899.96
1848.66
1798.97
)


20
(
10007.8
9982.57
9906.77
9780.43
9603.56
9376.15
9098.21
8769.73
8390.71
7961.16
7481.08
6950.45
6369.29
5737.59
5055.36
4322.59
1911.01
1853.57
1797.99
1744.17
)


20
(
10448.4
10421.6
10341.1
10207.1
10019.4
9778.15
9483.25
9134.72
8732.58
8276.82
7767.43
7204.43
6587.81
5917.57
5193.7
4416.22
1857.48
1796.53
1737.57
1680.46
)


20
(
10742.8
10714.9
10631.1
10491.5
10296
10044.6
9737.39
9374.31
8955.39
8480.6
7949.95
7363.45
6721.09
6022.87
5268.79
4458.86
1793.32
1729.82
1668.4
1608.91
)


20
(
10886.5
10857.9
10772.1
10629.1
10428.8
10171.3
9856.66
9484.77
9055.66
8569.34
8025.8
7425.05
6767.08
6051.9
5279.5
4449.88
1719.58
1654.54
1591.62
1530.69
)


20
(
10877.3
10848.5
10761.9
10617.8
10415.9
10156.4
9839.24
9464.39
9031.87
8541.68
7993.82
7388.29
6725.09
6004.22
5225.68
4389.47
1637.47
1571.91
1508.49
1447.07
)


20
(
10715.3
10686.7
10600.9
10457.8
10257.6
10000.1
9685.44
9313.54
8884.43
8398.11
7854.57
7253.81
6595.84
5880.66
5108.25
4278.63
1548.33
1483.29
1420.37
1359.43
)


20
(
10403.2
10375.3
10291.5
10151.8
9956.32
9704.96
9397.75
9034.67
8615.74
8140.95
7610.3
7023.79
6381.43
5683.2
4929.12
4119.18
1453.62
1390.13
1328.7
1269.21
)


20
(
9945.9
9919.1
9838.67
9704.62
9516.95
9275.66
8980.75
8632.22
8230.07
7774.3
7264.91
6701.91
6085.28
5415.02
4691.15
3913.66
1354.9
1293.95
1234.98
1177.88
)


20
(
9350.61
9325.34
9249.54
9123.2
8946.32
8718.91
8440.96
8112.47
7733.45
7303.89
6823.79
6293.16
5711.99
5080.28
4398.04
3665.26
1253.65
1196.2
1140.62
1086.8
)


20
(
8626.29
8602.96
8532.98
8416.34
8253.05
8043.1
7786.49
7483.23
7133.31
6736.73
6293.5
5803.62
5267.07
4683.87
4054.02
3377.5
1151.07
1098.03
1046.73
997.036
)


20
(
7783.29
7762.27
7699.21
7594.11
7446.98
7257.8
7026.58
6753.33
6438.03
6080.7
5681.33
5239.91
4756.46
4230.97
3663.43
3053.86
1047.73
999.941
953.709
908.937
)


20
(
6832.7
6814.32
6759.18
6667.28
6538.62
6373.2
6171.02
5932.08
5656.38
5343.92
4994.69
4608.71
4185.97
3726.47
3230.2
2697.18
942.967
901.18
860.754
821.604
)


20
(
5784.99
5769.54
5723.19
5645.94
5537.78
5398.73
5228.77
5027.92
4796.16
4533.5
4239.94
3915.48
3560.12
3173.85
2756.69
2308.62
834.008
798.881
764.899
731.989
)


20
(
4648.82
4636.54
4599.71
4538.32
4452.38
4341.89
4206.84
4047.23
3863.07
3654.35
3421.08
3163.25
2880.87
2573.94
2242.44
1886.4
714.631
686.719
659.715
633.564
)


20
(
3429.31
3420.4
3393.67
3349.12
3286.75
3206.55
3108.54
2992.7
2859.05
2707.57
2538.27
2351.15
2146.21
1923.45
1682.86
1424.46
574.039
553.781
534.183
515.204
)


20
(
2131.34
2125.93
2109.72
2082.71
2044.89
1996.26
1936.83
1866.59
1785.55
1693.69
1591.04
1477.57
1353.3
1218.23
1072.35
915.66
399.994
387.711
375.827
364.319
)


20
(
774.512
772.701
767.269
758.216
745.541
729.245
709.328
685.789
658.629
627.848
593.446
555.422
513.777
468.511
419.623
367.114
194.306
190.189
186.207
182.35
)


20
(
2419.51
2417.73
2412.37
2403.44
2390.95
2374.88
2355.24
2332.03
2305.25
2274.89
2240.97
2203.47
2162.4
2117.76
2069.54
2017.76
1847.32
1843.26
1839.33
1835.53
)


20
(
3605.75
3600.42
3584.43
3557.77
3520.46
3472.48
3413.84
3344.54
3264.57
3173.95
3072.66
2960.7
2838.09
2704.81
2560.86
2406.25
1897.43
1885.31
1873.59
1862.23
)


20
(
4751.85
4743.06
4716.68
4672.72
4611.17
4532.04
4435.33
4321.03
4189.14
4039.67
3872.61
3687.97
3485.74
3265.92
3028.52
2773.53
1934.35
1914.36
1895.02
1876.29
)


20
(
5840.12
5828.01
5791.66
5731.09
5646.28
5537.25
5403.98
5246.49
5064.76
4858.8
4628.61
4374.19
4095.54
3792.65
3465.54
3114.19
1957.89
1930.34
1903.7
1877.89
)


20
(
6853.73
6838.48
6792.74
6716.51
6609.78
6472.56
6304.85
6106.64
5877.94
5618.74
5329.05
5008.86
4658.18
4277.01
3865.34
3423.17
1967.99
1933.32
1899.79
1867.31
)


20
(
7776.94
7758.8
7704.39
7613.7
7486.74
7323.5
7123.98
6888.18
6616.12
6307.77
5963.15
5582.25
5165.07
4711.61
4221.88
3695.87
1964.75
1923.51
1883.62
1844.98
)


20
(
8595.42
8574.68
8512.45
8408.73
8263.53
8076.85
7848.67
7579.01
7267.87
6915.23
6521.11
6085.5
5608.41
5089.83
4529.76
3928.2
1948.44
1901.28
1855.66
1811.48
)


20
(
9296.42
9273.4
9204.34
9089.24
8928.09
8720.9
8467.67
8168.39
7823.08
7431.72
6994.32
6510.87
5981.39
5405.85
4784.28
4116.66
1919.5
1867.16
1816.53
1767.49
)


20
(
9869.03
9844.09
9769.29
9644.61
9470.06
9245.63
8971.34
8647.17
8273.13
7849.22
7375.43
6851.78
6278.25
5654.84
4981.57
4258.42
1878.5
1821.8
1766.96
1713.85
)


20
(
10304.3
10277.8
10198.5
10066.2
9880.98
9642.86
9351.83
9007.88
8611.02
8161.24
7658.54
7102.93
6494.4
5832.96
5118.6
4351.32
1826.18
1766.03
1707.84
1651.48
)


20
(
10595.4
10567.9
10485.2
10347.4
10154.4
9906.39
9603.21
9244.91
8831.48
8362.92
7839.25
7260.44
6626.51
5937.46
5193.28
4393.98
1763.44
1700.78
1640.16
1581.45
)


20
(
10737.9
10709.7
10625
10483.8
10286.2
10032.1
9721.57
9354.56
8931.09
8451.15
7914.74
7321.88
6672.55
5966.75
5204.49
4385.77
1691.31
1627.13
1565.04
1504.9
)


20
(
10729.5
10701
10615.7
10473.4
10274.2
10018.1
9705.08
9335.16
8908.31
8424.56
7883.89
7286.31
6631.82
5920.42
5152.1
4326.86
1610.99
1546.29
1483.71
1423.09
)


20
(
10570.4
10542.2
10457.5
10316.3
10118.7
9864.62
9554.07
9187.06
8763.58
8283.64
7747.24
7154.37
6505.03
5799.24
5036.98
4218.25
1523.78
1459.6
1397.51
1337.37
)


20
(
10263.2
10235.6
10153
10015.2
9822.22
9574.16
9270.97
8912.67
8499.23
8030.67
7506.99
6928.19
6294.25
5605.19
4861.01
4061.7
1431.14
1368.48
1307.86
1249.15
)


20
(
9812.79
9786.33
9706.96
9574.67
9389.46
9151.34
8860.3
8516.35
8119.48
7669.7
7166.99
6611.38
6002.84
5341.39
4627.02
3859.74
1334.57
1274.42
1216.22
1159.87
)


20
(
9226.15
9201.22
9126.41
9001.73
8827.17
8602.74
8328.44
8004.27
7630.22
7206.3
6732.51
6208.85
5635.31
5011.89
4338.61
3615.44
1235.49
1178.8
1123.95
1070.84
)


20
(
8512.14
8489.12
8420.06
8304.95
8143.8
7936.6
7683.36
7384.08
7038.76
6647.39
6209.98
5726.52
5197.02
4621.48
3999.89
3332.26
1135.06
1082.72
1032.08
983.046
)


20
(
7680.89
7660.15
7597.91
7494.2
7348.99
7162.3
6934.12
6664.45
6353.29
6000.65
5606.52
5170.9
4693.8
4175.2
3615.12
3013.55
1033.76
986.595
940.97
896.786
)


20
(
6743.29
6725.15
6670.74
6580.04
6453.07
6289.82
6090.3
5854.49
5582.41
5274.05
4929.42
4548.5
4131.31
3677.84
3188.09
2662.06
930.882
889.643
849.749
811.113
)


20
(
5709.65
5694.4
5648.66
5572.42
5465.69
5328.46
5160.73
4962.51
4733.8
4474.59
4184.88
3864.68
3513.98
3132.79
2721.1
2278.91
823.663
788.997
755.461
722.983
)


20
(
4588.51
4576.39
4540.05
4479.46
4394.65
4285.61
4152.33
3994.82
3813.07
3607.1
3376.89
3122.45
2843.77
2540.87
2213.73
1862.35
705.971
678.425
651.776
625.968
)


20
(
3385.04
3376.25
3349.87
3305.9
3244.35
3165.2
3068.48
2954.16
2822.26
2672.77
2505.7
2321.03
2118.78
1898.94
1661.52
1406.51
567.252
547.26
527.92
509.189
)


20
(
2104.22
2098.89
2082.89
2056.23
2018.91
1970.92
1912.26
1842.95
1762.97
1672.32
1571.01
1459.04
1336.4
1203.1
1059.13
904.502
395.606
383.483
371.756
360.399
)


20
(
765.405
763.618
758.257
749.323
736.814
720.732
701.076
677.847
651.043
620.666
586.715
549.191
508.092
463.42
415.175
363.355
192.815
188.753
184.823
181.017
)


20
(
2452.35
2450.55
2445.13
2436.11
2423.48
2407.24
2387.39
2363.94
2336.87
2306.19
2271.9
2234.01
2192.5
2147.38
2098.66
2046.32
1874.06
1869.96
1865.99
1862.15
)


20
(
3651.37
3645.98
3629.82
3602.88
3565.17
3516.68
3457.41
3387.37
3306.55
3214.96
3112.59
2999.44
2875.52
2740.82
2595.34
2439.09
1924.84
1912.59
1900.74
1889.26
)


20
(
4809.74
4800.86
4774.2
4729.77
4667.57
4587.59
4489.85
4374.33
4241.03
4089.97
3921.13
3734.52
3530.13
3307.98
3068.04
2810.34
1962.21
1942.01
1922.46
1903.53
)


20
(
5909.6
5897.36
5860.63
5799.41
5713.7
5603.5
5468.81
5309.64
5125.97
4917.82
4685.18
4428.04
4146.42
3840.31
3509.7
3154.61
1985.98
1958.14
1931.21
1905.13
)


20
(
6933.93
6918.52
6872.29
6795.24
6687.38
6548.69
6379.19
6178.87
5947.73
5685.77
5392.99
5069.39
4714.97
4329.74
3913.68
3466.8
1996.1
1961.06
1927.17
1894.35
)


20
(
7866.82
7848.49
7793.49
7701.84
7573.52
7408.54
7206.89
6968.59
6693.62
6381.98
6033.68
5648.72
5227.1
4768.81
4273.86
3742.24
1992.66
1950.98
1910.67
1871.62
)


20
(
8693.79
8672.82
8609.93
8505.11
8358.36
8169.68
7939.08
7666.54
7352.08
6995.69
6597.36
6157.11
5674.93
5150.82
4584.78
3976.81
1975.95
1928.28
1882.18
1837.52
)


20
(
9401.96
9378.7
9308.9
9192.57
9029.7
8820.3
8564.37
8261.91
7912.91
7517.38
7075.31
6586.72
6051.58
5469.91
4841.71
4166.98
1946.39
1893.49
1842.32
1792.76
)


20
(
9980.31
9955.1
9879.5
9753.49
9577.08
9350.26
9073.04
8745.42
8367.39
7938.96
7460.13
6930.89
6351.24
5721.19
5040.74
4309.88
1904.59
1847.29
1791.86
1738.18
)


20
(
10419.8
10393.1
10312.8
10179.1
9991.96
9751.3
9457.17
9109.55
8708.46
8253.88
7745.83
7184.29
6569.28
5900.78
5178.8
4403.35
1851.28
1790.49
1731.68
1674.72
)


20
(
10713.6
10685.7
10602.1
10462.9
10267.9
10017.2
9710.75
9348.62
8930.78
8457.24
7927.97
7343
6702.31
6005.92
5253.8
4445.98
1787.39
1724.06
1662.79
1603.46
)


20
(
10857
10828.5
10742.9
10600.2
10400.5
10143.7
9829.83
9458.91
9030.92
8545.86
8003.74
7404.56
6748.3
6034.98
5264.6
4437.14
1713.96
1649.09
1586.34
1525.56
)


20
(
10847.9
10819.2
10732.9
10589.1
10387.8
10128.9
9812.59
9438.71
9007.32
8518.41
7971.98
7368.03
6706.56
5987.57
5211.06
4377.03
1632.2
1566.81
1503.56
1442.3
)


20
(
10686.5
10658
10572.4
10429.7
10230
9973.19
9659.33
9288.41
8860.42
8375.36
7833.24
7234.05
6577.79
5864.47
5094.08
4266.62
1543.43
1478.56
1415.81
1355.03
)


20
(
10375.4
10347.5
10263.9
10124.7
9929.67
9678.96
9372.55
9010.42
8592.58
8119.03
7589.76
7004.78
6364.09
5667.69
4915.57
4107.74
1449.14
1385.8
1324.54
1265.2
)


20
(
9919.44
9892.7
9812.48
9678.78
9491.6
9250.94
8956.8
8609.18
8208.08
7753.5
7245.44
6683.9
6068.88
5400.37
4678.39
3902.92
1350.84
1290.04
1231.23
1174.27
)


20
(
9325.87
9300.66
9225.06
9099.05
8922.63
8695.81
8418.59
8090.96
7712.92
7284.48
6805.64
6276.39
5696.73
5066.67
4386.21
3655.34
1250.01
1192.71
1137.28
1083.6
)


20
(
8603.6
8580.33
8510.53
8394.19
8231.32
8021.92
7765.98
7463.51
7114.5
6718.96
6276.89
5788.28
5253.13
4671.45
4043.24
3368.49
1147.86
1094.96
1043.79
994.229
)


20
(
7762.93
7741.96
7679.07
7574.25
7427.49
7238.81
7008.2
6735.65
6421.18
6064.78
5666.44
5226.18
4743.99
4219.87
3653.81
3045.83
1044.93
997.263
951.153
906.497
)


20
(
6814.92
6796.59
6741.59
6649.93
6521.61
6356.62
6154.96
5916.65
5641.66
5330.02
4981.71
4596.73
4175.09
3716.78
3221.81
2690.18
940.542
898.864
858.544
819.496
)


20
(
5770.01
5754.6
5708.37
5631.31
5523.44
5384.75
5215.24
5014.91
4783.75
4521.78
4228.98
3905.37
3550.93
3165.67
2749.59
2302.69
831.93
796.894
763.001
730.176
)


20
(
4636.82
4624.58
4587.84
4526.61
4440.9
4330.69
4195.99
4036.8
3853.12
3644.94
3412.28
3155.13
2873.48
2567.35
2236.72
1881.6
712.888
685.048
658.115
632.032
)


20
(
3420.5
3411.61
3384.95
3340.51
3278.3
3198.32
3100.56
2985.03
2851.72
2700.64
2531.78
2345.15
2140.74
1918.56
1678.6
1420.87
572.669
552.464
532.917
513.987
)


20
(
2125.93
2120.55
2104.38
2077.43
2039.71
1991.21
1931.93
1861.88
1781.05
1689.43
1587.04
1473.88
1349.93
1215.21
1069.71
913.428
399.106
386.855
375.002
363.524
)


20
(
772.7
770.895
765.477
756.447
743.805
727.552
707.686
684.209
657.12
626.419
592.106
554.182
512.645
467.497
418.737
366.365
194.007
189.901
185.929
182.083
)


20
(
2452.35
2450.55
2445.13
2436.11
2423.48
2407.24
2387.39
2363.94
2336.87
2306.19
2271.9
2234.01
2192.5
2147.38
2098.66
2046.32
1874.06
1869.96
1865.99
1862.15
)


20
(
3651.37
3645.98
3629.82
3602.88
3565.17
3516.68
3457.41
3387.37
3306.55
3214.96
3112.59
2999.44
2875.52
2740.82
2595.34
2439.09
1924.84
1912.59
1900.74
1889.26
)


20
(
4809.74
4800.86
4774.2
4729.77
4667.57
4587.59
4489.85
4374.33
4241.03
4089.97
3921.13
3734.52
3530.14
3307.98
3068.04
2810.34
1962.21
1942.01
1922.46
1903.53
)


20
(
5909.6
5897.36
5860.63
5799.41
5713.7
5603.5
5468.81
5309.64
5125.97
4917.82
4685.18
4428.04
4146.42
3840.31
3509.7
3154.61
1985.98
1958.14
1931.21
1905.13
)


20
(
6933.92
6918.52
6872.29
6795.24
6687.38
6548.69
6379.19
6178.87
5947.73
5685.77
5392.99
5069.39
4714.97
4329.74
3913.68
3466.8
1996.1
1961.06
1927.17
1894.35
)


20
(
7866.82
7848.49
7793.49
7701.84
7573.52
7408.54
7206.89
6968.59
6693.62
6381.98
6033.68
5648.72
5227.1
4768.81
4273.86
3742.24
1992.66
1950.98
1910.67
1871.62
)


20
(
8693.79
8672.82
8609.93
8505.11
8358.36
8169.68
7939.08
7666.54
7352.08
6995.69
6597.36
6157.11
5674.93
5150.82
4584.78
3976.81
1975.95
1928.28
1882.18
1837.52
)


20
(
9401.96
9378.7
9308.9
9192.56
9029.7
8820.3
8564.37
8261.91
7912.91
7517.38
7075.31
6586.71
6051.58
5469.91
4841.71
4166.98
1946.39
1893.49
1842.32
1792.76
)


20
(
9980.31
9955.1
9879.5
9753.49
9577.08
9350.26
9073.04
8745.42
8367.39
7938.96
7460.13
6930.89
6351.24
5721.19
5040.74
4309.88
1904.59
1847.29
1791.86
1738.18
)


20
(
10419.8
10393.1
10312.8
10179.1
9991.96
9751.3
9457.17
9109.55
8708.46
8253.88
7745.83
7184.29
6569.28
5900.78
5178.8
4403.35
1851.28
1790.49
1731.68
1674.72
)


20
(
10713.6
10685.7
10602.1
10462.9
10267.9
10017.2
9710.75
9348.62
8930.78
8457.24
7927.97
7343
6702.31
6005.91
5253.8
4445.98
1787.39
1724.06
1662.79
1603.46
)


20
(
10857
10828.5
10742.9
10600.2
10400.5
10143.7
9829.83
9458.91
9030.92
8545.86
8003.74
7404.56
6748.3
6034.98
5264.6
4437.14
1713.96
1649.09
1586.34
1525.56
)


20
(
10847.9
10819.2
10732.9
10589.1
10387.8
10128.9
9812.59
9438.71
9007.32
8518.41
7971.98
7368.03
6706.56
5987.57
5211.06
4377.03
1632.2
1566.81
1503.56
1442.3
)


20
(
10686.5
10658
10572.4
10429.7
10230
9973.19
9659.33
9288.41
8860.41
8375.36
7833.23
7234.05
6577.79
5864.47
5094.08
4266.62
1543.43
1478.56
1415.81
1355.03
)


20
(
10375.4
10347.5
10263.9
10124.7
9929.67
9678.96
9372.55
9010.42
8592.58
8119.03
7589.76
7004.78
6364.09
5667.69
4915.57
4107.74
1449.14
1385.8
1324.54
1265.2
)


20
(
9919.44
9892.7
9812.48
9678.78
9491.6
9250.94
8956.8
8609.18
8208.08
7753.5
7245.44
6683.9
6068.88
5400.37
4678.39
3902.92
1350.84
1290.04
1231.23
1174.27
)


20
(
9325.87
9300.66
9225.06
9099.05
8922.63
8695.81
8418.58
8090.96
7712.92
7284.48
6805.64
6276.39
5696.73
5066.67
4386.21
3655.34
1250.01
1192.71
1137.28
1083.6
)


20
(
8603.6
8580.33
8510.53
8394.19
8231.32
8021.92
7765.98
7463.51
7114.5
6718.96
6276.89
5788.28
5253.13
4671.45
4043.24
3368.49
1147.86
1094.96
1043.79
994.229
)


20
(
7762.93
7741.96
7679.07
7574.25
7427.49
7238.81
7008.2
6735.65
6421.18
6064.78
5666.44
5226.18
4743.99
4219.87
3653.81
3045.83
1044.93
997.263
951.153
906.497
)


20
(
6814.92
6796.59
6741.59
6649.93
6521.61
6356.62
6154.96
5916.65
5641.66
5330.02
4981.71
4596.73
4175.09
3716.78
3221.81
2690.18
940.542
898.864
858.543
819.496
)


20
(
5770.01
5754.6
5708.37
5631.31
5523.44
5384.75
5215.24
5014.91
4783.75
4521.78
4228.98
3905.37
3550.93
3165.67
2749.59
2302.69
831.93
796.894
763
730.176
)


20
(
4636.82
4624.58
4587.84
4526.61
4440.9
4330.69
4195.99
4036.8
3853.12
3644.95
3412.28
3155.13
2873.48
2567.35
2236.72
1881.6
712.888
685.048
658.115
632.032
)


20
(
3420.5
3411.61
3384.95
3340.52
3278.3
3198.32
3100.56
2985.03
2851.72
2700.64
2531.78
2345.15
2140.74
1918.56
1678.6
1420.87
572.669
552.464
532.917
513.987
)


20
(
2125.93
2120.55
2104.38
2077.43
2039.71
1991.21
1931.93
1861.88
1781.04
1689.43
1587.04
1473.88
1349.93
1215.21
1069.71
913.428
399.106
386.855
375.002
363.524
)


20
(
772.701
770.895
765.477
756.447
743.805
727.552
707.686
684.209
657.12
626.419
592.106
554.182
512.645
467.497
418.737
366.365
194.007
189.901
185.929
182.083
)


20
(
2419.51
2417.73
2412.37
2403.45
2390.95
2374.88
2355.24
2332.03
2305.25
2274.9
2240.97
2203.47
2162.4
2117.76
2069.55
2017.76
1847.32
1843.26
1839.33
1835.53
)


20
(
3605.75
3600.42
3584.43
3557.78
3520.46
3472.48
3413.84
3344.54
3264.57
3173.95
3072.66
2960.7
2838.09
2704.81
2560.86
2406.26
1897.43
1885.31
1873.59
1862.23
)


20
(
4751.85
4743.06
4716.68
4672.72
4611.18
4532.04
4435.33
4321.03
4189.14
4039.67
3872.61
3687.97
3485.74
3265.92
3028.52
2773.53
1934.35
1914.36
1895.02
1876.3
)


20
(
5840.13
5828.01
5791.67
5731.09
5646.29
5537.25
5403.98
5246.49
5064.76
4858.8
4628.61
4374.19
4095.54
3792.66
3465.54
3114.19
1957.89
1930.35
1903.7
1877.89
)


20
(
6853.73
6838.48
6792.74
6716.51
6609.78
6472.56
6304.85
6106.64
5877.94
5618.74
5329.05
5008.87
4658.19
4277.01
3865.34
3423.17
1967.99
1933.32
1899.79
1867.31
)


20
(
7776.94
7758.81
7704.39
7613.7
7486.74
7323.5
7123.98
6888.19
6616.12
6307.77
5963.15
5582.25
5165.07
4711.61
4221.88
3695.87
1964.75
1923.51
1883.62
1844.98
)


20
(
8595.42
8574.68
8512.45
8408.73
8263.53
8076.85
7848.67
7579.01
7267.87
6915.23
6521.11
6085.51
5608.41
5089.83
4529.76
3928.2
1948.45
1901.29
1855.66
1811.48
)


20
(
9296.42
9273.4
9204.34
9089.24
8928.09
8720.9
8467.67
8168.4
7823.08
7431.72
6994.32
6510.87
5981.39
5405.86
4784.28
4116.66
1919.5
1867.16
1816.53
1767.49
)


20
(
9869.03
9844.1
9769.29
9644.61
9470.06
9245.63
8971.34
8647.17
8273.13
7849.22
7375.44
6851.78
6278.25
5654.84
4981.57
4258.42
1878.5
1821.81
1766.96
1713.85
)


20
(
10304.3
10277.8
10198.5
10066.2
9880.98
9642.86
9351.83
9007.88
8611.02
8161.24
7658.54
7102.93
6494.41
5832.96
5118.6
4351.32
1826.18
1766.03
1707.84
1651.48
)


20
(
10595.4
10567.9
10485.2
10347.4
10154.5
9906.39
9603.21
9244.91
8831.48
8362.93
7839.25
7260.44
6626.52
5937.46
5193.28
4393.98
1763.44
1700.78
1640.16
1581.45
)


20
(
10737.9
10709.7
10625
10483.8
10286.2
10032.1
9721.57
9354.56
8931.09
8451.15
7914.75
7321.88
6672.55
5966.75
5204.49
4385.77
1691.32
1627.13
1565.04
1504.9
)


20
(
10729.5
10701
10615.7
10473.4
10274.2
10018.1
9705.08
9335.16
8908.31
8424.56
7883.89
7286.31
6631.82
5920.42
5152.1
4326.86
1610.99
1546.29
1483.71
1423.09
)


20
(
10570.4
10542.2
10457.5
10316.3
10118.7
9864.62
9554.07
9187.06
8763.58
8283.64
7747.24
7154.37
6505.04
5799.24
5036.98
4218.25
1523.79
1459.6
1397.51
1337.37
)


20
(
10263.2
10235.6
10153
10015.2
9822.22
9574.16
9270.97
8912.67
8499.23
8030.68
7506.99
6928.19
6294.25
5605.2
4861.01
4061.7
1431.15
1368.48
1307.86
1249.15
)


20
(
9812.79
9786.33
9706.96
9574.67
9389.46
9151.34
8860.3
8516.35
8119.48
7669.7
7167
6611.38
6002.84
5341.39
4627.02
3859.74
1334.57
1274.42
1216.23
1159.87
)


20
(
9226.16
9201.22
9126.41
9001.73
8827.17
8602.75
8328.45
8004.27
7630.23
7206.31
6732.51
6208.85
5635.31
5011.89
4338.61
3615.45
1235.49
1178.8
1123.95
1070.84
)


20
(
8512.14
8489.12
8420.06
8304.95
8143.8
7936.6
7683.37
7384.08
7038.76
6647.39
6209.98
5726.52
5197.02
4621.48
3999.89
3332.26
1135.06
1082.72
1032.08
983.047
)


20
(
7680.89
7660.15
7597.92
7494.2
7348.99
7162.3
6934.12
6664.45
6353.3
6000.65
5606.52
5170.9
4693.8
4175.2
3615.12
3013.55
1033.76
986.595
940.971
896.787
)


20
(
6743.29
6725.15
6670.74
6580.04
6453.07
6289.82
6090.3
5854.49
5582.41
5274.05
4929.42
4548.5
4131.31
3677.84
3188.09
2662.06
930.883
889.644
849.749
811.113
)


20
(
5709.65
5694.4
5648.66
5572.42
5465.69
5328.46
5160.73
4962.51
4733.8
4474.59
4184.88
3864.68
3513.98
3132.79
2721.1
2278.91
823.663
788.998
755.461
722.983
)


20
(
4588.51
4576.4
4540.05
4479.47
4394.65
4285.61
4152.33
3994.82
3813.07
3607.1
3376.89
3122.45
2843.77
2540.87
2213.73
1862.35
705.972
678.426
651.777
625.969
)


20
(
3385.04
3376.25
3349.87
3305.9
3244.35
3165.21
3068.48
2954.16
2822.26
2672.77
2505.7
2321.03
2118.78
1898.95
1661.52
1406.51
567.253
547.261
527.92
509.19
)


20
(
2104.22
2098.89
2082.89
2056.23
2018.91
1970.92
1912.26
1842.95
1762.97
1672.32
1571.01
1459.04
1336.4
1203.1
1059.13
904.502
395.606
383.484
371.756
360.399
)


20
(
765.405
763.618
758.257
749.323
736.815
720.732
701.077
677.847
651.044
620.666
586.716
549.191
508.093
463.421
415.175
363.355
192.816
188.753
184.823
181.017
)


20
(
2460.28
2458.47
2453.04
2443.99
2431.33
2415.05
2395.15
2371.63
2344.49
2313.74
2279.36
2241.36
2199.75
2154.51
2105.66
2053.18
1880.48
1876.36
1872.38
1868.53
)


20
(
3662.48
3657.08
3640.88
3613.87
3576.06
3527.44
3468.02
3397.8
3316.77
3224.93
3122.3
3008.86
2884.61
2749.56
2603.7
2447.03
1931.44
1919.16
1907.28
1895.77
)


20
(
4823.93
4815.02
4788.29
4743.74
4681.38
4601.19
4503.19
4387.37
4253.73
4102.27
3932.99
3745.89
3540.97
3318.23
3077.67
2819.29
1968.95
1948.69
1929.1
1910.12
)


20
(
5926.68
5914.4
5877.58
5816.19
5730.26
5619.78
5484.74
5325.15
5141
4932.3
4699.05
4441.25
4158.89
3851.97
3520.51
3164.49
1992.8
1964.89
1937.89
1911.74
)


20
(
6953.68
6938.23
6891.88
6814.63
6706.49
6567.44
6397.5
6196.65
5964.91
5702.26
5408.72
5084.27
4728.93
4342.68
3925.54
3477.49
2002.94
1967.82
1933.84
1900.93
)


20
(
7888.99
7870.61
7815.48
7723.58
7594.93
7429.51
7227.34
6988.41
6712.72
6400.28
6051.07
5665.1
5242.37
4782.89
4286.64
3753.63
1999.48
1957.7
1917.27
1878.12
)


20
(
8718.09
8697.07
8634.01
8528.92
8381.78
8192.61
7961.4
7688.16
7372.87
7015.55
6616.18
6174.78
5691.34
5165.86
4598.34
3988.78
1982.69
1934.9
1888.67
1843.9
)


20
(
9428.06
9404.73
9334.75
9218.11
9054.82
8844.88
8588.28
8285.02
7935.11
7538.55
7095.33
6605.45
6068.92
5485.73
4855.89
4179.39
1953
1899.96
1848.66
1798.97
)


20
(
10007.8
9982.57
9906.77
9780.43
9603.56
9376.15
9098.21
8769.73
8390.71
7961.16
7481.08
6950.45
6369.29
5737.59
5055.36
4322.59
1911.01
1853.57
1797.99
1744.17
)


20
(
10448.4
10421.6
10341.1
10207.1
10019.4
9778.15
9483.25
9134.72
8732.58
8276.82
7767.43
7204.43
6587.81
5917.57
5193.7
4416.22
1857.48
1796.53
1737.57
1680.46
)


20
(
10742.8
10714.9
10631.1
10491.5
10296
10044.6
9737.39
9374.31
8955.38
8480.6
7949.95
7363.45
6721.09
6022.87
5268.79
4458.86
1793.32
1729.82
1668.4
1608.91
)


20
(
10886.5
10857.9
10772.1
10629.1
10428.8
10171.3
9856.66
9484.77
9055.66
8569.34
8025.8
7425.05
6767.08
6051.9
5279.5
4449.88
1719.58
1654.54
1591.62
1530.69
)


20
(
10877.3
10848.4
10761.9
10617.8
10415.9
10156.4
9839.24
9464.39
9031.87
8541.68
7993.82
7388.29
6725.09
6004.22
5225.68
4389.47
1637.47
1571.91
1508.49
1447.07
)


20
(
10715.3
10686.7
10600.9
10457.8
10257.6
10000.1
9685.44
9313.54
8884.43
8398.11
7854.57
7253.81
6595.84
5880.66
5108.25
4278.63
1548.33
1483.29
1420.37
1359.43
)


20
(
10403.2
10375.3
10291.5
10151.8
9956.32
9704.96
9397.75
9034.67
8615.74
8140.95
7610.3
7023.79
6381.43
5683.2
4929.12
4119.18
1453.62
1390.13
1328.7
1269.21
)


20
(
9945.91
9919.1
9838.67
9704.62
9516.95
9275.66
8980.75
8632.22
8230.07
7774.3
7264.92
6701.91
6085.28
5415.02
4691.15
3913.66
1354.9
1293.95
1234.98
1177.88
)


20
(
9350.61
9325.34
9249.54
9123.2
8946.32
8718.91
8440.96
8112.47
7733.45
7303.89
6823.79
6293.16
5711.99
5080.28
4398.04
3665.26
1253.65
1196.2
1140.62
1086.8
)


20
(
8626.29
8602.96
8532.98
8416.34
8253.05
8043.1
7786.49
7483.23
7133.31
6736.73
6293.5
5803.62
5267.07
4683.87
4054.02
3377.5
1151.07
1098.03
1046.72
997.036
)


20
(
7783.29
7762.27
7699.21
7594.11
7446.98
7257.8
7026.58
6753.33
6438.03
6080.7
5681.33
5239.91
4756.46
4230.97
3663.43
3053.86
1047.73
999.941
953.709
908.937
)


20
(
6832.7
6814.32
6759.18
6667.28
6538.62
6373.2
6171.02
5932.08
5656.38
5343.92
4994.69
4608.71
4185.97
3726.47
3230.2
2697.18
942.967
901.18
860.754
821.604
)


20
(
5784.99
5769.54
5723.19
5645.94
5537.78
5398.73
5228.77
5027.92
4796.16
4533.5
4239.94
3915.48
3560.12
3173.85
2756.69
2308.62
834.008
798.881
764.899
731.989
)


20
(
4648.82
4636.54
4599.71
4538.33
4452.38
4341.89
4206.84
4047.23
3863.07
3654.35
3421.08
3163.26
2880.87
2573.94
2242.45
1886.4
714.632
686.719
659.715
633.564
)


20
(
3429.31
3420.4
3393.67
3349.12
3286.75
3206.55
3108.54
2992.7
2859.05
2707.57
2538.27
2351.15
2146.21
1923.45
1682.86
1424.46
574.039
553.781
534.183
515.204
)


20
(
2131.34
2125.93
2109.72
2082.71
2044.89
1996.26
1936.83
1866.59
1785.55