/*--------------------------------*- C++ -*----------------------------------*\
| =========                 |                                                 |
| \\      /  F ield         | OpenFOAM: The Open Source CFD Toolbox           |
|  \\    /   O peration     | Version:  2212                                  |
|   \\  /    A nd           | Website:  www.openfoam.com                      |
|    \\/     M anipulation  |                                                 |
\*---------------------------------------------------------------------------*/
FoamFile
{
    version     2.0;
    format      ascii;
    arch        "LSB;label=32;scalar=64";
    class       volVectorField;
    location    "71/fluidRegion";
    object      U;
}
// * * * * * * * * * * * * * * * * * * * * * * * * * * * * * * * * * * * * * //

dimensions      [0 1 -1 0 0 0 0];

internalField   nonuniform List<vector> 
350
(
(2.37017e-09 1.36842e-09 -14.9701)
(2.76419e-09 1.5959e-09 -14.9686)
(1.97351e-09 1.13941e-09 -14.9671)
(6.35811e-10 3.67085e-10 -14.9654)
(-9.01579e-10 -5.20525e-10 -14.9636)
(-2.29697e-09 -1.32615e-09 -14.9619)
(-3.14639e-09 -1.81656e-09 -14.9602)
(-3.19362e-09 -1.84383e-09 -14.9586)
(-2.4447e-09 -1.41144e-09 -14.9572)
(-1.14911e-09 -6.63437e-10 -14.9559)
(2.72399e-10 1.57269e-10 -14.9548)
(1.34904e-09 7.78866e-10 -14.9536)
(1.79549e-09 1.03662e-09 -14.9526)
(1.62043e-09 9.35553e-10 -14.9515)
(1.05198e-09 6.0736e-10 -14.9505)
(4.16627e-10 2.40539e-10 -14.9495)
(-1.0458e-10 -6.03791e-11 -14.9486)
(-4.66414e-10 -2.69284e-10 -14.9477)
(-7.20932e-10 -4.16229e-10 -14.9467)
(-9.44345e-10 -5.45216e-10 -14.9456)
(-1.14434e-09 -6.60681e-10 -14.9444)
(-1.19514e-09 -6.90014e-10 -14.9431)
(-9.40432e-10 -5.42957e-10 -14.9417)
(-6.55681e-12 -3.78557e-12 -14.9403)
(1.52828e-09 8.82351e-10 -14.9698)
(2.37017e-09 1.36842e-09 -14.9701)
(2.76419e-09 1.5959e-09 -14.9686)
(1.97351e-09 1.13941e-09 -14.9671)
(6.35811e-10 3.67085e-10 -14.9654)
(-9.01579e-10 -5.20525e-10 -14.9636)
(-2.29697e-09 -1.32615e-09 -14.9619)
(-3.14639e-09 -1.81656e-09 -14.9602)
(-3.19362e-09 -1.84383e-09 -14.9586)
(-2.4447e-09 -1.41144e-09 -14.9572)
(-1.14911e-09 -6.63437e-10 -14.9559)
(2.72399e-10 1.57269e-10 -14.9548)
(1.34904e-09 7.78866e-10 -14.9536)
(1.79549e-09 1.03662e-09 -14.9526)
(1.62043e-09 9.35553e-10 -14.9515)
(1.05198e-09 6.0736e-10 -14.9505)
(4.16627e-10 2.40539e-10 -14.9495)
(-1.0458e-10 -6.03791e-11 -14.9486)
(-4.66414e-10 -2.69284e-10 -14.9477)
(-7.20932e-10 -4.16229e-10 -14.9467)
(-9.44345e-10 -5.45216e-10 -14.9456)
(-1.14434e-09 -6.60681e-10 -14.9444)
(-1.19514e-09 -6.90014e-10 -14.9431)
(-9.40432e-10 -5.42957e-10 -14.9417)
(-6.55682e-12 -3.78557e-12 -14.9403)
(1.52828e-09 8.82351e-10 -14.9698)
(-0.00197673 -0.00114126 -423.819)
(-0.00093915 -0.000542218 -415.829)
(-0.0010175 -0.000587456 -405.725)
(-0.000915742 -0.000528703 -393.295)
(-0.000829052 -0.000478653 -378.734)
(-0.00074874 -0.000432285 -362.245)
(-0.000674349 -0.000389335 -344.035)
(-0.000602217 -0.00034769 -324.321)
(-0.000524307 -0.000302708 -303.322)
(-0.000427407 -0.000246763 -281.267)
(-0.000294922 -0.000170273 -258.394)
(-0.000110537 -6.38187e-05 -234.96)
(0.0001306 7.54018e-05 -211.246)
(0.000409085 0.000236185 -187.563)
(0.000693433 0.000400353 -164.251)
(0.000935881 0.000540331 -141.662)
(0.00109902 0.00063452 -120.143)
(0.00117282 0.000677126 -100.009)
(0.00117637 0.000679174 -81.5289)
(0.0011437 0.000660314 -64.9227)
(0.00110537 0.000638186 -50.3822)
(0.00106871 0.00061702 -38.0953)
(0.00101867 0.000588127 -28.2706)
(0.000883823 0.000510275 -21.1346)
(0.000841552 0.00048587 -16.6338)
(-0.00192752 -0.00110507 -426.552)
(-0.000707547 -0.000378444 -418.52)
(-0.000799156 -0.000430156 -408.383)
(-0.000729779 -0.000387574 -395.9)
(-0.000671201 -0.000351276 -381.268)
(-0.000617136 -0.000317014 -364.691)
(-0.000567074 -0.00028461 -346.38)
(-0.000518146 -0.000252786 -326.55)
(-0.000464546 -0.000217851 -305.422)
(-0.00039679 -0.00017429 -283.225)
(-0.000303365 -0.000115689 -260.199)
(-0.000172516 -3.58249e-05 -236.602)
(-6.59557e-07 6.87689e-05 -212.715)
(0.000191655 0.000185609 -188.853)
(0.000387023 0.000304598 -165.357)
(0.000551558 0.000406089 -142.586)
(0.000660418 0.000475915 -120.893)
(0.000708015 0.00051033 -100.596)
(0.000707947 0.000517241 -81.9684)
(0.000684455 0.00050838 -65.2337)
(0.000658491 0.00049577 -50.5853)
(0.000638985 0.000478992 -38.2126)
(0.000619234 0.000457085 -28.3257)
(0.000568311 0.000403901 -21.1516)
(0.000607 0.000389136 -16.6358)
(-0.000889031 -0.000651044 -423.382)
(-0.00052185 -0.000945337 -415.391)
(-0.000509554 -0.000903312 -405.294)
(-0.000466067 -0.000792632 -392.875)
(-0.000425548 -0.00069515 -378.326)
(-0.000388515 -0.000605082 -361.852)
(-0.000353784 -0.000521814 -343.66)
(-0.000318594 -0.000441363 -323.966)
(-0.00027745 -0.000354769 -302.988)
(-0.000222222 -0.000247321 -280.956)
(-0.00014357 -9.9783e-05 -258.108)
(-3.47727e-05 0.000104395 -234.701)
(0.000106984 0.00036932 -211.014)
(0.000260322 0.000686148 -187.361)
(0.000411189 0.00100886 -164.077)
(0.000532206 0.00128432 -141.516)
(0.000606194 0.00146863 -120.024)
(0.000631991 0.00154949 -99.9162)
(0.000622734 0.00154926 -81.4583)
(0.000597601 0.00150689 -64.8715)
(0.000570683 0.00145645 -50.3472)
(0.000547559 0.00140056 -38.0731)
(0.000511099 0.00130489 -28.2576)
(0.000448488 0.00105849 -21.1277)
(0.000393688 0.000833458 -16.6315)
(-0.00098226 -0.000567107 -425.943)
(-0.000923995 -0.000533467 -417.921)
(-0.000890508 -0.000514133 -407.789)
(-0.000794039 -0.000458437 -395.317)
(-0.000707745 -0.000408616 -380.7)
(-0.000628154 -0.000362664 -364.141)
(-0.00055403 -0.000319869 -345.852)
(-0.000481302 -0.000277879 -326.047)
(-0.000400734 -0.000231363 -304.948)
(-0.000297944 -0.000172017 -282.782)
(-0.000155173 -8.9589e-05 -259.79)
(4.21983e-05 2.43631e-05 -236.229)
(0.000298597 0.000172395 -212.381)
(0.000594726 0.000343364 -188.56)
(0.000893124 0.000515644 -165.105)
(0.00114319 0.000660019 -142.376)
(0.0013065 0.000754303 -120.721)
(0.00137445 0.000793534 -100.462)
(0.00136932 0.000790573 -81.8681)
(0.00132729 0.00076631 -65.1628)
(0.00127845 0.000738114 -50.5392)
(0.00122814 0.000709067 -38.1862)
(0.00114433 0.000660679 -28.3135)
(0.000949464 0.000548171 -21.1483)
(0.000772847 0.000446202 -16.6356)
(0.000948773 0.000547773 -425.943)
(0.000908389 0.000524458 -417.921)
(0.000872767 0.000503891 -407.789)
(0.000776299 0.000448196 -395.317)
(0.00068962 0.000398151 -380.7)
(0.000610118 0.000352251 -364.141)
(0.000536815 0.00030993 -345.852)
(0.000465121 0.000268537 -326.047)
(0.000386371 0.000223071 -304.948)
(0.000286324 0.000165309 -282.782)
(0.000146773 8.47391e-05 -259.79)
(-4.69042e-05 -2.70801e-05 -236.229)
(-0.000298546 -0.000172365 -212.381)
(-0.000589213 -0.000340182 -188.56)
(-0.000881367 -0.000508856 -165.105)
(-0.00112482 -0.000649413 -142.376)
(-0.00128188 -0.000740089 -120.721)
(-0.00134462 -0.000776316 -100.462)
(-0.00133519 -0.000770871 -81.8681)
(-0.00129059 -0.000745123 -65.1628)
(-0.00124095 -0.00071646 -50.5392)
(-0.00119151 -0.000687916 -38.1862)
(-0.00110949 -0.000640564 -28.3135)
(-0.000921667 -0.000532123 -21.1483)
(-0.000752814 -0.000434636 -16.6356)
(0.000988634 0.000442061 -423.382)
(0.00107403 -3.42132e-05 -415.391)
(0.00103005 -2.4158e-05 -405.294)
(0.000912651 -7.53112e-06 -392.875)
(0.000808095 4.57382e-06 -378.327)
(0.000711998 1.58793e-05 -361.852)
(0.000623309 2.56951e-05 -343.66)
(0.000537062 3.3349e-05 -323.966)
(0.000442945 3.88822e-05 -302.989)
(0.000324201 4.25691e-05 -280.957)
(0.000159373 4.57494e-05 -258.108)
(-6.94528e-05 5.11337e-05 -234.701)
(-0.000366549 5.76906e-05 -211.015)
(-0.000714104 8.06066e-05 -187.361)
(-0.00106522 0.000108967 -164.077)
(-0.00136043 0.000140133 -141.516)
(-0.00155345 0.000167057 -120.024)
(-0.00163341 0.000184999 -99.9162)
(-0.00162628 0.000194522 -81.4583)
(-0.00157587 0.000198754 -64.8715)
(-0.00151861 0.000202393 -50.3472)
(-0.00145989 0.000202305 -38.073)
(-0.00136099 0.000196012 -28.2576)
(-0.00112167 0.000134951 -21.1277)
(-0.000904683 7.45101e-05 -16.6315)
(0.00190591 0.00113628 -426.552)
(0.000681188 0.00041579 -418.52)
(0.000770952 0.000470416 -408.383)
(0.000700084 0.000430162 -395.9)
(0.000639913 0.000395801 -381.268)
(0.000584171 0.000363832 -364.691)
(0.000532525 0.000333793 -346.38)
(0.000482232 0.000303818 -326.55)
(0.00042755 0.000270674 -305.422)
(0.000358968 0.00022881 -283.225)
(0.000264959 0.00017146 -260.199)
(0.000133794 9.24833e-05 -236.602)
(-3.72454e-05 -1.2068e-05 -212.715)
(-0.000228299 -0.00012856 -188.853)
(-0.000421279 -0.00024724 -165.357)
(-0.000581975 -0.000348449 -142.586)
(-0.000685285 -0.000417745 -120.893)
(-0.000724817 -0.000451618 -100.596)
(-0.000712977 -0.000457667 -81.9684)
(-0.00067252 -0.000449873 -65.2337)
(-0.000624603 -0.000439596 -50.5853)
(-0.000579445 -0.000430852 -38.2126)
(-0.000535341 -0.000416019 -28.3257)
(-0.000476101 -0.000377384 -21.1516)
(-0.000518609 -0.000388816 -16.6358)
(0.0019759 0.00114079 -423.819)
(0.000937958 0.00054153 -415.829)
(0.0010163 0.000586759 -405.725)
(0.000914511 0.000527993 -393.295)
(0.000827677 0.000477859 -378.734)
(0.000747279 0.000431441 -362.245)
(0.000672848 0.000388469 -344.035)
(0.000600652 0.000346786 -324.321)
(0.000522775 0.000301824 -303.322)
(0.000425977 0.000245938 -281.267)
(0.000293565 0.00016949 -258.394)
(0.000109358 6.31381e-05 -234.96)
(-0.000131367 -7.58446e-05 -211.246)
(-0.000409229 -0.000236269 -187.563)
(-0.000692467 -0.000399796 -164.251)
(-0.000933205 -0.000538786 -141.662)
(-0.00109384 -0.000631528 -120.143)
(-0.001164 -0.000672034 -100.009)
(-0.00116214 -0.000670959 -81.529)
(-0.00112208 -0.00064783 -64.9227)
(-0.00107399 -0.000620071 -50.3822)
(-0.00102694 -0.000592904 -38.0953)
(-0.000965885 -0.000557653 -28.2706)
(-0.000829956 -0.000479175 -21.1346)
(-0.000795425 -0.000459238 -16.6338)
(0.000961373 0.000555047 -425.943)
(0.000899339 0.000519232 -417.921)
(0.000864425 0.000499074 -407.789)
(0.000766691 0.000442648 -395.317)
(0.000678685 0.000391838 -380.7)
(0.00059745 0.000344937 -364.141)
(0.000521963 0.000301354 -345.852)
(0.000447755 0.000258511 -326.047)
(0.000365987 0.000211302 -304.948)
(0.000262348 0.000151466 -282.782)
(0.000118748 6.85592e-05 -259.79)
(-7.90495e-05 -4.56392e-05 -236.229)
(-0.000336343 -0.000194187 -212.381)
(-0.000633221 -0.000365589 -188.56)
(-0.000932576 -0.000538422 -165.105)
(-0.00118438 -0.000683802 -142.376)
(-0.00135146 -0.000780264 -120.721)
(-0.00142618 -0.000823403 -100.462)
(-0.00143177 -0.00082663 -81.8681)
(-0.00140494 -0.000811139 -65.1628)
(-0.00137612 -0.000794501 -50.5392)
(-0.00134445 -0.000776218 -38.1862)
(-0.0012734 -0.000735194 -28.3135)
(-0.00107281 -0.000619388 -21.1483)
(-0.000868087 -0.000501189 -16.6356)
(0.000859559 0.000660899 -423.382)
(0.000486489 0.000957685 -415.391)
(0.000471891 0.000916611 -405.294)
(0.00042647 0.000806641 -392.875)
(0.000383737 0.000709878 -378.326)
(0.000344448 0.000620621 -361.852)
(0.000307666 0.000538143 -343.66)
(0.000270591 0.00045835 -323.966)
(0.000227961 0.000372293 -302.988)
(0.000171641 0.000265265 -280.956)
(9.22591e-05 0.000118017 -258.108)
(-1.72916e-05 -8.59779e-05 -234.701)
(-0.000158663 -0.000351486 -211.014)
(-0.000311144 -0.000669285 -187.361)
(-0.000460446 -0.000993825 -164.077)
(-0.000579184 -0.00127241 -141.516)
(-0.000650681 -0.00146171 -120.024)
(-0.000673791 -0.0015502 -99.9162)
(-0.000661595 -0.00156146 -81.4583)
(-0.000632829 -0.00153554 -64.8715)
(-0.000602729 -0.00150613 -50.3472)
(-0.000574722 -0.0014733 -38.0731)
(-0.000533483 -0.00139673 -28.2576)
(-0.000465919 -0.00115405 -21.1277)
(-0.000399758 -0.000917025 -16.6315)
(-0.000997239 -0.000430211 -423.382)
(-0.00108371 4.8426e-05 -415.391)
(-0.00104028 3.97542e-05 -405.294)
(-0.000923394 2.41912e-05 -392.875)
(-0.000819494 1.25668e-05 -378.327)
(-0.000724049 2.03261e-06 -361.852)
(-0.00063596 -6.82393e-06 -343.66)
(-0.000550334 -1.39468e-05 -323.966)
(-0.000456774 -1.87797e-05 -302.989)
(-0.000338496 -2.16127e-05 -280.957)
(-0.000174102 -2.41669e-05 -258.108)
(5.4827e-05 -2.90396e-05 -234.701)
(0.000351289 -3.55865e-05 -211.015)
(0.000698336 -5.771e-05 -187.361)
(0.00104908 -8.46252e-05 -164.077)
(0.00134396 -0.000113468 -141.516)
(0.00153664 -0.000136848 -120.024)
(0.00161659 -0.000149718 -99.9162)
(0.00161037 -0.000151467 -81.4583)
(0.00156269 -0.000146439 -64.8715)
(0.00151094 -0.000139037 -50.3472)
(0.00146105 -0.000130816 -38.073)
(0.00137304 -0.000117515 -28.2576)
(0.00114233 -6.42495e-05 -21.1277)
(0.000929781 -3.06698e-05 -16.6315)
(-0.000961253 -0.000554978 -425.943)
(-0.000922731 -0.000532738 -417.921)
(-0.000887769 -0.000512552 -407.789)
(-0.000791944 -0.000457228 -395.317)
(-0.000706441 -0.000407863 -380.7)
(-0.000628002 -0.000362576 -364.141)
(-0.00055551 -0.000320723 -345.852)
(-0.000484893 -0.000279952 -326.047)
(-0.000407024 -0.000234995 -304.948)
(-0.00030757 -0.000177575 -282.782)
(-0.000168775 -9.7442e-05 -259.79)
(2.50608e-05 1.44688e-05 -236.229)
(0.000275379 0.00015899 -212.381)
(0.000565108 0.000326264 -188.56)
(0.000856466 0.00049448 -165.105)
(0.00109894 0.000634473 -142.376)
(0.00125429 0.000724163 -120.721)
(0.00131451 0.000758933 -100.462)
(0.00130228 0.000751872 -81.8681)
(0.00125496 0.00072455 -65.1628)
(0.00120372 0.000694965 -50.5392)
(0.00115634 0.000667612 -38.1862)
(0.00108138 0.000624331 -28.3136)
(0.000903834 0.000521827 -21.1483)
(0.00074553 0.000430431 -16.6356)
)
;

boundaryField
{
    outletCentralUnloaded
    {
        type            zeroGradient;
    }
    inletCentralUnloaded
    {
        type            fixedValue;
        value           uniform (0 0 -15);
    }
    outletFuelElement
    {
        type            zeroGradient;
    }
    inletFuelElement
    {
        type            fixedValue;
        value           uniform (0 0 -15);
    }
    defaultFaces
    {
        type            slip;
    }
    baffle_master
    {
        type            slip;
    }
    baffle_slave
    {
        type            slip;
    }
}


// ************************************************************************* //
