/*--------------------------------*- C++ -*----------------------------------*\
| =========                 |                                                 |
| \\      /  F ield         | OpenFOAM: The Open Source CFD Toolbox           |
|  \\    /   O peration     | Version:  2212                                  |
|   \\  /    A nd           | Website:  www.openfoam.com                      |
|    \\/     M anipulation  |                                                 |
\*---------------------------------------------------------------------------*/
FoamFile
{
    version     2.0;
    format      ascii;
    arch        "LSB;label=32;scalar=64";
    class       surfaceScalarField;
    location    "200/fluidRegion";
    object      alphaPhi;
}
// * * * * * * * * * * * * * * * * * * * * * * * * * * * * * * * * * * * * * //

dimensions      [0 3 -1 0 0 0 0];

oriented        oriented;

internalField   nonuniform List<scalar> 
45630
(
0.008231517
-2.005527e-15
-1.269548e-15
-0.008231517
0.008231517
-7.901308e-16
-3.46128e-16
8.106021e-17
1.817922e-16
0.008231517
1.655062e-15
-0.008231517
0.008231517
1.960868e-15
1.577444e-15
0.008231517
2.337902e-15
-0.008231517
0.008231517
1.923109e-15
1.268876e-15
0.008231517
6.531148e-16
-0.008231517
0.008231517
6.566242e-16
5.943293e-16
0.008231517
-2.066089e-15
-0.008231517
0.008231517
-1.065267e-15
-3.915849e-16
0.008231517
-0.008231517
0.008231517
0.008231509
-3.241413e-12
-6.195341e-12
-0.008231509
0.008231509
-7.999938e-13
-3.470775e-12
3.401577e-13
-1.209309e-12
0.008231509
2.200742e-12
-0.008231509
0.008231509
1.434221e-12
9.481277e-13
0.008231517
-4.266651e-12
-0.008231517
0.008231517
-2.093851e-12
-6.941633e-13
0.008231517
-4.585206e-12
-5.473217e-12
-0.008231517
0.008231517
-1.074152e-12
-3.085301e-12
6.522265e-13
-1.15118e-12
0.008231517
-0.008231517
0.008231517
0.008231509
-0.008231509
0.008231509
0.008231517
-1.216146e-13
-4.036555e-13
-0.008231517
0.008231517
1.059872e-13
-1.632461e-13
8.398218e-14
-9.405329e-14
0.008231517
6.824274e-13
-0.008231517
0.008231517
1.834747e-13
4.185023e-14
0.008231509
1.111925e-14
-0.008231509
0.008231509
-2.89645e-14
-3.946252e-14
0.008231517
-3.578866e-13
-0.008231517
0.008231517
-1.797609e-13
-1.046121e-13
0.008231509
-5.954718e-13
-0.008231509
0.008231509
-3.019152e-13
-1.547037e-13
0.008231509
-0.008231509
0.008231509
0.008231517
-1.461609e-13
1.83811e-13
-0.008231517
0.008231517
-7.903057e-14
1.885901e-14
1.350921e-15
6.23426e-14
0.008231517
3.147151e-13
-0.008231517
0.008231517
2.749999e-13
2.054626e-13
0.008231517
2.335556e-13
-0.008231517
0.008231517
1.417415e-13
1.168323e-13
0.008231509
1.778949e-13
-0.008231509
0.008231509
2.606909e-13
2.356794e-13
0.008231509
-4.040679e-14
-0.008231509
0.008231509
-5.815218e-14
-2.56137e-14
0.008231509
-0.008231509
0.008231509
0.008231509
2.336769e-12
-2.233134e-10
-0.008231509
0.00823151
-6.745189e-11
-2.124599e-10
1.424216e-11
-8.514296e-11
0.008231509
-2.105131e-10
-3.314902e-11
-0.008231509
0.00823151
-1.994862e-10
-6.471034e-11
-8.684914e-11
4.41606e-11
0.008231517
2.729427e-11
-0.008231517
0.008231518
1.113708e-10
8.803567e-11
0.008231509
-0.008231509
0.00823151
0.008231517
-7.558027e-11
-0.008231517
0.008231518
-1.21603e-10
-5.641106e-11
0.008231517
-0.008231517
0.008231518
0.00823151
-2.350575e-10
-2.76216e-10
-0.008231509
0.00823151
-2.413881e-10
-2.594807e-10
-1.065744e-10
-1.023904e-10
0.00823151
-1.052425e-10
-0.008231509
0.00823151
-2.548555e-11
5.888722e-11
0.008231517
-2.703062e-10
-3.028613e-10
-0.008231517
0.008231518
-2.044195e-10
-2.443741e-10
-5.12666e-11
-6.322446e-11
0.00823151
-9.663903e-11
-0.008231509
0.00823151
-4.734755e-11
4.274543e-11
0.008231517
-0.008231517
0.008231518
0.008231517
-0.008231517
0.008231518
0.008231517
-2.168804e-10
-1.502506e-11
-0.008231517
0.008231518
-1.727294e-10
-5.380483e-11
-6.910359e-11
1.679016e-11
0.008231517
-2.036767e-10
-3.72887e-11
-0.008231517
0.008231518
-1.622635e-10
-6.105755e-11
-6.235154e-11
1.463645e-11
0.008231517
-0.008231517
0.008231518
0.008231509
9.242994e-13
-0.008231509
0.00823151
8.847265e-11
8.780856e-11
0.008231509
3.639158e-11
-0.008231509
0.00823151
1.061913e-10
9.671431e-11
0.008231509
-0.008231509
0.00823151
0.008231517
-1.860452e-10
-6.737006e-11
-0.008231517
0.008231517
-1.566516e-10
-6.896269e-11
-5.910386e-11
1.245787e-11
0.008231517
-2.054368e-10
-4.783489e-11
-0.008231517
0.008231517
-1.70694e-10
-6.262282e-11
-6.782556e-11
1.426838e-11
0.008231517
-0.008231517
0.008231517
0.008231509
1.274056e-11
-0.008231509
0.00823151
9.056881e-11
8.832379e-11
0.008231509
5.166733e-11
-0.008231509
0.00823151
1.10951e-10
9.885599e-11
0.008231509
-0.008231509
0.00823151
0.008231517
-2.277313e-10
-2.003688e-10
-0.008231517
0.008231518
-2.375276e-10
-2.36245e-10
-7.635487e-11
-7.302759e-11
0.008231517
-2.26254e-10
-2.018953e-10
-0.008231517
0.008231518
-2.371308e-10
-2.363958e-10
-7.614207e-11
-7.269289e-11
0.008231509
-2.097362e-10
-2.1274e-10
-0.008231509
0.00823151
-2.367495e-10
-2.372971e-10
-7.680426e-11
-7.668236e-11
0.008231517
-0.008231517
0.008231518
0.008231509
-0.008231509
0.00823151
0.008231509
-0.008231509
0.00823151
0.008231509
-1.084768e-13
-2.737674e-13
-0.008231509
0.008231509
-2.485702e-14
-1.251936e-13
8.526905e-15
-4.753326e-14
0.008231517
-1.973219e-13
-0.008231517
0.008231517
-1.029163e-13
-5.572126e-14
0.008231509
-1.945326e-13
-0.008231509
0.008231509
-8.681937e-14
-5.038978e-14
0.008231517
2.680353e-13
1.055444e-13
-0.008231517
0.008231517
1.569476e-13
7.268243e-14
9.173268e-14
4.098744e-14
0.008231517
-0.008231517
0.008231517
0.008231509
-0.008231509
0.008231509
0.008231517
-2.086619e-11
-1.230947e-10
-0.008231517
0.008231517
-3.287204e-11
-1.038765e-10
1.260606e-11
-4.05588e-11
0.008231517
-1.343825e-11
-1.367106e-10
-0.008231517
0.008231517
-3.04709e-11
-1.12273e-10
1.33625e-11
-4.534188e-11
0.008231509
2.873254e-11
-0.008231509
0.008231509
7.021153e-11
6.360571e-11
0.008231509
7.688761e-12
-0.008231509
0.008231509
5.941382e-11
5.806619e-11
0.008231509
-0.008231509
0.008231509
0.008231517
-0.008231517
0.008231517
0.008231509
4.575536e-15
2.484519e-15
-0.008231509
0.008231509
1.975852e-15
8.270527e-16
1.666891e-16
-8.881924e-16
0.008231509
-5.385184e-15
-0.008231509
0.008231509
-4.695486e-15
-3.235328e-15
0.008231517
-1.200425e-15
-0.008231517
0.008231517
-1.934909e-15
-1.894336e-15
0.008231517
1.503463e-15
-0.008231517
0.008231517
1.049905e-15
3.122428e-16
0.008231509
-2.988344e-15
-0.008231509
0.008231509
-4.413492e-15
-3.776142e-15
0.008231517
-0.008231517
0.008231517
0.008231493
3.517429e-10
-9.598678e-11
-0.008231493
0.008231493
-9.08694e-11
-3.45226e-10
-1.088176e-10
-1.815803e-10
0.0082315
-1.842118e-10
-0.008231501
0.008231501
-1.038045e-10
5.264852e-11
0.008231501
3.338493e-10
-2.198793e-11
-0.008231501
0.008231501
-9.647731e-13
-3.024475e-10
2.753845e-11
-1.009299e-10
0.008231493
-9.231929e-11
-0.008231493
0.008231493
-1.509306e-10
-3.057111e-12
0.008231501
-0.008231501
0.008231501
0.008231493
-0.008231493
0.008231493
0.008231514
2.319794e-11
-5.680025e-11
-0.008231514
0.008231515
-4.395519e-11
-6.310348e-11
3.155854e-13
-2.425184e-11
0.008231507
2.817563e-11
-0.008231507
0.008231507
7.737927e-11
5.869125e-11
0.008231514
2.316107e-11
-5.651328e-11
-0.008231514
0.008231515
-4.395225e-11
-6.288114e-11
2.968902e-13
-2.415431e-11
0.008231507
2.849946e-11
-0.008231507
0.008231507
7.759865e-11
5.880747e-11
0.008231507
-0.008231507
0.008231507
0.008231514
-0.008231514
0.008231515
0.008231515
1.28697e-11
3.241153e-12
-0.008231515
0.008231515
2.453887e-12
8.428436e-12
1.230872e-12
8.604944e-12
0.008231515
-3.261156e-12
-0.008231515
0.008231515
1.064879e-11
6.213093e-12
0.008231507
2.322131e-11
-0.008231507
0.008231507
2.286511e-11
1.322154e-11
0.008231515
1.005689e-11
-0.008231515
0.008231515
1.129981e-11
8.89267e-12
0.008231507
6.797027e-12
-0.008231507
0.008231507
6.891066e-12
5.489822e-12
0.008231507
-0.008231507
0.008231507
0.008231517
-1.944349e-13
-2.043874e-13
-0.008231517
0.008231517
-7.133551e-14
-8.296962e-14
1.778555e-14
9.855432e-15
0.008231517
1.970066e-13
-0.008231517
0.008231517
2.18996e-13
1.674072e-13
0.008231517
2.007137e-13
-0.008231517
0.008231517
2.260043e-13
1.712379e-13
0.008231517
1.030484e-13
-0.008231517
0.008231517
1.36396e-13
1.26628e-13
0.008231517
1.093056e-13
-0.008231517
0.008231517
1.410295e-13
1.307515e-13
0.008231517
-0.008231517
0.008231517
0.008231517
-8.460321e-12
-1.752111e-11
-0.008231517
0.008231517
-6.879792e-12
-1.509959e-11
-5.974128e-14
-5.840523e-12
0.008231509
-2.483564e-12
-0.008231509
0.008231509
5.056326e-12
4.786446e-12
0.008231517
-1.514315e-11
-1.102875e-11
-0.008231517
0.008231517
-1.328586e-11
-6.83063e-12
-5.518183e-12
2.002614e-12
0.008231509
-2.462828e-12
-0.008231509
0.008231509
-6.820875e-12
-3.046395e-12
0.008231517
-0.008231517
0.008231517
0.008231509
-0.008231509
0.008231509
0.008231509
-2.259363e-11
-1.068825e-11
-0.008231509
0.008231509
-1.399608e-11
-6.589352e-12
-9.747179e-13
3.109757e-12
0.008231509
7.004156e-12
-0.008231509
0.008231509
2.180507e-11
2.021879e-11
0.008231509
1.257293e-11
-0.008231509
0.008231509
2.438543e-11
2.126859e-11
0.008231516
1.194931e-11
-0.008231516
0.008231516
1.712844e-11
1.722508e-11
0.008231516
-5.524857e-12
-0.008231516
0.008231516
7.14134e-12
1.209079e-11
0.008231516
-0.008231516
0.008231516
0.008231517
-1.585372e-13
-1.562594e-13
-0.008231517
0.008231517
-8.706776e-14
-7.638664e-14
-1.873283e-14
-1.249607e-14
0.008231517
-3.773196e-14
-0.008231517
0.008231517
3.934595e-14
5.22001e-14
0.008231517
-4.194328e-14
-0.008231517
0.008231517
3.132666e-14
4.904909e-14
0.008231517
-1.026173e-13
-0.008231517
0.008231517
2.636757e-16
3.629519e-14
0.008231517
-1.045533e-13
-0.008231517
0.008231517
2.92115e-15
3.938345e-14
0.008231517
-0.008231517
0.008231517
0.008231509
-2.046511e-11
-3.572692e-12
-0.008231509
0.008231509
-1.593946e-11
-7.946089e-12
-6.174031e-12
3.499417e-13
0.008231509
-1.603906e-11
-3.818592e-12
-0.008231509
0.008231509
-1.361033e-11
-8.033336e-12
-4.951261e-12
3.131336e-13
0.008231509
-0.008231509
0.008231509
0.008231517
5.888771e-12
-0.008231516
0.008231517
1.240045e-11
1.020376e-11
0.008231517
1.216826e-12
-0.008231516
0.008231517
9.984076e-12
8.944171e-12
0.008231517
-0.008231516
0.008231517
0.008231509
-2.922979e-13
-1.500638e-13
-0.008231509
0.008231509
-6.616482e-14
2.931797e-14
-3.63848e-14
1.443638e-14
0.008231509
2.652189e-13
-0.008231509
0.008231509
7.510348e-15
-5.909451e-14
0.008231517
1.721335e-13
-0.008231517
0.008231517
8.603916e-14
1.980043e-14
0.008231509
3.311671e-13
-0.008231509
0.008231509
2.00591e-14
-5.384346e-14
0.008231517
-3.602286e-14
-0.008231517
0.008231517
-2.197304e-14
-3.625945e-14
0.008231517
-0.008231517
0.008231517
0.008231509
-3.094234e-14
-3.061761e-14
-0.008231509
0.008231509
-6.420664e-15
-7.587836e-15
4.49125e-15
3.618472e-15
0.008231509
6.211338e-14
-0.008231509
0.008231509
4.152938e-14
2.610876e-14
0.008231509
6.212064e-14
-0.008231509
0.008231509
4.230823e-14
2.655418e-14
0.008231517
1.180971e-14
-0.008231517
0.008231517
2.085591e-14
1.835605e-14
0.008231517
1.211127e-14
-0.008231517
0.008231517
2.046513e-14
1.792371e-14
0.008231517
-0.008231517
0.008231517
0.008231509
-4.93412e-13
-2.729881e-12
-0.008231509
0.008231509
2.643417e-12
-2.650513e-12
2.359359e-12
-3.240019e-13
0.008231509
8.558405e-12
-0.008231509
0.008231509
5.2105e-12
3.036554e-12
0.008231516
-6.177008e-12
4.013232e-12
-0.008231516
0.008231516
-5.884938e-12
5.561839e-12
-2.883094e-12
4.121208e-12
0.008231509
-6.04661e-13
-0.008231509
0.008231509
9.423409e-13
1.284409e-12
0.008231516
-0.008231516
0.008231516
0.008231516
-0.008231516
0.008231516
0.008231509
3.224615e-14
-1.113795e-13
-0.008231509
0.008231509
3.350959e-14
-5.098569e-14
2.430345e-14
-1.657206e-14
0.008231509
2.118721e-14
-0.008231509
0.008231509
2.049643e-14
1.502275e-14
0.008231517
-1.294775e-13
-1.268058e-14
-0.008231517
0.008231517
-5.713055e-14
2.637064e-14
-2.151523e-14
2.7513e-14
0.008231509
-0.008231509
0.008231509
0.008231517
-4.801891e-14
-0.008231517
0.008231517
-2.150646e-14
-6.880037e-15
0.008231517
-0.008231517
0.008231517
0.008231516
-1.036999e-11
-2.906715e-11
-0.008231516
0.008231516
-1.136246e-11
-2.073202e-11
-1.452986e-12
-6.255716e-12
0.008231509
-2.227049e-11
-2.531443e-11
-0.008231509
0.008231509
-1.745922e-11
-1.962425e-11
-4.701367e-12
-5.91539e-12
0.008231516
-9.149642e-12
-2.480286e-11
-0.008231516
0.008231516
-1.109328e-11
-1.829778e-11
-1.387143e-12
-4.975845e-12
0.008231509
-0.008231509
0.008231509
0.008231509
-0.008231509
0.008231509
0.008231516
-0.008231516
0.008231516
0.008231517
1.492801e-13
1.360385e-13
-0.008231517
0.008231517
6.854459e-14
5.746813e-14
-1.50541e-14
-2.137363e-14
0.008231509
-2.346515e-13
-0.008231509
0.008231509
-2.330486e-13
-1.777845e-13
0.008231517
-2.247413e-13
-0.008231517
0.008231517
-2.263689e-13
-1.750409e-13
0.008231517
-3.172695e-14
-0.008231517
0.008231517
-1.017643e-13
-1.120464e-13
0.008231509
-3.507264e-14
-0.008231509
0.008231509
-1.062012e-13
-1.156631e-13
0.008231509
-0.008231509
0.008231509
0.008231508
1.971836e-11
-3.467083e-11
-0.008231508
0.008231508
-1.394422e-11
-4.756085e-11
-9.246139e-12
-2.19878e-11
0.008231516
1.799399e-12
-0.008231516
0.008231516
3.651027e-12
1.521578e-11
0.008231516
2.467395e-12
-4.638052e-11
-0.008231516
0.008231516
-1.475154e-11
-5.403971e-11
-1.136014e-12
-1.952012e-11
0.008231516
-0.008231516
0.008231516
0.008231508
7.340698e-12
-0.008231508
0.008231508
-2.020502e-12
9.573316e-12
0.008231508
-0.008231508
0.008231508
0.008231508
6.562062e-12
7.356016e-12
-0.008231508
0.008231508
2.935451e-12
3.122315e-12
8.02764e-14
1.21674e-13
0.008231508
-2.759038e-12
-0.008231508
0.008231508
-4.497873e-12
-3.842483e-12
0.008231516
-1.164265e-12
-0.008231516
0.008231516
-2.546118e-12
-2.777548e-12
0.008231508
-2.958048e-12
-0.008231508
0.008231508
-4.436888e-12
-3.790231e-12
0.008231516
-1.759217e-12
-0.008231516
0.008231516
-2.793962e-12
-2.871196e-12
0.008231516
-0.008231516
0.008231516
0.008231517
-5.743162e-13
-5.575455e-13
-0.008231517
0.008231517
-2.954898e-13
-3.704582e-13
1.699366e-13
1.004979e-14
0.008231509
4.886617e-13
-0.008231509
0.008231509
1.124195e-12
1.019436e-12
0.008231517
5.276057e-13
-0.008231517
0.008231517
9.731609e-13
7.659676e-13
0.008231517
4.23799e-13
-0.008231517
0.008231517
4.74729e-13
4.578557e-13
0.008231509
-4.795005e-13
-0.008231509
0.008231509
-2.48723e-13
-4.446358e-14
0.008231509
-0.008231509
0.008231509
0.008231517
-1.36604e-11
-5.437774e-12
-0.008231517
0.008231517
-9.391762e-12
-1.231882e-12
-3.190934e-12
2.280494e-12
0.008231509
-1.597478e-11
-3.594251e-12
-0.008231509
0.008231509
-1.09395e-11
-5.739569e-13
-4.079073e-12
2.513365e-12
0.008231517
-0.008231517
0.008231517
0.008231517
5.114877e-12
-0.008231517
0.008231517
7.06491e-12
5.7475e-12
0.008231509
9.569725e-13
-0.008231509
0.008231509
4.859233e-12
4.626473e-12
0.008231509
-0.008231509
0.008231509
0.008231517
-3.107298e-11
-8.099924e-12
-0.008231517
0.008231517
-2.690583e-11
-1.090434e-11
-1.046973e-11
2.294891e-12
0.008231517
-6.340414e-12
-3.30614e-11
-0.008231517
0.008231517
-1.029079e-11
-2.826148e-11
2.506699e-12
-1.125689e-11
0.008231509
3.098416e-12
-0.008231509
0.008231509
1.592759e-11
1.535952e-11
0.008231517
-0.008231517
0.008231517
0.008231509
6.846392e-12
-0.008231509
0.008231509
1.789681e-11
1.635847e-11
0.008231509
-0.008231509
0.008231509
0.008231517
-6.417983e-11
-1.089433e-11
-0.008231517
0.008231517
-4.719024e-11
8.820219e-12
-1.944028e-11
2.224254e-11
0.008231509
1.864775e-12
-7.261297e-11
-0.008231509
0.008231509
7.433927e-12
-5.180833e-11
1.458631e-11
-1.82105e-11
0.008231509
2.911912e-11
-0.008231509
0.008231509
2.909663e-11
2.067377e-11
0.008231517
-0.008231517
0.008231517
0.008231509
-5.031138e-11
-0.008231509
0.008231509
-3.232843e-11
-1.178775e-11
0.008231517
-0.008231517
0.008231517
0.008231509
-6.132587e-16
-5.780161e-16
-0.008231509
0.008231509
-1.234711e-16
-1.301174e-16
5.913536e-17
5.603271e-17
0.008231509
9.874331e-16
-0.008231509
0.008231509
6.503896e-16
3.944487e-16
0.008231517
9.694334e-16
-0.008231517
0.008231517
6.632322e-16
3.988789e-16
0.008231517
1.415145e-16
-0.008231517
0.008231517
3.149688e-16
2.831802e-16
0.008231509
1.563067e-16
-0.008231509
0.008231509
3.106149e-16
2.658737e-16
0.008231517
-0.008231517
0.008231517
0.008231517
-8.243938e-14
-1.416606e-13
-0.008231517
0.008231517
-3.873789e-14
-8.688524e-14
2.836677e-14
-5.874966e-17
0.008231517
1.801101e-13
-0.008231517
0.008231517
2.057241e-13
1.628045e-13
0.008231517
-7.466452e-14
-0.008231517
0.008231517
5.247247e-14
9.079767e-14
0.008231509
1.001139e-13
-0.008231509
0.008231509
1.821537e-13
1.548355e-13
0.008231509
6.457554e-14
-0.008231509
0.008231509
1.242228e-13
1.271868e-13
0.008231509
-0.008231509
0.008231509
0.008231509
-6.628371e-15
-7.146279e-15
-0.008231509
0.008231509
-2.720919e-15
-3.168589e-15
6.114682e-16
2.995919e-16
0.008231517
7.883992e-15
-0.008231517
0.008231517
8.264157e-15
6.481548e-15
0.008231517
2.754917e-17
-0.008231517
0.008231517
3.637273e-15
4.314625e-15
0.008231509
7.978307e-15
-0.008231509
0.008231509
8.550534e-15
6.628091e-15
0.008231509
4.743104e-16
-0.008231509
0.008231509
3.827021e-15
4.489958e-15
0.008231517
-0.008231517
0.008231517
0.008231509
2.383587e-13
5.141831e-14
-0.008231509
0.008231509
1.398742e-13
-2.253957e-14
5.787906e-14
-5.835737e-14
0.008231517
1.810916e-14
2.434349e-13
-0.008231517
0.008231517
-2.046074e-14
1.410719e-13
-4.295299e-14
4.741656e-14
0.008231517
-8.785333e-14
-0.008231517
0.008231517
-7.588257e-14
-5.210803e-14
0.008231509
1.262239e-13
-0.008231509
0.008231509
7.499994e-14
2.621986e-14
0.008231517
-0.008231517
0.008231517
0.008231509
-0.008231509
0.008231509
0.008231517
-9.258988e-11
-1.752637e-10
-0.008231517
0.008231517
-1.151946e-10
-1.347418e-10
-5.289983e-11
-3.292316e-11
0.008231509
-4.939965e-11
-0.008231509
0.00823151
-3.336203e-12
2.826182e-11
0.008231509
-1.044744e-10
-1.096404e-10
-0.008231509
0.00823151
-1.267861e-10
-1.030519e-10
-6.013758e-11
-1.657549e-11
0.008231517
-3.84402e-11
-0.008231517
0.008231517
7.523204e-12
3.527693e-11
0.008231509
-0.008231509
0.00823151
0.008231517
-0.008231517
0.008231517
0.008231517
5.244294e-15
4.734466e-15
-0.008231517
0.008231517
3.737531e-15
3.062578e-15
1.487905e-15
4.213752e-16
0.008231517
1.24439e-15
-0.008231517
0.008231517
3.631075e-17
-6.830922e-16
0.008231509
6.031136e-15
3.582342e-15
-0.008231509
0.008231509
3.293691e-15
2.992383e-15
5.251149e-16
1.056065e-15
0.008231509
-0.008231509
0.008231509
0.008231509
7.007967e-16
-0.008231509
0.008231509
-4.166183e-16
-9.149595e-16
0.008231517
-0.008231517
0.008231517
0.008231518
-4.410905e-10
-4.683701e-10
-0.008231517
0.00823152
-1.992685e-10
-2.362424e-10
8.169683e-12
-1.029493e-11
0.008231518
2.789901e-10
-0.008231517
0.00823152
3.942087e-10
3.403472e-10
0.008231518
2.868912e-10
-0.008231517
0.00823152
4.063347e-10
3.426862e-10
0.008231511
5.747497e-11
-0.008231509
0.008231512
1.930207e-10
2.322665e-10
0.008231511
7.685337e-11
-0.008231509
0.008231512
2.178686e-10
2.483921e-10
0.008231511
-0.008231509
0.008231512
0.008231508
-9.961476e-11
-5.086277e-12
-0.008231508
0.008231508
-8.434269e-11
-4.461768e-11
-3.418733e-11
-9.905783e-13
0.008231508
-1.044425e-10
-8.976871e-12
-0.008231508
0.008231508
-8.321578e-11
-4.073818e-11
-3.555934e-11
1.112224e-11
0.008231508
-0.008231508
0.008231508
0.008231516
2.87398e-11
-0.008231516
0.008231516
5.560201e-11
3.975911e-11
0.008231516
-2.780268e-11
-0.008231516
0.008231516
-5.284943e-11
-2.627425e-11
0.008231516
-0.008231516
0.008231516
0.008231509
6.115399e-14
3.68672e-13
-0.008231509
0.008231509
-9.687151e-15
1.577401e-13
-5.557947e-14
1.037056e-14
0.008231509
-3.283526e-13
-0.008231509
0.008231509
-2.691632e-13
-1.763505e-13
0.008231509
-2.454469e-13
-0.008231509
0.008231509
-2.828244e-13
-2.183837e-13
0.008231517
2.980862e-14
-0.008231517
0.008231517
-3.421991e-14
-5.681348e-14
0.008231517
3.60605e-13
-0.008231517
0.008231517
1.87951e-13
8.070878e-14
0.008231517
-0.008231517
0.008231517
0.008231509
-6.956335e-13
-1.498967e-13
-0.008231509
0.008231509
-3.534948e-13
4.458172e-14
-1.079569e-13
9.72101e-14
0.008231517
-6.828831e-13
-2.613112e-13
-0.008231517
0.008231517
-3.530868e-13
5.577565e-14
-1.322455e-13
1.437524e-13
0.008231517
-0.008231517
0.008231517
0.008231509
3.305406e-13
-0.008231509
0.008231509
2.083273e-13
1.293862e-13
0.008231509
-4.546454e-13
-0.008231509
0.008231509
-1.975025e-13
-5.854965e-14
0.008231517
-0.008231517
0.008231517
0.008231517
2.075932e-12
2.495192e-13
-0.008231517
0.008231517
7.006203e-13
5.600078e-13
2.832653e-13
3.635571e-13
0.008231517
-1.170406e-12
-0.008231517
0.008231517
2.000481e-13
1.070005e-13
0.008231517
1.118811e-12
-0.008231517
0.008231517
8.708689e-13
4.784814e-13
0.008231509
7.797425e-13
-0.008231509
0.008231509
7.618954e-13
2.876017e-13
0.008231509
9.950687e-13
-0.008231509
0.008231509
4.496438e-13
2.17598e-13
0.008231509
-0.008231509
0.008231509
0.008231517
-6.969555e-11
-5.257343e-10
-0.008231517
0.008231518
-1.052309e-10
-4.052165e-10
5.018961e-11
-1.615127e-10
0.008231509
8.461836e-12
-0.008231509
0.00823151
1.966255e-10
1.939723e-10
0.008231517
-1.130735e-10
-4.541121e-10
-0.008231517
0.008231518
-1.195138e-10
-3.600456e-10
4.594295e-11
-1.351223e-10
0.008231509
1.234619e-10
-0.008231509
0.008231511
2.560793e-10
2.246094e-10
0.008231517
-0.008231516
0.008231518
0.008231509
-0.008231509
0.00823151
0.008231509
-1.964645e-11
9.749859e-13
-0.008231509
0.008231509
-1.716411e-11
-6.261948e-12
-6.996666e-12
1.082024e-12
0.008231509
-1.89806e-11
-1.707673e-13
-0.008231509
0.008231509
-1.643098e-11
-5.297756e-12
-7.157505e-12
3.644942e-12
0.008231509
-0.008231509
0.008231509
0.008231517
4.705719e-12
-0.008231517
0.008231517
1.071433e-11
7.774962e-12
0.008231517
-6.517331e-12
-0.008231517
0.008231517
-1.048326e-11
-5.051214e-12
0.008231517
-0.008231517
0.008231517
0.008231509
-1.879674e-12
-7.921919e-12
-0.008231509
0.008231509
6.822116e-14
-5.1536e-12
1.153086e-12
-1.740011e-12
0.008231517
-7.486139e-12
-3.058536e-12
-0.008231517
0.008231517
-4.889946e-12
1.818377e-13
-1.94554e-12
1.879499e-12
0.008231509
2.832646e-12
-0.008231509
0.008231509
2.637251e-12
1.870847e-12
0.008231517
-4.44731e-12
-0.008231517
0.008231517
-2.787317e-12
-9.389097e-13
0.008231509
-0.008231509
0.008231509
0.008231517
-0.008231517
0.008231517
0.008231515
2.056364e-12
1.504178e-11
-0.008231515
0.008231515
-4.059929e-11
-3.509589e-11
-2.466986e-11
-1.235215e-11
0.008231507
3.301791e-12
1.446325e-11
-0.008231507
0.008231507
-3.930403e-11
-3.544194e-11
-2.336707e-11
-1.269408e-11
0.008231507
1.268606e-11
-0.008231507
0.008231507
5.400597e-12
1.205672e-11
0.008231515
1.14608e-11
-0.008231515
0.008231515
3.964889e-12
1.093396e-11
0.008231507
-0.008231507
0.008231507
0.008231515
-0.008231515
0.008231515
0.008231517
-4.217314e-16
-5.450376e-16
-0.008231517
0.008231517
-3.621811e-17
-9.568836e-17
4.76658e-17
1.818225e-17
0.008231517
9.226993e-16
-0.008231517
0.008231517
4.89334e-16
2.743498e-16
0.008231517
9.91164e-16
-0.008231517
0.008231517
5.240831e-16
2.70111e-16
0.008231509
1.477752e-16
-0.008231509
0.008231509
2.659864e-16
1.758412e-16
0.008231509
2.099474e-16
-0.008231509
0.008231509
2.894823e-16
2.062014e-16
0.008231509
-0.008231509
0.008231509
0.008231517
-6.459132e-13
-2.281478e-12
-0.008231517
0.008231517
-2.874739e-13
-8.742809e-13
7.868014e-14
-1.813137e-13
0.008231509
7.633995e-13
-0.008231509
0.008231509
7.848396e-13
6.882276e-13
0.008231517
1.924215e-12
-0.008231517
0.008231517
1.130152e-12
8.041821e-13
0.008231509
-6.807353e-13
-0.008231509
0.008231509
1.258356e-13
3.507686e-13
0.008231517
-2.059976e-13
-0.008231517
0.008231517
3.6733e-13
4.948079e-13
0.008231509
-0.008231509
0.008231509
0.008231518
-3.695021e-10
-4.56088e-10
-0.008231517
0.008231519
-3.67836e-10
-3.491348e-10
-1.672657e-10
-7.460351e-11
0.00823151
-3.58017e-10
-4.562467e-10
-0.008231509
0.008231511
-3.637195e-10
-3.479752e-10
-1.653915e-10
-7.350492e-11
0.008231518
-9.360359e-11
-0.008231517
0.008231519
1.568109e-11
9.121472e-11
0.00823151
-9.121201e-11
-0.008231509
0.008231511
1.876436e-11
9.333404e-11
0.008231518
-0.008231517
0.008231519
0.00823151
-0.008231509
0.008231511
0.008231517
1.652392e-13
-2.232075e-14
-0.008231517
0.008231517
1.025514e-13
-4.19434e-15
4.656732e-15
-5.425523e-14
0.008231517
-1.229021e-13
-0.008231517
0.008231517
-2.066381e-13
-1.747054e-13
0.008231509
-2.231072e-13
-0.008231509
0.008231509
-2.458883e-13
-1.888215e-13
0.008231509
1.335169e-13
-0.008231509
0.008231509
-2.778395e-14
-8.276178e-14
0.008231517
-1.542336e-13
-0.008231517
0.008231517
-1.737653e-13
-1.557752e-13
0.008231509
-0.008231509
0.008231509
0.008231517
-7.081108e-15
-7.522149e-14
-0.008231517
0.008231517
2.156128e-15
-4.660869e-14
1.132836e-14
-1.794226e-14
0.008231517
-1.935616e-14
-5.127301e-14
-0.008231517
0.008231517
-1.923269e-15
-3.242082e-14
9.991031e-15
-1.00487e-14
0.008231517
3.017219e-14
-0.008231517
0.008231517
3.140965e-14
2.346041e-14
0.008231517
-6.019988e-15
-0.008231517
0.008231517
1.3152e-14
1.421937e-14
0.008231517
-0.008231517
0.008231517
0.008231517
-0.008231517
0.008231517
0.008231509
-5.384469e-16
-1.120582e-15
-0.008231509
0.008231509
1.205094e-16
-5.900274e-17
1.040271e-16
-5.673466e-18
0.008231509
-2.354747e-16
-0.008231509
0.008231509
-7.293128e-17
-1.89138e-16
0.008231509
-1.999597e-16
-0.008231509
0.008231509
-9.384674e-17
-1.708803e-16
0.008231517
-6.310108e-16
-1.170109e-15
-0.008231517
0.008231517
1.475745e-16
-2.680229e-17
7.263649e-17
-1.629826e-17
0.008231517
-0.008231517
0.008231517
0.008231517
-0.008231517
0.008231517
0.008231517
-1.510452e-11
-1.856461e-11
-0.008231517
0.008231517
-1.494984e-11
-1.586223e-11
-6.701526e-12
-6.303464e-12
0.008231509
-8.576926e-12
-0.008231509
0.008231509
-2.811611e-12
2.685825e-12
0.008231509
-1.641119e-11
-1.887541e-11
-0.008231509
0.008231509
-1.216494e-11
-1.424336e-11
-3.131914e-12
-3.592795e-12
0.008231517
-7.581047e-12
-0.008231517
0.008231517
-3.97767e-12
1.826889e-12
0.008231509
-0.008231509
0.008231509
0.008231517
-0.008231517
0.008231517
0.008231516
-2.714857e-12
-2.285253e-12
-0.008231516
0.008231516
-1.583279e-11
-1.762943e-11
-9.608859e-12
-7.594482e-12
0.008231516
1.318499e-11
-0.008231516
0.008231516
7.136292e-12
1.083248e-11
0.008231516
-1.681324e-11
-2.450067e-11
-0.008231516
0.008231516
-1.820421e-11
-2.754268e-11
-6.027255e-12
-8.735945e-12
0.008231516
-0.008231516
0.008231516
0.008231516
5.067957e-12
-0.008231516
0.008231516
-4.055731e-13
6.109379e-12
0.008231516
-0.008231516
0.008231516
0.008231509
4.019896e-13
-4.807623e-13
-0.008231509
0.008231509
1.106914e-13
-1.935639e-13
4.263789e-14
-1.292235e-14
0.008231509
-8.982265e-13
-0.008231509
0.008231509
-1.903372e-13
-3.731071e-14
0.008231517
3.838841e-14
-2.582552e-13
-0.008231517
0.008231517
-4.938006e-14
-1.481642e-15
3.24258e-14
7.723866e-14
0.008231517
-0.008231517
0.008231517
0.008231509
-2.811766e-13
-0.008231509
0.008231509
-6.603192e-14
2.653995e-14
0.008231517
-0.008231517
0.008231517
0.008231509
2.039125e-13
4.340955e-14
-0.008231509
0.008231509
1.250174e-13
-7.985989e-15
4.503416e-14
-4.292473e-14
0.008231517
1.698091e-14
2.316052e-13
-0.008231517
0.008231517
-1.749011e-14
1.426321e-13
-4.644632e-14
5.477816e-14
0.008231517
-2.381753e-14
-0.008231517
0.008231517
-6.232024e-14
-5.488042e-14
0.008231517
-0.008231517
0.008231517
0.008231509
-7.792644e-14
-0.008231509
0.008231509
-8.943599e-14
-6.81488e-14
0.008231509
-0.008231509
0.008231509
0.008231517
8.016005e-14
8.799083e-14
-0.008231517
0.008231517
3.060471e-14
3.419894e-14
-9.267305e-15
-1.931112e-14
0.008231509
-1.713221e-13
-0.008231509
0.008231509
-1.469516e-13
-9.945115e-14
0.008231517
-1.277013e-13
-0.008231517
0.008231517
-1.494673e-13
-1.198053e-13
0.008231509
-5.942332e-14
-0.008231509
0.008231509
-5.937952e-14
-5.330605e-14
0.008231509
1.108561e-13
-0.008231509
0.008231509
6.042201e-14
2.290052e-14
0.008231517
-0.008231517
0.008231517
0.008231507
-6.861792e-11
4.228392e-11
-0.008231507
0.008231507
-7.215578e-11
-2.521603e-11
-2.94448e-11
1.045269e-11
0.008231507
-6.948254e-11
4.247731e-11
-0.008231507
0.008231507
-7.286437e-11
-2.516293e-11
-2.996022e-11
1.040442e-11
0.008231507
-0.008231507
0.008231507
0.008231515
5.014201e-11
-0.008231515
0.008231515
8.199185e-11
6.108436e-11
0.008231515
5.120001e-11
-0.008231515
0.008231515
8.275353e-11
6.155152e-11
0.008231515
-0.008231515
0.008231515
0.008231517
4.58643e-14
1.627958e-13
-0.008231517
0.008231517
1.104263e-14
7.996356e-14
-2.495016e-14
1.157835e-14
0.008231517
-1.02361e-13
-0.008231517
0.008231517
-1.139726e-13
-9.336855e-14
0.008231509
-1.426044e-13
-0.008231509
0.008231509
-1.315699e-13
-9.947051e-14
0.008231509
-1.817712e-14
-0.008231509
0.008231509
-7.191138e-14
-7.602548e-14
0.008231517
5.848566e-14
-0.008231517
0.008231517
-2.060038e-14
-4.560115e-14
0.008231509
-0.008231509
0.008231509
0.008231517
7.71278e-13
6.724118e-13
-0.008231517
0.008231517
3.201362e-13
2.539267e-13
-8.694887e-14
-1.235284e-13
0.008231509
-1.346191e-12
-0.008231509
0.008231509
-1.225231e-12
-9.015157e-13
0.008231517
-1.271551e-12
-0.008231517
0.008231517
-1.179687e-12
-8.827123e-13
0.008231509
-2.848117e-13
-0.008231509
0.008231509
-5.755695e-13
-5.870804e-13
0.008231517
-2.60596e-13
-0.008231517
0.008231517
-5.548729e-13
-5.692908e-13
0.008231509
-0.008231509
0.008231509
0.008231439
-2.280598e-14
-1.704229e-14
-0.008231439
0.008231439
-2.032726e-14
-1.577884e-14
-6.744003e-15
-4.541986e-15
0.008231439
-1.887597e-14
-0.008231439
0.008231439
-2.465718e-15
4.595251e-15
0.008231548
-1.865678e-14
-0.008231548
0.008231548
-1.341964e-15
5.68159e-15
0.008231548
-4.22871e-14
-3.629195e-14
-0.008231548
0.008231548
-2.21606e-14
-1.648088e-14
-5.642035e-15
-2.376684e-15
0.008231439
-0.008231439
0.008231439
0.008231548
-0.008231548
0.008231548
0.008231509
-1.256915e-14
-1.125978e-14
-0.008231509
0.008231509
-3.98758e-15
-3.497283e-15
-2.460783e-16
5.420419e-16
0.008231509
9.571736e-15
-0.008231509
0.008231509
7.581623e-15
4.728463e-15
0.008231509
1.083339e-14
-0.008231509
0.008231509
5.709074e-15
3.549821e-15
0.008231517