/*--------------------------------*- C++ -*----------------------------------*\
| =========                 |                                                 |
| \\      /  F ield         | OpenFOAM: The Open Source CFD Toolbox           |
|  \\    /   O peration     | Version:  2212                                  |
|   \\  /    A nd           | Website:  www.openfoam.com                      |
|    \\/     M anipulation  |                                                 |
\*---------------------------------------------------------------------------*/
FoamFile
{
    version     2.0;
    format      ascii;
    arch        "LSB;label=32;scalar=64";
    class       surfaceScalarField;
    location    "200/fluidRegion";
    object      alphaRhoPhi;
}
// * * * * * * * * * * * * * * * * * * * * * * * * * * * * * * * * * * * * * //

dimensions      [1 0 -1 0 0 0 0];

oriented        oriented;

internalField   nonuniform List<scalar> 
45630
(
7.079104
-1.724754e-12
-1.091811e-12
-7.079104
7.079104
-6.795125e-13
-2.976701e-13
6.971178e-14
1.563413e-13
7.079104
1.423353e-12
-7.079104
7.079104
1.686347e-12
1.356602e-12
7.079104
2.010596e-12
-7.079104
7.079104
1.653874e-12
1.091233e-12
7.079104
5.616788e-13
-7.079104
7.079104
5.646968e-13
5.111232e-13
7.079104
-1.776837e-12
-7.079104
7.079104
-9.161299e-13
-3.36763e-13
7.079104
-7.079104
7.079104
7.079098
-2.787616e-09
-5.327994e-09
-7.079098
7.079098
-6.879947e-10
-2.984866e-09
2.925356e-10
-1.040006e-09
7.079098
1.892638e-09
-7.079098
7.079098
1.23343e-09
8.153899e-10
7.079104
-3.66932e-09
-7.079104
7.079104
-1.800712e-09
-5.969805e-10
7.079104
-3.943277e-09
-4.706967e-09
-7.079104
7.079104
-9.237705e-10
-2.653359e-09
5.609148e-10
-9.900147e-10
7.079104
-7.079104
7.079104
7.079098
-7.079098
7.079098
7.079104
-1.045885e-10
-3.471438e-10
-7.079104
7.079104
9.114903e-11
-1.403917e-10
7.222467e-11
-8.088583e-11
7.079104
5.868876e-10
-7.079104
7.079104
1.577882e-10
3.59912e-11
7.079098
9.562554e-12
-7.079098
7.079098
-2.490947e-11
-3.393776e-11
7.079104
-3.077825e-10
-7.079104
7.079104
-1.545944e-10
-8.996637e-11
7.079098
-5.121057e-10
-7.079098
7.079098
-2.59647e-10
-1.330452e-10
7.079098
-7.079098
7.079098
7.079104
-1.256983e-10
1.580775e-10
-7.079104
7.079104
-6.796629e-11
1.621875e-11
1.161792e-12
5.361464e-11
7.079104
2.70655e-10
-7.079104
7.079104
2.365e-10
1.766978e-10
7.079104
2.008579e-10
-7.079104
7.079104
1.218977e-10
1.004758e-10
7.079098
1.529896e-10
-7.079098
7.079098
2.241942e-10
2.026843e-10
7.079098
-3.474984e-11
-7.079098
7.079098
-5.001088e-11
-2.202779e-11
7.079098
-7.079098
7.079098
7.079098
2.009622e-09
-1.920495e-07
-7.079098
7.079099
-5.800863e-08
-1.827155e-07
1.224826e-08
-7.322294e-08
7.079098
-1.810413e-07
-2.850816e-08
-7.079098
7.079099
-1.715581e-07
-5.565089e-08
-7.469026e-08
3.797812e-08
7.079105
2.347307e-08
-7.079105
7.079105
9.577892e-08
7.571068e-08
7.079098
-7.079098
7.079099
7.079105
-6.499903e-08
-7.079105
7.079105
-1.045786e-07
-4.851351e-08
7.079105
-7.079104
7.079105
7.079098
-2.021494e-07
-2.375458e-07
-7.079098
7.079099
-2.075938e-07
-2.231534e-07
-9.165394e-08
-8.805575e-08
7.079098
-9.050852e-08
-7.079098
7.079099
-2.191757e-08
5.064301e-08
7.079105
-2.324633e-07
-2.604607e-07
-7.079104
7.079106
-1.758008e-07
-2.101617e-07
-4.408927e-08
-5.437303e-08
7.079098
-8.310956e-08
-7.079098
7.079099
-4.071889e-08
3.676107e-08
7.079105
-7.079104
7.079106
7.079105
-7.079104
7.079106
7.079105
-1.865171e-07
-1.292155e-08
-7.079104
7.079105
-1.485473e-07
-4.627215e-08
-5.942909e-08
1.443954e-08
7.079105
-1.75162e-07
-3.206828e-08
-7.079104
7.079105
-1.395466e-07
-5.250949e-08
-5.362233e-08
1.258735e-08
7.079105
-7.079104
7.079105
7.079098
7.948975e-10
-7.079098
7.079098
7.608648e-08
7.551536e-08
7.079098
3.129676e-08
-7.079098
7.079098
9.13245e-08
8.31743e-08
7.079098
-7.079098
7.079098
7.079105
-1.599989e-07
-5.793825e-08
-7.079104
7.079105
-1.347204e-07
-5.930791e-08
-5.082932e-08
1.071377e-08
7.079105
-1.766757e-07
-4.1138e-08
-7.079104
7.079105
-1.467969e-07
-5.385563e-08
-5.832998e-08
1.22708e-08
7.079105
-7.079104
7.079105
7.079098
1.095688e-08
-7.079098
7.079098
7.788918e-08
7.595846e-08
7.079098
4.44339e-08
-7.079098
7.079098
9.541789e-08
8.501615e-08
7.079098
-7.079098
7.079098
7.079105
-1.958489e-07
-1.723172e-07
-7.079104
7.079105
-2.042737e-07
-2.031707e-07
-6.566519e-08
-6.280373e-08
7.079105
-1.945785e-07
-1.736299e-07
-7.079104
7.079105
-2.039325e-07
-2.033004e-07
-6.548218e-08
-6.251589e-08
7.079098
-1.803732e-07
-1.829564e-07
-7.079098
7.079099
-2.036045e-07
-2.040755e-07
-6.605166e-08
-6.594683e-08
7.079105
-7.079104
7.079105
7.079098
-7.079098
7.079099
7.079098
-7.079098
7.079099
7.079098
-9.329008e-11
-2.3544e-10
-7.079098
7.079098
-2.137704e-11
-1.076665e-10
7.333138e-12
-4.087861e-11
7.079104
-1.696969e-10
-7.079104
7.079104
-8.850804e-11
-4.792028e-11
7.079098
-1.67298e-10
-7.079098
7.079098
-7.466466e-11
-4.333521e-11
7.079104
2.305104e-10
9.076817e-11
-7.079104
7.079104
1.34975e-10
6.250689e-11
7.88901e-11
3.52492e-11
7.079104
-7.079104
7.079104
7.079098
-7.079098
7.079098
7.079105
-1.794492e-08
-1.058615e-07
-7.079104
7.079105
-2.826996e-08
-8.933375e-08
1.084122e-08
-3.488057e-08
7.079105
-1.155689e-08
-1.175711e-07
-7.079104
7.079105
-2.620498e-08
-9.65548e-08
1.149175e-08
-3.899402e-08
7.079098
2.470999e-08
-7.079098
7.079098
6.038191e-08
5.470091e-08
7.079098
6.612335e-09
-7.079098
7.079098
5.109589e-08
4.993692e-08
7.079098
-7.079098
7.079098
7.079105
-7.079104
7.079105
7.079098
3.934961e-12
2.136686e-12
-7.079098
7.079098
1.699233e-12
7.112653e-13
1.433526e-13
-7.638455e-13
7.079098
-4.631259e-12
-7.079098
7.079098
-4.038118e-12
-2.782382e-12
7.079104
-1.032366e-12
-7.079104
7.079104
-1.664022e-12
-1.629129e-12
7.079104
1.292978e-12
-7.079104
7.079104
9.029179e-13
2.685288e-13
7.079098
-2.569976e-12
-7.079098
7.079098
-3.795603e-12
-3.247482e-12
7.079104
-7.079104
7.079104
7.079084
3.024989e-07
-8.254863e-08
-7.079084
7.079084
-7.814768e-08
-2.968943e-07
-9.358311e-08
-1.561591e-07
7.07909
-1.584222e-07
-7.079091
7.079091
-8.927186e-08
4.527773e-08
7.079091
2.871104e-07
-1.890962e-08
-7.079091
7.079091
-8.297049e-10
-2.601049e-07
2.368307e-08
-8.679972e-08
7.079084
-7.939459e-08
-7.079084
7.079084
-1.298003e-07
-2.629116e-09
7.07909
-7.079091
7.079091
7.079084
-7.079084
7.079084
7.079102
1.995023e-08
-4.884821e-08
-7.079102
7.079103
-3.780147e-08
-5.426899e-08
2.714034e-10
-2.085658e-08
7.079096
2.423104e-08
-7.079096
7.079096
6.654618e-08
5.047447e-08
7.079102
1.991852e-08
-4.860142e-08
-7.079102
7.079103
-3.779893e-08
-5.407778e-08
2.553256e-10
-2.077271e-08
7.079096
2.450954e-08
-7.079096
7.079096
6.673484e-08
5.057443e-08
7.079096
-7.079096
7.079096
7.079102
-7.079102
7.079103
7.079103
1.106794e-08
2.787391e-09
-7.079103
7.079103
2.110343e-09
7.248455e-09
1.05855e-09
7.400252e-09
7.079103
-2.804594e-09
-7.079103
7.079103
9.157958e-09
5.34326e-09
7.079096
1.997033e-08
-7.079096
7.079096
1.9664e-08
1.137052e-08
7.079103
8.648928e-09
-7.079103
7.079103
9.717835e-09
7.647696e-09
7.079096
5.845444e-09
-7.079096
7.079096
5.926317e-09
4.721247e-09
7.079096
-7.079096
7.079096
7.079104
-1.67214e-10
-1.757732e-10
-7.079104
7.079104
-6.134854e-11
-7.135388e-11
1.529558e-11
8.475672e-12
7.079104
1.694257e-10
-7.079104
7.079104
1.883365e-10
1.439702e-10
7.079104
1.726137e-10
-7.079104
7.079104
1.943637e-10
1.472646e-10
7.079104
8.862165e-11
-7.079104
7.079104
1.173006e-10
1.089001e-10
7.079104
9.400285e-11
-7.079104
7.079104
1.212854e-10
1.124463e-10
7.079104
-7.079104
7.079104
7.079104
-7.275876e-09
-1.506816e-08
-7.079104
7.079104
-5.916621e-09
-1.298565e-08
-5.13775e-11
-5.02285e-09
7.079098
-2.135865e-09
-7.079098
7.079098
4.34844e-09
4.116344e-09
7.079104
-1.302311e-08
-9.484726e-09
-7.079104
7.079104
-1.142584e-08
-5.874342e-09
-4.745638e-09
1.722248e-09
7.079098
-2.118032e-09
-7.079098
7.079098
-5.865953e-09
-2.6199e-09
7.079104
-7.079104
7.079104
7.079098
-7.079098
7.079098
7.079097
-1.943052e-08
-9.191895e-09
-7.079097
7.079097
-1.203663e-08
-5.666843e-09
-8.382574e-10
2.674391e-09
7.079097
6.023575e-09
-7.079097
7.079097
1.875236e-08
1.738816e-08
7.079097
1.081272e-08
-7.079097
7.079097
2.097147e-08
1.829099e-08
7.079104
1.02764e-08
-7.079104
7.079104
1.473046e-08
1.481356e-08
7.079104
-4.751377e-09
-7.079104
7.079104
6.141553e-09
1.039808e-08
7.079104
-7.079104
7.079104
7.079104
-1.36342e-10
-1.343831e-10
-7.079104
7.079104
-7.487827e-11
-6.569251e-11
-1.611023e-11
-1.074662e-11
7.079104
-3.244949e-11
-7.079104
7.079104
3.383752e-11
4.489208e-11
7.079104
-3.607122e-11
-7.079104
7.079104
2.694093e-11
4.218222e-11
7.079104
-8.825088e-11
-7.079104
7.079104
2.267611e-13
3.121386e-11
7.079104
-8.991583e-11
-7.079104
7.079104
2.512189e-12
3.386977e-11
7.079104
-7.079104
7.079104
7.079097
-1.759999e-08
-3.072515e-09
-7.079097
7.079098
-1.370794e-08
-6.833637e-09
-5.309666e-09
3.009498e-10
7.079097
-1.379359e-08
-3.283989e-09
-7.079097
7.079098
-1.170488e-08
-6.908669e-09
-4.258085e-09
2.692949e-10
7.079097
-7.079097
7.079098
7.079104
5.064343e-09
-7.079104
7.079104
1.066439e-08
8.775237e-09
7.079104
1.046471e-09
-7.079104
7.079104
8.586305e-09
7.691987e-09
7.079104
-7.079104
7.079104
7.079098
-2.513762e-10
-1.290549e-10
-7.079098
7.079098
-5.690175e-11
2.521345e-11
-3.129093e-11
1.241529e-11
7.079098
2.280882e-10
-7.079098
7.079098
6.458899e-12
-5.082128e-11
7.079104
1.480348e-10
-7.079104
7.079104
7.399368e-11
1.702837e-11
7.079098
2.848037e-10
-7.079098
7.079098
1.725083e-11
-4.630537e-11
7.079104
-3.097966e-11
-7.079104
7.079104
-1.889682e-11
-3.118312e-11
7.079104
-7.079104
7.079104
7.079098
-2.661041e-11
-2.633115e-11
-7.079098
7.079098
-5.521771e-12
-6.525539e-12
3.862475e-12
3.111886e-12
7.079098
5.34175e-11
-7.079098
7.079098
3.571527e-11
2.245353e-11
7.079098
5.342375e-11
-7.079098
7.079098
3.638508e-11
2.28366e-11
7.079104
1.015635e-11
-7.079104
7.079104
1.793608e-11
1.57862e-11
7.079104
1.041569e-11
-7.079104
7.079104
1.760001e-11
1.541439e-11
7.079104
-7.079104
7.079104
7.079097
-4.243343e-10
-2.347698e-09
-7.079097
7.079097
2.273338e-09
-2.279441e-09
2.029049e-09
-2.786416e-10
7.079097
7.360229e-09
-7.079097
7.079097
4.48103e-09
2.611436e-09
7.079104
-5.312227e-09
3.45138e-09
-7.079104
7.079104
-5.061046e-09
4.783182e-09
-2.479461e-09
3.544239e-09
7.079097
-5.200084e-10
-7.079097
7.079097
8.104131e-10
1.104592e-09
7.079104
-7.079104
7.079104
7.079104
-7.079104
7.079104
7.079098
2.773169e-11
-9.578639e-11
-7.079098
7.079098
2.881825e-11
-4.38477e-11
2.090097e-11
-1.425197e-11
7.079098
1.8221e-11
-7.079098
7.079098
1.762693e-11
1.291956e-11
7.079104
-1.113506e-10
-1.09053e-11
-7.079104
7.079104
-4.913227e-11
2.267875e-11
-1.85031e-11
2.366118e-11
7.079098
-7.079098
7.079098
7.079104
-4.129626e-11
-7.079104
7.079104
-1.849556e-11
-5.916832e-12
7.079104
-7.079104
7.079104
7.079104
-8.91819e-09
-2.499775e-08
-7.079104
7.079104
-9.771717e-09
-1.782953e-08
-1.249568e-09
-5.379915e-09
7.079097
-1.915262e-08
-2.177041e-08
-7.079097
7.079097
-1.501493e-08
-1.687685e-08
-4.043175e-09
-5.087236e-09
7.079104
-7.868692e-09
-2.133046e-08
-7.079104
7.079104
-9.540218e-09
-1.573609e-08
-1.192943e-09
-4.279227e-09
7.079097
-7.079097
7.079097
7.079097
-7.079097
7.079097
7.079104
-7.079104
7.079104
7.079104
1.283809e-10
1.169931e-10
-7.079104
7.079104
5.894835e-11
4.942259e-11
-1.294652e-11
-1.838132e-11
7.079098
-2.018003e-10
-7.079098
7.079098
-2.004218e-10
-1.528947e-10
7.079104
-1.932775e-10
-7.079104
7.079104
-1.946773e-10
-1.505352e-10
7.079104
-2.728517e-11
-7.079104
7.079104
-8.751731e-11
-9.63599e-11
7.079098
-3.016247e-11
-7.079098
7.079098
-9.1333e-11
-9.947023e-11
7.079098
-7.079098
7.079098
7.079097
1.695779e-08
-2.981691e-08
-7.079097
7.079097
-1.199203e-08
-4.090233e-08
-7.95168e-09
-1.890951e-08
7.079103
1.547483e-09
-7.079104
7.079104
3.139884e-09
1.308557e-08
7.079104
2.12196e-09
-3.988725e-08
-7.079104
7.079104
-1.268632e-08
-4.647415e-08
-9.769717e-10
-1.67873e-08
7.079104
-7.079104
7.079104
7.079097
6.313e-09
-7.079097
7.079097
-1.737632e-09
8.233052e-09
7.079097
-7.079097
7.079097
7.079097
5.643373e-09
6.326174e-09
-7.079097
7.079097
2.524488e-09
2.685191e-09
6.903771e-11
1.046396e-10
7.079097
-2.372773e-09
-7.079097
7.079097
-3.868171e-09
-3.304535e-09
7.079104
-1.001268e-09
-7.079104
7.079104
-2.189661e-09
-2.388691e-09
7.079097
-2.543921e-09
-7.079097
7.079097
-3.815723e-09
-3.259599e-09
7.079104
-1.512927e-09
-7.079104
7.079104
-2.402807e-09
-2.469229e-09
7.079104
-7.079104
7.079104
7.079104
-4.93912e-10
-4.794891e-10
-7.079104
7.079104
-2.541212e-10
-3.185941e-10
1.461455e-10
8.642817e-12
7.079098
4.20249e-10
-7.079098
7.079098
9.668073e-10
8.767147e-10
7.079104
4.537409e-10
-7.079104
7.079104
8.369184e-10
6.587322e-10
7.079104
3.644671e-10
-7.079104
7.079104
4.08267e-10
3.937559e-10
7.079098
-4.123704e-10
-7.079098
7.079098
-2.139018e-10
-3.823868e-11
7.079098
-7.079098
7.079098
7.079104
-1.174794e-08
-4.676486e-09
-7.079104
7.079104
-8.076915e-09
-1.059419e-09
-2.744203e-09
1.961225e-09
7.079098
-1.373831e-08
-3.091056e-09
-7.079098
7.079098
-9.407973e-09
-4.936029e-10
-3.508003e-09
2.161494e-09
7.079104
-7.079104
7.079104
7.079104
4.398794e-09
-7.079104
7.079104
6.075823e-09
4.94285e-09
7.079098
8.229964e-10
-7.079098
7.079098
4.178941e-09
3.978767e-09
7.079098
-7.079098
7.079098
7.079104
-2.672276e-08
-6.965935e-09
-7.079104
7.079104
-2.313901e-08
-9.377728e-09
-9.003971e-09
1.973607e-09
7.079104
-5.452756e-09
-2.84328e-08
-7.079104
7.079104
-8.85008e-09
-2.430487e-08
2.155761e-09
-9.680923e-09
7.079098
2.664638e-09
-7.079098
7.079098
1.369772e-08
1.320918e-08
7.079104
-7.079104
7.079104
7.079098
5.887897e-09
-7.079098
7.079098
1.539125e-08
1.406828e-08
7.079098
-7.079098
7.079098
7.079105
-5.519465e-08
-9.369127e-09
-7.079104
7.079105
-4.058361e-08
7.585388e-09
-1.671864e-08
1.912858e-08
7.079098
1.603707e-09
-6.244716e-08
-7.079098
7.079098
6.393177e-09
-4.455517e-08
1.254423e-08
-1.566103e-08
7.079098
2.504244e-08
-7.079098
7.079098
2.50231e-08
1.777945e-08
7.079105
-7.079104
7.079105
7.079098
-4.326779e-08
-7.079098
7.079098
-2.780245e-08
-1.013747e-08
7.079105
-7.079104
7.079105
7.079098
-5.274025e-13
-4.970939e-13
-7.079098
7.079098
-1.061852e-13
-1.11901e-13
5.085641e-14
4.818813e-14
7.079098
8.491925e-13
-7.079098
7.079098
5.59335e-13
3.392259e-13
7.079104
8.337127e-13
-7.079104
7.079104
5.703797e-13
3.430359e-13
7.079104
1.217025e-13
-7.079104
7.079104
2.708732e-13
2.435349e-13
7.079098
1.344237e-13
-7.079098
7.079098
2.671288e-13
2.286514e-13
7.079104
-7.079104
7.079104
7.079104
-7.089787e-11
-1.218281e-10
-7.079104
7.079104
-3.331459e-11
-7.472131e-11
2.439542e-11
-5.052471e-14
7.079104
1.548947e-10
-7.079104
7.079104
1.769227e-10
1.400118e-10
7.079104
-6.421149e-11
-7.079104
7.079104
4.512632e-11
7.8086e-11
7.079098
8.609794e-11
-7.079098
7.079098
1.566522e-10
1.331586e-10
7.079098
5.553496e-11
-7.079098
7.079098
1.068316e-10
1.093806e-10
7.079098
-7.079098
7.079098
7.079098
-5.700399e-12
-6.1458e-12
-7.079098
7.079098
-2.33999e-12
-2.724986e-12
5.258627e-13
2.57649e-13
7.079104
6.780233e-12
-7.079104
7.079104
7.107175e-12
5.574131e-12
7.079104
2.369229e-14
-7.079104
7.079104
3.128055e-12
3.710578e-12
7.079098
6.861344e-12
-7.079098
7.079098
7.353459e-12
5.700158e-12
7.079098
4.079069e-13
-7.079098
7.079098
3.291238e-12
3.861364e-12
7.079104
-7.079104
7.079104
7.079098
2.049885e-10
4.421975e-11
-7.079098
7.079098
1.202918e-10
-1.938403e-11
4.977599e-11
-5.018734e-11
7.079104
1.557388e-11
2.09354e-10
-7.079104
7.079104
-1.759624e-11
1.213218e-10
-3.693957e-11
4.077824e-11
7.079104
-7.555386e-11
-7.079104
7.079104
-6.525901e-11
-4.48129e-11
7.079098
1.085526e-10
-7.079098
7.079098
6.449995e-11
2.254908e-11
7.079104
-7.079104
7.079104
7.079098
-7.079098
7.079098
7.079105
-7.96273e-08
-1.507268e-07
-7.079104
7.079105
-9.906737e-08
-1.158779e-07
-4.549386e-08
-2.831392e-08
7.079098
-4.24837e-08
-7.079098
7.079098
-2.869135e-09
2.430517e-08
7.079098
-8.984798e-08
-9.429078e-08
-7.079098
7.079098
-1.09036e-07
-8.862464e-08
-5.171832e-08
-1.425492e-08
7.079105
-3.305857e-08
-7.079104
7.079105
6.469955e-09
3.033816e-08
7.079098
-7.079098
7.079098
7.079105
-7.079104
7.079105
7.079104
4.510093e-12
4.071641e-12
-7.079104
7.079104
3.214276e-12
2.633817e-12
1.279599e-12
3.623826e-13
7.079104
1.070175e-12
-7.079104
7.079104
3.122725e-14
-5.874593e-13
7.079098
5.186777e-12
3.080814e-12
-7.079098
7.079098
2.832574e-12
2.573449e-12
4.515989e-13
9.082158e-13
7.079098
-7.079098
7.079098
7.079098
6.026852e-13
-7.079098
7.079098
-3.582917e-13
-7.868652e-13
7.079104
-7.079104
7.079104
7.079106
-3.793378e-07
-4.027983e-07
-7.079105
7.079107
-1.713709e-07
-2.031685e-07
7.025927e-09
-8.853643e-09
7.079106
2.399315e-07
-7.079105
7.079107
3.390195e-07
2.926986e-07
7.079106
2.467265e-07
-7.079105
7.079107
3.494479e-07
2.947102e-07
7.079099
4.942847e-08
-7.079098
7.0791
1.659978e-07
1.997492e-07
7.079099
6.60939e-08
-7.079098
7.0791
1.87367e-07
2.136172e-07
7.079099
-7.079098
7.0791
7.079097
-8.566869e-08
-4.374198e-09
-7.079097
7.079097
-7.253471e-08
-3.83712e-08
-2.94011e-08
-8.518973e-10
7.079097
-8.982054e-08
-7.720109e-09
-7.079097
7.079097
-7.156557e-08
-3.503483e-08
-3.058103e-08
9.56513e-09
7.079097
-7.079097
7.079097
7.079104
2.471623e-08
-7.079104
7.079104
4.781773e-08
3.419283e-08
7.079104
-2.39103e-08
-7.079104
7.079104
-4.545051e-08
-2.259586e-08
7.079104
-7.079103
7.079104
7.079098
5.259243e-11
3.170579e-10
-7.079098
7.079098
-8.33095e-12
1.356565e-10
-4.779834e-11
8.918681e-12
7.079098
-2.823832e-10
-7.079098
7.079098
-2.314804e-10
-1.516615e-10
7.079098
-2.110843e-10
-7.079098
7.079098
-2.43229e-10
-1.8781e-10
7.079104
2.563541e-11
-7.079104
7.079104
-2.942912e-11
-4.88596e-11
7.079104
3.101203e-10
-7.079104
7.079104
1.616378e-10
6.940955e-11
7.079104
-7.079104
7.079104
7.079098
-5.982448e-10
-1.289112e-10
-7.079098
7.079098
-3.040055e-10
3.834028e-11
-9.28429e-11
8.360069e-11
7.079104
-5.872795e-10
-2.247277e-10
-7.079104
7.079104
-3.036546e-10
4.796706e-11
-1.137311e-10
1.23627e-10
7.079104
-7.079104
7.079104
7.079098
2.842649e-10
-7.079098
7.079098
1.791615e-10
1.112721e-10
7.079098
-3.90995e-10
-7.079098
7.079098
-1.698522e-10
-5.03527e-11
7.079104
-7.079104
7.079104
7.079104
1.785302e-09
2.145865e-10
-7.079104
7.079104
6.025335e-10
4.816067e-10
2.436081e-10
3.126591e-10
7.079104
-1.006549e-09
-7.079104
7.079104
1.720413e-10
9.202046e-11
7.079104
9.621776e-10
-7.079104
7.079104
7.489473e-10
4.11494e-10
7.079098
6.705785e-10
-7.079098
7.079098
6.5523e-10
2.473375e-10
7.079098
8.557591e-10
-7.079098
7.079098
3.866936e-10
1.871343e-10
7.079098
-7.079098
7.079098
7.079105
-5.993817e-08
-4.521315e-07
-7.079104
7.079106
-9.04986e-08
-3.484862e-07
4.316306e-08
-1.389009e-07
7.079098
7.277179e-09
-7.079097
7.079099
1.69098e-07
1.668162e-07
7.079105
-9.724321e-08
-3.905364e-07
-7.079104
7.079106
-1.027819e-07
-3.096392e-07
3.951093e-08
-1.162052e-07
7.079098
1.061772e-07
-7.079097
7.079099
2.202282e-07
1.931641e-07
7.079105
-7.079104
7.079106
7.079098
-7.079097
7.079099
7.079098
-1.689594e-08
8.384879e-10
-7.079097
7.079098
-1.476113e-08
-5.385276e-09
-6.017133e-09
9.30541e-10
7.079098
-1.632332e-08
-1.468599e-10
-7.079097
7.079098
-1.413065e-08
-4.55607e-09
-6.155455e-09
3.13465e-09
7.079098
-7.079097
7.079098
7.079104
4.046919e-09
-7.079104
7.079104
9.214325e-09
6.686467e-09
7.079104
-5.604905e-09
-7.079104
7.079104
-9.015605e-09
-4.344044e-09
7.079104
-7.079104
7.079104
7.079098
-1.616519e-09
-6.81285e-09
-7.079098
7.079098
5.867019e-11
-4.432096e-09
9.916543e-10
-1.496409e-09
7.079104
-6.43808e-09
-2.630341e-09
-7.079104
7.079104
-4.205354e-09
1.563804e-10
-1.673164e-09
1.616369e-09
7.079098
2.436075e-09
-7.079098
7.079098
2.268036e-09
1.608928e-09
7.079104
-3.824687e-09
-7.079104
7.079104
-2.397093e-09
-8.074623e-10
7.079098
-7.079098
7.079098
7.079104
-7.079104
7.079104
7.079103
1.768473e-09
1.293593e-08
-7.079103
7.079103
-3.491539e-08
-3.018246e-08
-2.121608e-08
-1.062285e-08
7.079096
2.83954e-09
1.243839e-08
-7.079096
7.079096
-3.380146e-08
-3.048007e-08
-2.009568e-08
-1.091691e-08
7.079096
1.091002e-08
-7.079096
7.079096
4.644514e-09
1.036878e-08
7.079103
9.856288e-09
-7.079103
7.079103
3.409805e-09
9.403207e-09
7.079096
-7.079096
7.079096
7.079103
-7.079103
7.079103
7.079104
-3.62689e-13
-4.687324e-13
-7.079104
7.079104
-3.114757e-14
-8.229199e-14
4.099259e-14
1.563673e-14
7.079104
7.935214e-13
-7.079104
7.079104
4.208272e-13
2.359409e-13
7.079104
8.52401e-13
-7.079104
7.079104
4.507115e-13
2.322955e-13
7.079098
1.270867e-13
-7.079098
7.079098
2.287483e-13
1.512235e-13
7.079098
1.805548e-13
-7.079098
7.079098
2.489548e-13
1.773332e-13
7.079098
-7.079098
7.079098
7.079104
-5.554854e-10
-1.962071e-09
-7.079104
7.079104
-2.472275e-10
-7.518816e-10
6.766492e-11
-1.559297e-10
7.079098
6.565236e-10
-7.079098
7.079098
6.74962e-10
5.918757e-10
7.079104
1.654825e-09
-7.079104
7.079104
9.719308e-10
6.915966e-10
7.079098
-5.854323e-10
-7.079098
7.079098
1.082186e-10
3.01661e-10
7.079104
-1.77158e-10
-7.079104
7.079104
3.159038e-10
4.255348e-10
7.079098
-7.079098
7.079098
7.079105
-3.177718e-07
-3.922357e-07
-7.079104
7.079106
-3.163389e-07
-3.002559e-07
-1.438485e-07
-6.415902e-08
7.079098
-3.078946e-07
-3.923721e-07
-7.079098
7.0791
-3.127987e-07
-2.992586e-07
-1.422367e-07
-6.321423e-08
7.079105
-8.049908e-08
-7.079104
7.079106
1.348573e-08
7.844466e-08
7.079098
-7.844233e-08
-7.079098
7.0791
1.613735e-08
8.026728e-08
7.079105
-7.079104
7.079106
7.079099
-7.079098
7.0791
7.079104
1.421057e-10
-1.919584e-11
-7.079104
7.079104
8.819418e-11
-3.607133e-12
4.00479e-12
-4.66595e-11
7.079104
-1.056958e-10
-7.079104
7.079104
-1.777088e-10
-1.502466e-10
7.079098
-1.918722e-10
-7.079098
7.079098
-2.11464e-10
-1.623865e-10
7.079098
1.148246e-10
-7.079098
7.079098
-2.38942e-11
-7.117513e-11
7.079104
-1.326409e-10
-7.079104
7.079104
-1.494381e-10
-1.339667e-10
7.079098
-7.079098
7.079098
7.079104
-6.089753e-12
-6.469048e-11
-7.079104
7.079104
1.85427e-12
-4.008347e-11
9.742387e-12
-1.543034e-11
7.079104
-1.66463e-11
-4.409479e-11
-7.079104
7.079104
-1.654012e-12
-2.788191e-11
8.592286e-12
-8.641884e-12
7.079104
2.594809e-11
-7.079104
7.079104
2.70123e-11
2.017595e-11
7.079104
-5.17719e-12
-7.079104
7.079104
1.131072e-11
1.222866e-11
7.079104
-7.079104
7.079104
7.079104
-7.079104
7.079104
7.079098
-4.630643e-13
-9.637007e-13
-7.079098
7.079098
1.036381e-13
-5.074236e-14
8.946328e-14
-4.87918e-15
7.079098
-2.025083e-13
-7.079098
7.079098
-6.27209e-14
-1.626587e-13
7.079098
-1.719653e-13
-7.079098
7.079098
-8.07082e-14
-1.469571e-13
7.079104
-5.426693e-13
-1.006294e-12
-7.079104
7.079104
1.269141e-13
-2.304997e-14
6.246738e-14
-1.40165e-14
7.079104
-7.079104
7.079104
7.079104
-7.079104
7.079104
7.079104
-1.298988e-08
-1.596557e-08
-7.079104
7.079104
-1.285686e-08
-1.364152e-08
-5.763312e-09
-5.420979e-09
7.079098
-7.376156e-09
-7.079098
7.079098
-2.417985e-09
2.309809e-09
7.079098
-1.411362e-08
-1.623285e-08
-7.079098
7.079098
-1.046185e-08
-1.224929e-08
-2.693446e-09
-3.089804e-09
7.079104
-6.5197e-09
-7.079104
7.079104
-3.420796e-09
1.571124e-09
7.079098
-7.079098
7.079098
7.079104
-7.079104
7.079104
7.079104
-2.334777e-09
-1.965318e-09
-7.079104
7.079104
-1.36162e-08
-1.516131e-08
-8.263619e-09
-6.531254e-09
7.079104
1.13391e-08
-7.079104
7.079104
6.137211e-09
9.315929e-09
7.079104
-1.445939e-08
-2.107058e-08
-7.079104
7.079104
-1.565562e-08
-2.368671e-08
-5.183439e-09
-7.512913e-09
7.079104
-7.079104
7.079104
7.079104
4.358443e-09
-7.079104
7.079104
-3.487929e-10
5.254066e-09
7.079104
-7.079104
7.079104
7.079098
3.457111e-10
-4.134556e-10
-7.079098
7.079098
9.51946e-11
-1.66465e-10
3.666859e-11
-1.111322e-11
7.079098
-7.724748e-10
-7.079098
7.079098
-1.6369e-10
-3.208721e-11
7.079104
3.301403e-11
-2.220995e-10
-7.079104
7.079104
-4.246685e-11
-1.274212e-12
2.788619e-11
6.642525e-11
7.079104
-7.079104
7.079104
7.079098
-2.418119e-10
-7.079098
7.079098
-5.678745e-11
2.282435e-11
7.079104
-7.079104
7.079104
7.079098
1.753648e-10
3.733221e-11
-7.079098
7.079098
1.07515e-10
-6.86795e-12
3.872938e-11
-3.691527e-11
7.079104
1.460358e-11
1.991805e-10
-7.079104
7.079104
-1.50415e-11
1.226636e-10
-3.994384e-11
4.710922e-11
7.079104
-2.048308e-11
-7.079104
7.079104
-5.359541e-11
-4.719716e-11
7.079104
-7.079104
7.079104
7.079098
-6.701674e-11
-7.079098
7.079098
-7.691495e-11
-5.860797e-11
7.079098
-7.079098
7.079098
7.079104
6.893765e-11
7.567211e-11
-7.079104
7.079104
2.632005e-11
2.941109e-11
-7.969882e-12
-1.660756e-11
7.079098
-1.47337e-10
-7.079098
7.079098
-1.263784e-10
-8.552799e-11
7.079104
-1.098232e-10
-7.079104
7.079104
-1.285419e-10
-1.030326e-10
7.079098
-5.110406e-11
-7.079098
7.079098
-5.106639e-11
-4.584321e-11
7.079098
9.533623e-11
-7.079098
7.079098
5.196292e-11
1.969445e-11
7.079104
-7.079104
7.079104
7.079096
-5.901141e-08
3.636417e-08
-7.079096
7.079096
-6.205397e-08
-2.168579e-08
-2.532252e-08
8.989314e-09
7.079096
-5.975498e-08
3.653049e-08
-7.079096
7.079096
-6.266336e-08
-2.164012e-08
-2.576579e-08
8.947805e-09
7.079096
-7.079096
7.079096
7.079103
4.312213e-08
-7.079103
7.079103
7.051299e-08
5.253255e-08
7.079103
4.403201e-08
-7.079103
7.079103
7.116803e-08
5.293431e-08
7.079103
-7.079103
7.079103
7.079104
3.94433e-11
1.400044e-10
-7.079104
7.079104
9.49666e-12
6.876866e-11
-2.145714e-11
9.957377e-12
7.079104
-8.803044e-11
-7.079104
7.079104
-9.801648e-11
-8.029695e-11
7.079098
-1.226398e-10
-7.079098
7.079098
-1.131501e-10
-8.554464e-11
7.079098
-1.563233e-11
-7.079098
7.079098
-6.184379e-11
-6.538191e-11
7.079104
5.029767e-11
-7.079104
7.079104
-1.771633e-11
-3.921699e-11
7.079098
-7.079098
7.079098
7.079104
6.632991e-10
5.782741e-10
-7.079104
7.079104
2.753171e-10
2.183769e-10
-7.477603e-11
-1.062344e-10
7.079098
-1.157724e-09
-7.079098
7.079098
-1.053699e-09
-7.753035e-10
7.079104
-1.093534e-09
-7.079104
7.079104
-1.014531e-09
-7.591326e-10
7.079098
-2.449381e-10
-7.079098
7.079098
-4.949897e-10
-5.048892e-10
7.079104
-2.241125e-10
-7.079104
7.079104
-4.771907e-10
-4.895901e-10
7.079098
-7.079098
7.079098
7.079037
-1.961314e-11
-1.465637e-11
-7.079037
7.079037
-1.748144e-11
-1.35698e-11
-5.799842e-12
-3.906108e-12
7.079037
-1.623333e-11
-7.079037
7.079037
-2.120517e-12
3.951916e-12
7.079131
-1.604483e-11
-7.079131
7.079131
-1.154089e-12
4.886167e-12
7.079131
-3.63669e-11
-3.121108e-11
-7.079131
7.079131
-1.905812e-11
-1.417355e-11
-4.85215e-12
-2.043948e-12
7.079037
-7.079037
7.079037
7.079131
-7.079131
7.079131
7.079098
-1.080947e-11
-9.683409e-12
-7.079098
7.079098
-3.429319e-12
-3.007663e-12
-2.116274e-13
4.66156e-13
7.079098
8.231693e-12
-7.079098
7.079098
6.520196e-12
4.066478e-12
7.079098
9.316715e-12
-7.079098
7.079098
4.909804e-12
3.052846e-12
7.079104
4.7525e-12
-7.079104
7.079104
6.615068e-12
5.039163e-12
7.079104
-1.167339e-11
-7.079104
7.079104
-4.39693e-12
-1.375332e-12
7.079104
-7.079104
7.079104
7.079104
-4.046766e-11
-4.817063e-10
-7.079104
7.079104
7.692991e-11
-2.164635e-10
8.141046e-11
-6.725991e-11
7.079104
2.732844e-10
-7.079104
7.079104
1.440034e-10
8.171344e-11
7.079098
-4.997924e-10
-1.120143e-10
-7.079098
7.079098
-2.301382e-10
8.376362e-11
-8.75369e-11
1.062705e-10
7.079098
-7.079098
7.079098
7.079104
-3.267601e-10
-7.079104
7.079104
-1.235074e-10
-3.657318e-11
7.079098
-7.079098
7.079098
7.079131
-2.482758e-12
-2.685422e-12
-7.079131
7.079131
-4.978407e-13
-6.197553e-13
3.054378e-13
2.628464e-13
7.079131
4.719969e-12
-7.079131
7.079131
3.117216e-12
1.960893e-12
7.079131
4.894947e-12
-7.079131
7.079131
3.201553e-12
1.977568e-12
7.079037
8.656404e-13
-7.079037
7.079037
1.584819e-12
1.355851e-12
7.079037
8.273766e-13
-7.079037
7.079037
1.533161e-12
1.331071e-12
7.079037
-7.079037
7.079037
7.079104
6.582906e-12
3.360352e-12
-7.079104
7.079104
3.645017e-12
1.783852e-12
-8.549451e-13
-1.915249e-12
7.079104
-9.114732e-12
-7.079104
7.079104
-1.219934e-11
-9.889645e-12
7.079098
-1.321578e-11
-7.079098
7.079098
-1.381497e-11
-1.045382e-11
7.079098
1.615983e-12
-7.079098
7.079098
-4.379736e-12
-5.884859e-12
7.079104
-5.728737e-12
-7.079104
7.079104
-7.87921e-12
-7.53237e-12
7.079098
-7.079098
7.079098
7.079104
1.095672e-08
1.213427e-08
-7.079104
7.079104
3.98903e-09
5.130708e-09
-1.515241e-09
-2.280219e-09
7.079104
-2.525193e-08
-7.079104
7.079104
-2.117865e-08
-1.437265e-08
7.079104
-1.926761e-08
-7.079104
7.079104
-2.174343e-08
-1.747563e-08
7.079097
-9.980684e-09
-7.079097
7.079097
-8.750053e-09
-7.499702e-09
7.079097
1.714254e-08
-7.079097
7.079097
9.326962e-09
3.631745e-09
7.079097
-7.079097
7.079097
7.079131
2.153116e-12
1.998374e-12
-7.079131
7.079131
8.5497e-13
7.712212e-13
-1.047199e-13
-1.399324e-13
7.079131
-2.066114e-12
-7.079131
7.079131
-2.156047e-12
-1.650351e-12
7.079131
-2.905468e-13
-7.079131
7.079131
-1.082985e-12
-1.16473e-12
7.079104
-2.102592e-12
-7.079104
7.079104
-2.176529e-12
-1.680148e-12
7.079104
-9.448265e-14
-7.079104
7.079104
-9.69433e-13
-1.106557e-12
7.079104
-7.079104
7.079104
7.079104
1.327342e-10
4.371738e-11
-7.079104
7.079104
7.154417e-11
2.541684e-11
4.504463e-11
3.224743e-11
7.079098
1.291113e-10
-7.079098
7.079098
1.063506e-10
5.585872e-11
7.079104
1.306092e-10
-7.079104
7.079104
1.401737e-10
8.498995e-11
7.079098
-6.874959e-11
-7.079098
7.079098
2.358644e-12
2.004998e-11
7.079098
-1.875478e-11
-7.079098
7.079098
-1.46617e-11
-3.712734e-12
7.079104
-7.079104
7.079104
7.079098
-1.305279e-07
-1.230158e-07
-7.079098
7.079099
-1.598143e-07
-1.401943e-07
-7.748861e-08
-2.992821e-08
7.079105
-2.279986e-07
-1.149493e-07
-7.079105
7.079106
-1.892427e-07
-1.443984e-07
-5.411034e-08
-6.722763e-08
7.079098
-4.096818e-08
-7.079098
7.079099
-3.657255e-09
3.582998e-08
7.079098
-7.079098
7.079099
7.079105
-6.456888e-08
-7.079105
7.079106
-2.156698e-08
2.48477e-08
7.079105
-7.079104
7.079106
7.079104
-1.619056e-09
-9.420071e-10
-7.079104
7.079104
-7.320891e-10
-3.256125e-10
-1.224903e-10
1.927765e-10
7.079104
1.246734e-09
-7.079104
7.079104
1.139738e-09
7.820459e-10
7.079104
5.630436e-10
-7.079104
7.079104
1.101373e-09
9.859221e-10
7.079131
1.345589e-10
-7.079131
7.079131
4.717315e-10
4.922176e-10
7.079131
-1.411949e-10
-7.079131
7.079131
-1.036288e-10