/*--------------------------------*- C++ -*----------------------------------*\
| =========                 |                                                 |
| \\      /  F ield         | OpenFOAM: The Open Source CFD Toolbox           |
|  \\    /   O peration     | Version:  2212                                  |
|   \\  /    A nd           | Website:  www.openfoam.com                      |
|    \\/     M anipulation  |                                                 |
\*---------------------------------------------------------------------------*/
FoamFile
{
    version     2.0;
    format      ascii;
    arch        "LSB;label=32;scalar=64";
    class       volScalarField;
    location    "200/fluidRegion";
    object      dgdt;
}
// * * * * * * * * * * * * * * * * * * * * * * * * * * * * * * * * * * * * * //

dimensions      [0 0 -1 0 0 0 0];

internalField   nonuniform List<scalar> 
23322
(
-7.547267e-17
-6.289389e-16
1.836502e-15
-3.018907e-16
-1.559768e-15
-1.949711e-15
1.84908e-15
1.446559e-15
-2.06292e-15
-2.012604e-16
-2.478019e-15
3.761054e-15
2.415125e-15
-1.522032e-15
-2.239022e-15
6.415177e-16
3.39627e-16
-1.358508e-15
-3.144697e-16
-5.786243e-16
3.283064e-15
1.257879e-16
-3.522061e-16
-2.641546e-16
6.79254e-16
1.660399e-15
-5.408874e-16
-1.522032e-15
-2.26418e-16
-4.025209e-16
-5.031511e-16
-7.295691e-16
9.685659e-16
-1.056618e-15
8.553577e-16
-1.87424e-15
-8.930932e-16
-1.13209e-16
-2.188707e-15
1.03146e-15
1.194984e-15
3.018907e-15
2.515758e-15
3.773637e-17
6.289395e-17
-1.84908e-15
4.150997e-16
-1.584926e-15
2.4906e-15
-6.918334e-16
-5.534667e-16
1.257879e-16
1.635243e-16
-9.937244e-16
4.402572e-16
1.157248e-15
-1.371087e-15
4.654148e-16
1.421402e-15
-1.13209e-15
-1.044039e-15
-1.03146e-15
1.635241e-16
-2.377391e-15
1.421403e-15
1.710715e-15
-1.14467e-15
1.823924e-15
2.427706e-15
1.270458e-15
-1.635243e-16
-1.119512e-15
1.87424e-15
-9.559879e-16
-4.276789e-16
-1.257879e-15
1.886819e-16
1.408824e-15
-1.182405e-15
5.786238e-16
1.710714e-15
1.257876e-17
8.176213e-16
-1.786188e-15
3.773629e-17
-1.144669e-15
-1.13209e-16
1.509453e-16
1.54719e-15
-1.383666e-15
-6.415182e-16
5.031518e-17
7.924637e-16
2.553494e-15
4.402574e-16
-2.163552e-15
5.786238e-16
-2.515752e-17
9.434083e-16
-5.28309e-16
-4.402577e-16
2.264184e-16
-1.421402e-15
2.276759e-15
-1.220141e-15
-7.673055e-16
-2.26418e-16
4.276784e-16
2.327074e-15
-5.031511e-16
1.081775e-15
-6.289389e-16
5.534662e-16
-1.723293e-15
6.163601e-16
1.962289e-15
1.635242e-16
-2.314497e-15
-4.528363e-16
-1.798767e-15
-4.151e-16
-9.685668e-16
4.276789e-16
-1.672979e-15
-1.534612e-15
1.069197e-15
1.584926e-15
-5.283086e-16
1.635241e-15
-5.66045e-16
-2.767331e-16
-2.16355e-15
-1.220141e-15
1.283035e-15
5.786238e-16
-9.55988e-16
3.899425e-16
4.276789e-16
-2.641546e-15
-1.849082e-15
5.534667e-16
-7.924637e-16
-8.176213e-16
-1.182406e-15
-3.157273e-15
-5.408875e-16
-2.767331e-16
1.069196e-15
-7.044114e-16
-1.081775e-15
2.150973e-15
3.144697e-16
3.396273e-15
4.905725e-16
1.018881e-15
8.176206e-16
2.38997e-16
-5.031505e-17
-3.899425e-16
-1.34593e-15
9.811457e-16
-1.094355e-15
-1.672979e-15
-5.031516e-17
3.522061e-16
2.314495e-15
9.937234e-16
-3.899421e-16
6.540971e-16
-7.924637e-16
5.031516e-17
-4.025209e-16
-7.169903e-16
4.402572e-16
1.358508e-15
4.654148e-16
-7.92463e-16
8.805153e-16
-1.622664e-15
-2.38997e-16
8.553569e-16
-5.912026e-16
5.786238e-16
5.283087e-16
-5.534662e-16
2.46544e-15
-9.811455e-16
9.182517e-16
-2.666703e-15
6.289394e-17
2.478021e-15
-5.786243e-16
1.597506e-15
1.2453e-15
7.16991e-16
6.79254e-16
1.006302e-16
1.320772e-15
6.918334e-16
-5.912031e-16
-4.276788e-16
-5.408879e-16
-4.905728e-16
1.081776e-15
-1.056617e-15
-1.257878e-17
-1.974868e-15
1.698135e-15
-1.64782e-15
1.459138e-15
2.226446e-15
-1.270458e-15
-1.446561e-15
3.270482e-16
-1.069196e-15
5.031511e-16
-7.924638e-16
-5.534669e-16
5.40888e-16
1.132089e-16
1.685556e-15
-8.176206e-16
2.515755e-15
-6.540964e-16
7.547264e-17
4.654152e-16
4.025213e-16
-1.597506e-15
9.811447e-16
1.283035e-15
3.647845e-16
5.408879e-16
-7.295697e-16
7.044122e-16
5.786238e-16
-9.811446e-16
3.647845e-16
-7.924637e-16
5.408879e-16
-1.194985e-15
-2.515756e-15
-1.635241e-16
1.723293e-15
2.591231e-15
1.182406e-15
-2.767334e-16
2.264182e-16
-2.578652e-15
5.912031e-16
-1.522032e-15
1.735871e-15
-4.150997e-16
7.421479e-16
2.012604e-16
9.05672e-16
-3.144694e-16
-6.540964e-16
-7.044115e-16
-1.257879e-16
-2.012606e-16
-3.018909e-16
8.427781e-16
-1.320772e-15
3.899421e-16
1.408824e-15
-1.383667e-15
-5.031516e-16
1.056618e-15
-2.264182e-16
8.050425e-16
1.270457e-15
-6.289389e-16
1.660399e-15
1.861659e-15
1.383666e-16
-2.767331e-16
1.044039e-15
1.283035e-15
1.33335e-15
-2.088077e-15
-1.018881e-15
-2.515756e-15
-1.937132e-15
-1.685556e-15
-5.157299e-16
-6.163601e-16
7.547267e-16
-5.031511e-16
-8.050418e-16
8.679356e-16
-1.534611e-15
4.402576e-16
1.018882e-15
-3.647849e-16
-1.169826e-15
1.056617e-15
-7.295691e-16
-1.484297e-15
-1.257879e-17
2.088079e-15
8.805145e-17
-1.018881e-15
2.352231e-15
1.257879e-15
-6.415183e-16
1.597506e-15
9.685668e-16
-6.289394e-17
-1.006303e-16
-1.182406e-15
-5.660455e-16
1.773609e-15
1.132091e-15
-9.811456e-16
-8.93094e-16
2.088077e-15
4.654148e-16
-4.276784e-16
5.031511e-16
9.685658e-16
5.408874e-16
1.886817e-15
2.767331e-16
1.874238e-15
2.377389e-15
-4.276784e-16
2.46544e-15
-4.654148e-16
5.66045e-16
-1.433981e-15
-2.100656e-15
5.66045e-16
-2.239022e-15
1.54719e-15
-1.761029e-15
7.92463e-16
-1.610084e-15
2.666701e-15
3.144694e-16
6.540964e-16
-1.257878e-17
-7.169903e-16
-3.496903e-15
1.308194e-15
1.6604e-15
2.779912e-15
1.157249e-15
-8.930941e-16
-8.805153e-16
2.540915e-15
-9.056728e-16
-3.647845e-16
1.13209e-15
4.654148e-16
3.182431e-15
-4.276784e-16
3.270482e-16
-5.031511e-17
8.427781e-16
6.540964e-16
6.540971e-16
7.044122e-16
7.547274e-17
-1.522034e-15
-1.018882e-15
-1.220143e-15
2.490598e-15
3.899421e-16
4.52836e-16
2.176131e-15
-6.163607e-16
-3.182434e-15
-2.314495e-15
2.213865e-15
8.679357e-16
9.559871e-16
-1.786186e-15
-1.006302e-16
8.679365e-16
-6.415183e-16
-6.289395e-17
-1.34593e-15
-8.805153e-16
1.87424e-15
-2.641546e-16
3.396273e-16
-2.213867e-15
1.635241e-16
2.767331e-16
3.157273e-15
8.176205e-16
1.924553e-15
-2.452862e-15
-1.106932e-15
-7.547267e-16
8.427781e-16
1.572349e-15
-1.194985e-15
2.830228e-15
1.182406e-15
4.402576e-16
-1.2453e-15
-2.26418e-16
5.031511e-17
-1.270457e-15
1.257879e-16
1.132091e-16
2.28934e-15
-1.559768e-15
6.540964e-16
-7.92463e-16
4.402572e-16
-1.144669e-15
9.434083e-16
1.119512e-15
-1.383667e-16
1.635243e-16
6.666758e-16
-1.836503e-15
3.899425e-16
-3.144694e-16
6.666752e-16
-7.547267e-16
1.257879e-16
1.433982e-15
2.138394e-16
-2.641543e-15
1.471717e-15
6.666752e-16
-1.761029e-16
1.886817e-16
-7.421479e-16
1.710714e-15
-2.26418e-16
-2.377389e-15
-1.836503e-15
5.408879e-16
2.503179e-15
-2.515756e-15
-8.050418e-16
1.094354e-15
-1.383667e-16
-8.679365e-16
2.012606e-16
-7.547273e-17
6.666759e-16
7.547273e-17
6.037813e-16
1.761029e-16
1.006302e-16
8.805144e-17
-6.540964e-16
3.899421e-16
9.811456e-16
2.213867e-15
-1.761031e-16
-1.660399e-15
-1.257878e-17
1.371087e-15
1.685556e-15
1.383666e-15
-6.666752e-16
8.805153e-17
-1.823924e-15
2.729597e-15
-1.018882e-15
-7.798849e-16
1.509455e-15
7.673062e-16
1.006303e-16
4.654152e-16
5.157299e-16
4.025209e-16
2.025183e-15
1.509453e-16
-1.006302e-16
2.138392e-16
-1.698135e-15
3.647846e-16
-1.308193e-15
-4.654152e-16
-1.87424e-15
-1.081776e-15
4.276788e-16
-2.893122e-16
-8.427789e-16
-1.018882e-15
-4.77994e-16
-2.037764e-15
2.452864e-15
1.220143e-15
-7.421486e-16
-3.522058e-16
-7.547267e-17
1.635241e-15
9.434092e-16
7.547274e-16
7.044122e-16
-5.66045e-16
9.685659e-16
3.333376e-15
1.119511e-15
6.163601e-16
-1.622662e-15
4.276784e-16
-7.92463e-16
2.641543e-16
3.899425e-16
-1.761031e-16
1.761031e-16
-4.025209e-16
1.182405e-15
6.289389e-16
-2.06292e-15
-2.641543e-16
6.540964e-16
2.339655e-15
-6.666758e-16
-1.257879e-16
6.918334e-16
-1.55977e-15
2.38997e-16
-1.987447e-15
6.79254e-16
1.635241e-16
-8.805153e-17
-7.798849e-16
4.025213e-16
-1.735871e-15
-2.641543e-16
1.257878e-15
2.717016e-15
-6.79254e-16
5.157299e-16
1.698137e-15
1.371088e-15
-2.767334e-16
1.194985e-15
-2.000028e-15
1.283037e-15
6.289389e-16
-1.106932e-15
1.106932e-15
3.773633e-17
-1.509453e-16
5.66045e-16
-2.327076e-15
6.918334e-16
-4.528364e-16
-2.691858e-15
5.157299e-16
-5.66045e-16
-1.408824e-15
-2.352234e-15
2.100658e-15
-2.339655e-15
1.408824e-15
-1.547191e-15
-8.427781e-16
1.496875e-15
2.138392e-16
3.94974e-15
2.515756e-17
9.685668e-16
-1.2453e-15
2.050343e-15
-2.415128e-15
1.484296e-15
5.66045e-16
2.26418e-16
-1.861661e-15
1.34593e-15
-3.773637e-16
-7.798842e-16
-9.05672e-16
4.905723e-16
-8.805153e-17
1.106933e-15
-5.408879e-16
1.232721e-15
-1.911976e-15
-1.836503e-15
-1.459138e-15
-2.389968e-16
1.509453e-15
4.276784e-16
2.000026e-15
-1.13209e-15
7.421486e-16
-6.289395e-17
8.050425e-16
-1.534611e-15
-9.434083e-16
-9.937234e-16
6.79254e-16
-8.301993e-16
-7.169903e-16
-1.811344e-15
1.295614e-15
1.257878e-17
1.949711e-15
-3.018907e-16
6.666752e-16
1.748452e-15
-6.415183e-16
2.452864e-15
-1.471718e-15
1.069197e-15
-1.584927e-15
-2.264182e-16
-1.509455e-15
2.855385e-15
-1.635243e-16
-6.666758e-16
-6.666758e-16
-7.169903e-16
1.383666e-15
-1.509453e-16
-5.283087e-16
-3.270482e-16
1.295614e-15
1.257879e-17
2.125815e-15
-2.100658e-15
-1.308194e-15
1.509455e-16
-2.251603e-15
9.308295e-16
-2.138392e-15
1.924553e-15
-1.610085e-15
5.786243e-16
-1.509455e-15
-1.660399e-15
7.547267e-17
3.647845e-16
1.194984e-15
9.685659e-16
1.622662e-15
6.163607e-16
-6.163607e-16
2.138394e-16
7.673054e-16
1.081775e-15
-5.283087e-16
-1.861661e-15
1.069197e-15
-4.528364e-16
-4.52836e-16
-5.660449e-16
4.150997e-16
3.245328e-15
-1.610085e-15
-1.622664e-15
-5.534667e-16
-5.031518e-17
1.761031e-16
-2.792489e-15
-6.163601e-16
1.358508e-15
2.515759e-16
1.371088e-15
-1.937134e-15
6.28939e-16
-8.679356e-16
2.012604e-16
-6.163601e-16
-7.547267e-16
1.622662e-15
-5.66045e-16
-1.949711e-15
-9.937234e-16
5.031516e-17
-9.811456e-16
1.836503e-15
1.358509e-15
-1.710715e-15
-2.641546e-16
6.163607e-16
-9.937244e-16
1.2453e-15
7.92463e-16
2.201286e-15
5.408874e-16
5.031511e-17
7.547308e-17
-1.798765e-15
8.553568e-16
1.383666e-15
1.433981e-15
3.773629e-17
-1.257927e-17
-1.006304e-16
-1.522034e-15
3.522058e-16
-1.257879e-15
1.018882e-15
-8.805108e-17
1.194985e-15
-5.660453e-16
1.257879e-16
8.679365e-16
1.257879e-17
1.886818e-16
-3.132119e-15
-9.182516e-16
1.018882e-15
-1.308194e-15
-1.257883e-17
-1.182406e-15
-8.93094e-16
2.540913e-15
-5.408875e-16
1.006302e-15
-1.559768e-15
-1.773608e-15
1.257878e-16
-6.289389e-16
-5.157299e-16
-1.572347e-15
7.044122e-16
-4.77994e-16
-3.144697e-16
7.924637e-16
-1.257879e-15
1.169827e-15
1.14467e-15
8.805153e-16
-5.660455e-16
-2.226444e-15
-2.767331e-16
-1.886817e-15
2.113235e-15
-4.276784e-16
2.515756e-17
-4.52836e-16
2.26418e-16
-8.301993e-16
-3.773637e-16
8.679365e-16
-3.270485e-16
2.893119e-16
-4.779935e-16
2.36481e-15
8.930932e-16
1.421402e-15
-5.912025e-16
2.4906e-15
-2.000028e-15
-1.232721e-15
-9.55988e-16
-1.509455e-15
-9.811456e-16
5.031511e-17
3.018907e-16
1.094354e-15
-1.54719e-15
6.666752e-16
-1.622662e-15
2.100656e-15
1.006302e-16
7.547267e-16
-7.044115e-16
-1.937132e-15
6.79254e-16
1.094355e-15
-7.421486e-16
3.899425e-16
1.635243e-16
-1.14467e-15
1.157249e-15
-1.056618e-15
3.396273e-16
1.207564e-15
1.761029e-15
1.509451e-16
-3.169852e-15
-1.220142e-15
-1.698136e-15
3.773636e-16
-8.553569e-16
2.26418e-16
5.912025e-16
-5.157303e-16
-7.421485e-16
5.031505e-17
1.471717e-15
1.459138e-15
-2.251601e-15
1.761032e-16
-1.861661e-15
1.861661e-15
1.484297e-15
1.635243e-16
1.295615e-15
-1.6604e-15
1.006303e-16
1.886818e-16
9.182516e-16
-1.34593e-15
-6.792546e-16
2.691858e-15
1.257878e-15
-2.012604e-16
-3.371112e-15
6.289389e-16
7.673054e-16
-5.031511e-17
-2.150971e-15
3.044064e-15
-1.132091e-16
3.018909e-16
1.006303e-16
8.805144e-17
7.295691e-16
2.490598e-15
5.408879e-16
-1.094355e-15
-3.773637e-17
-6.666752e-16
-1.559768e-15
-1.974868e-15
6.415183e-16
6.163607e-16
-5.660455e-16
-2.000026e-15
-3.773633e-17
-3.270482e-16
-3.647845e-16
1.33335e-15
-4.150997e-16
1.295615e-15
3.270485e-16
8.553577e-16
-1.647821e-15
6.666759e-16
-2.276761e-15
-3.320797e-15
-7.044116e-16
5.031508e-17
-1.496876e-15
-6.918334e-16
-4.276788e-16
5.786238e-16
1.886817e-16
3.39627e-16
-2.893119e-16
1.308193e-15
-4.150997e-15
1.433981e-15
8.176205e-16
-8.427781e-16
-2.867961e-15
-1.006302e-16
1.081775e-15
-1.647821e-15
5.786243e-16
1.622664e-15
9.937244e-16
-5.031516e-16
5.157304e-16
8.176213e-16
-1.509455e-16
1.710715e-15
-2.67928e-15
2.389968e-16
-3.144694e-16
1.056618e-15
-7.798849e-16
3.773637e-17
1.018881e-15
1.119511e-15
-1.723293e-15
-3.899425e-16
6.918334e-16
-1.006303e-16
-9.308295e-16
3.144694e-16
8.427781e-16
5.408879e-16
-5.408879e-16
-8.679365e-16
-1.345929e-15
-9.559872e-16
8.176206e-16
1.446561e-15
-6.03782e-16
1.119512e-15
-1.006301e-16
-2.47802e-15
-6.792539e-16
-5.660456e-16
4.402572e-16
-6.037819e-16
2.38997e-16
2.16355e-15
-1.559769e-15
-2.264177e-16
3.270488e-16
8.930941e-16
-1.886817e-16
2.641543e-16
-1.270457e-15
1.069196e-15
-1.509453e-16
1.597505e-15
-3.081803e-15
8.176213e-16
8.679365e-16
-6.666758e-16
1.270458e-15
-1.308194e-15
-2.591228e-15
8.805144e-16
5.408874e-16
-3.270485e-16
-1.408824e-15
3.522061e-16
-8.553569e-16
2.515756e-17
-9.434083e-16
-1.685556e-15
1.056617e-15
-2.817646e-15
-4.402572e-16
4.402572e-16
1.371087e-15
1.471717e-15
2.893119e-16
1.119511e-15
8.176205e-16
-9.182508e-16
-2.515756e-17
-6.289389e-16
7.044115e-16
8.805144e-17
-2.012606e-16
1.081776e-15
-7.044122e-16
-1.257879e-15
1.761031e-15
-2.767334e-16
2.100658e-15
7.044122e-16
-2.440285e-15
-2.289338e-15
3.899421e-16
2.440283e-15
1.257878e-17
-4.905723e-16
-1.396244e-15
3.773633e-16
-1.886817e-16
1.345929e-15
-1.13209e-16
3.018906e-16
-1.496875e-15
-9.811456e-16
2.654125e-15
1.710715e-15
1.861661e-15
-4.77994e-16
3.295643e-15
1.169826e-15
-8.805144e-16
2.025183e-15
-1.421403e-15
-1.270458e-15
-2.38997e-16
-1.018881e-15
-1.270457e-15
1.635241e-15
-2.377389e-15
-5.157299e-16
-6.918328e-16
2.050341e-15
-8.176205e-16
-2.276759e-15
-1.421402e-15
8.050418e-16
-1.836502e-15
1.798765e-15
2.012604e-16
7.92463e-16
2.389968e-16
2.037762e-15
1.735871e-15
-1.13209e-16
-1.119511e-15
-5.031511e-16
-1.584927e-15
9.056728e-16
1.761031e-16
9.937244e-16
-2.515758e-16
8.930941e-16
-2.641543e-16
8.176205e-16
-1.610084e-15
-2.389968e-16
2.842804e-15
-0
1.04404e-15
-1.987449e-15
1.132091e-16
-1.622662e-15
-1.886817e-16
3.647845e-16
2.767334e-15
-4.402576e-16
1.584927e-15
4.52836e-16
-1.257878e-17
2.767331e-16
-1.119511e-15
1.006302e-16
-4.276784e-16
-4.654148e-16
5.66045e-16
9.811446e-16
-3.484325e-15
1.6604e-15
-1.471718e-15
-5.534667e-16
4.905728e-16
1.132091e-15
-1.786186e-15
1.006302e-16
1.257878e-17
2.779912e-15
1.333352e-15
-1.408824e-15
-7.169903e-16
1.119511e-15
3.647845e-16
-1.106933e-15
1.283037e-15
-2.38997e-16
-1.018882e-15
-4.77994e-16
-9.55988e-16
8.805144e-16
5.157299e-16
6.79254e-16
2.679282e-15
1.76103e-16
-2.364812e-15
-2.956016e-15
-7.547273e-17
-1.496876e-15
3.773637e-16
3.270485e-16
-1.622664e-15
9.811446e-16
-1.358508e-15
7.295691e-16
1.962289e-15
-4.905724e-16
4.52836e-16
-1.509453e-16
2.050341e-15
-2.817646e-15
-1.094354e-15
9.937234e-16
-1.446559e-15
-8.679357e-16
-2.540913e-15
6.918328e-16
6.289395e-16
7.044122e-16
1.534612e-15
-1.006303e-16
7.673062e-16
-1.522034e-15
1.534611e-15
1.484296e-15
-8.805144e-16
2.515758e-17
-2.012606e-16
-5.031516e-17
2.88054e-15
6.289389e-17
-2.553492e-15
-8.805153e-16
8.050425e-16
3.572376e-15
-3.773633e-16
8.427781e-16
-1.811344e-15
-6.918334e-16
1.333352e-15
-1.14467e-15
7.295691e-16
1.044039e-15
-7.169903e-16
-1.157249e-15
1.031461e-15
8.930941e-16
-3.773669e-17
-1.006312e-15
7.044182e-16
1.911992e-15
1.006312e-16
2.96862e-15
-8.176174e-16
2.515746e-16
-1.68555e-15
-1.044035e-15
1.081771e-15
-2.264171e-16
-1.383679e-15
-4.90577e-16
-1.25789e-15
8.553536e-16
7.547238e-17
1.245294e-15
-1.672979e-15
3.773637e-16
-2.993752e-15
3.044067e-15
4.151001e-16
1.823924e-15
-1.597506e-15
-1.622664e-15
-1.157249e-15
5.408874e-16
1.069196e-15
3.270482e-16
-1.257878e-15
1.54719e-15
-1.64782e-15
-1.635241e-16
-4.654148e-16
-1.610084e-15
1.207563e-15
-1.320772e-15
2.389968e-16
-5.408874e-16
-1.383666e-16
-1.761029e-16
-9.308304e-16
7.924637e-16
-6.415183e-16
1.6604e-15
-1.886818e-16
1.635243e-16
1.761029e-15
-1.006302e-16
-1.006302e-15
1.031461e-15
-2.150973e-15
1.081776e-15
3.144682e-16
-3.773619e-16
4.528343e-16
1.069192e-15
-5.786216e-16
-1.610077e-15
-4.65413e-16
-1.773601e-15
8.805111e-16
-5.031559e-16
9.308384e-16
-1.735888e-15
1.509468e-16
2.327096e-15
-7.169971e-16
-1.157259e-15
-3.018935e-16
3.773669e-17
1.119511e-15
-2.012604e-16
-1.13209e-15
-1.811344e-15
2.138392e-16
7.547267e-17
5.408879e-16
-2.163552e-15
2.553494e-15
8.302001e-16
-3.522061e-16
-9.937244e-16
1.559768e-15
-7.92463e-16
-5.912025e-16
3.270485e-16
-2.893122e-16
2.855385e-15
2.037762e-15
-1.03146e-15
7.169903e-16
-2.805067e-15
5.031511e-16
1.471717e-15
-1.358508e-15
1.308193e-15
-5.283087e-16
5.786243e-16
-2.100658e-15
5.786243e-16
-8.553577e-16
5.660455e-16
1.056618e-15
-9.308304e-16
-1.496876e-15
7.547274e-17
-1.132086e-16
-3.773619e-16
2.088069e-15
-5.912003e-16
1.597499e-15
-1.207558e-15
2.389959e-16
6.415152e-16
-2.930844e-15
-6.163601e-16
-1.84908e-15
9.308295e-16
2.138392e-16
-5.408874e-16
-2.050341e-15
-6.415177e-16
2.641543e-16
-8.427781e-16
-1.257878e-16
5.031511e-16
2.012604e-15
1.421403e-15
1.383667e-15
-4.025213e-16
-7.044115e-16
3.144694e-16
-1.761029e-16
-1.295615e-15
7.295698e-16
2.201288e-15
5.283092e-16
9.182516e-16
-3.144697e-15
1.811344e-15
2.893119e-16
4.025209e-16
-6.666759e-16
-4.779939e-16
2.150973e-15
1.823923e-15
-6.037812e-16
-2.138392e-15
-1.345931e-15
7.547275e-16
-6.289395e-16
-2.402549e-15
1.157249e-15
1.484297e-15
-6.415176e-16
9.434084e-16
1.64782e-15
1.761027e-16
1.295614e-15
5.660451e-16
3.044064e-15
5.534662e-16
5.66045e-16
-9.685659e-16
1.119511e-15
2.578649e-15
-2.239022e-15
3.018907e-16
-1.622662e-15
-1.308188e-15
-6.03779e-16
-1.094349e-15
1.773601e-15
-9.811409e-16
1.433975e-15
-2.415116e-15
-2.515746e-16
-9.182473e-16
6.163607e-16
-3.144697e-16
6.918334e-16
1.006302e-16
-8.050418e-16
-1.54719e-15
2.264182e-16
-1.622664e-15
1.257879e-15
1.660399e-15
6.289389e-17
2.314495e-15
9.937244e-16
-2.163552e-15
-0
-5.031511e-17
-6.666752e-16
7.044115e-16
-1.182405e-15
8.553569e-16
-9.308295e-16
-1.383666e-16
-8.050418e-16
1.987447e-15
-2.641546e-16
-9.55988e-16
-5.031516e-16
-8.176205e-16
-6.289389e-16
-2.188707e-15
2.440285e-15
8.553577e-16
2.691861e-15
1.220143e-15
1.094355e-15
-1.421403e-15
1.911974e-15
-4.779935e-16
-4.654148e-16
2.641543e-16
-1.572347e-15
-1.836502e-15
-3.773637e-17
-1.45914e-15
1.056618e-15
-1.446559e-15
-6.037813e-16
2.36481e-15
-2.503179e-15
2.616388e-15
4.151001e-16
5.660455e-16
4.151001e-16
-1.635243e-16
1.006302e-16
4.52836e-16
2.26418e-16
1.13209e-15
-2.515756e-17
-1.811344e-15
-1.509453e-16
1.509453e-16
-6.540964e-16
1.094355e-15
-1.496876e-15
1.257879e-16
1.635243e-16
-1.056618e-15
3.773637e-16
-1.710715e-15
-2.515758e-16
1.006303e-15
-7.547267e-17
1.257878e-16
-3.39627e-16
-1.094354e-15
-1.974868e-15
-3.522058e-16
-7.673054e-16
-4.276784e-16
-1.308193e-15
4.276788e-16
-4.151001e-16
-8.302001e-16
1.169827e-15
-5.031516e-17
3.396273e-16
-1.04404e-15
-3.647849e-16
-1.257879e-17
-3.446585e-15
2.389968e-16
1.924553e-15
6.79254e-16
1.534611e-15
-5.031511e-16
-4.905723e-16
1.509453e-15
-7.169903e-16
2.515758e-15
-7.295698e-16
7.924637e-16
-1.257878e-17
-1.14467e-15
-5.786243e-16
-3.396273e-16
9.308304e-16
-3.522061e-16
-1.937134e-15
1.295615e-15
-7.421486e-16
-2.327076e-15
7.673062e-16
-7.295698e-16
-3.899425e-16
5.534667e-16
1.132091e-15
-1.886817e-16
-1.270457e-15
-1.584926e-15
2.603807e-15
-8.805144e-16
2.578649e-15
-1.257878e-16
-1.106932e-15
2.440283e-15
-2.213867e-15
-5.157304e-16
-1.132091e-15
2.855383e-15
6.918328e-16
-1.13209e-16
-1.383666e-16
-1.308193e-15
8.679357e-16
3.899425e-16
2.339655e-15
-1.6604e-15
-2.188707e-15
7.798842e-16
-1.371087e-15
6.289395e-16
4.905728e-16
-1.433982e-15
9.55988e-16
-2.893122e-16
1.886818e-16
-2.893119e-15
3.773633e-17
1.220141e-15
4.528364e-16
1.924555e-15
-5.912031e-16
2.050341e-15
-7.169903e-16
-5.031511e-17
-3.018909e-16
-1.886818e-16
-1.34593e-15
5.66045e-16
-3.270482e-16
-3.647845e-16
1.081775e-15
-8.050419e-16
-5.157299e-16
-7.169904e-16
-9.308295e-16
3.018905e-16
2.540913e-15
2.138392e-16
-6.163601e-16
-1.257889e-17
1.509457e-16
4.402576e-16
5.786243e-16
-5.031505e-17
-4.905729e-16
-2.213867e-15
1.635243e-15
9.55988e-16
1.320773e-15
-4.654152e-16
1.723294e-15
-2.38997e-16
1.257879e-16
1.584927e-15
-7.421486e-16
-5.408879e-16
-8.679365e-16
-2.100656e-15
2.226444e-15
2.301916e-15
1.572347e-15
-8.805144e-16
-3.899421e-15
-2.742174e-15
1.962289e-15
8.805144e-16
7.16991e-16
-8.050425e-16
2.264182e-15
2.213867e-15
5.786243e-16
-1.421403e-15
1.13209e-16
2.012604e-16
-1.345929e-15
-1.33335e-15
-1.383666e-15
1.006302e-15
-2.930858e-15
4.654152e-16
-5.157304e-16
-1.182405e-15
-1.446559e-15
-1.572347e-15
1.949711e-15
-2.641543e-16
-8.427781e-16
-2.9057e-15
-1.182406e-15
1.446561e-15
-1.371087e-15
-1.270457e-15
5.408874e-16
-2.125815e-15
-2.264182e-16
-5.786243e-16
-2.213867e-15
1.748452e-15
1.283037e-15
-1.446559e-15
2.050341e-15
1.106932e-15
-1.207563e-15
-8.050418e-16
2.06292e-15
2.415125e-15
-2.239022e-15
-1.33335e-15
-2.478019e-15
8.301993e-16
1.396244e-15
2.503179e-15
-8.805153e-16
4.654152e-16
-1.823924e-15
-2.251603e-15
-1.157249e-15
2.012606e-16
1.383667e-16
-1.97487e-15
-2.012604e-16
-3.018906e-16
1.899395e-15
3.270485e-16
-6.918334e-16
1.194985e-15
-1.610084e-15
-4.025209e-16
-1.496875e-15
-7.92463e-16
5.786238e-16
2.138392e-16
8.050425e-16
1.886818e-15
-6.289395e-16
-1.949712e-15
1.572349e-15
-1.433982e-15
-1.257873e-15
1.081771e-15
-8.805111e-16
8.050387e-16
1.433975e-15
1.962282e-15
-2.012604e-16
-3.647845e-16
-2.893119e-16
8.805111e-16
4.276768e-16
6.163578e-16
-1.597505e-15
2.377389e-15
-2.515756e-15
3.773633e-16
-1.899395e-15
6.163601e-16
-9.937244e-16
-1.232721e-15
-9.685668e-16
8.050425e-16
-4.77994e-16
-1.685558e-15
7.924637e-16
1.106933e-15
1.823924e-15
1.408823e-15
1.358508e-15
-1.408823e-15
1.786186e-15
4.905723e-16
4.025209e-16
-4.025209e-16
6.289389e-17
2.000026e-15
1.949711e-15
-4.779935e-16
-1.635241e-16
-8.805153e-17
2.138394e-16
5.534667e-16
2.276759e-15
2.893119e-16
-2.16355e-15
-3.773633e-16
6.415177e-16
1.283035e-15
2.264182e-16
2.012606e-16
8.302001e-16
3.144697e-16
-8.553577e-16
-5.786243e-16
1.03146e-15
-3.270483e-16
-1.622662e-15
1.144664e-15
1.094349e-15
1.320767e-15
-1.408818e-15
1.308188e-15
-1.899388e-15
6.1636e-16
7.798843e-16
-1.320772e-15
5.031492e-16
-1.522026e-15
6.163578e-16
7.42148e-16
2.641543e-16
-1.194984e-15
-3.773633e-17
-8.050418e-16
1.270457e-15
4.779935e-16
-7.421479e-16
-1.257878e-16
-2.389968e-15
-1.207563e-15
-1.446559e-15
1.308194e-15
6.037819e-16
2.38997e-16
-1.87424e-15
-8.679365e-16
-1.119512e-15
-9.811456e-16
1.308194e-15
1.710715e-15
5.408874e-16
2.515756e-17
1.044039e-15
4.905723e-16
2.301916e-15
-1.33335e-15
3.899421e-16
7.92463e-16
-2.075498e-15
1.886817e-16
8.930932e-16
-2.528334e-15
5.912025e-16
2.113235e-15
-8.050418e-16
-1.169826e-15
-5.786238e-16
2.138392e-16
3.018907e-16
1.421402e-15
-1.509453e-16
6.666752e-16
-8.301993e-16
-1.194984e-15
1.924555e-15
5.031516e-16
-1.924555e-15
-1.433982e-15
-3.270485e-16
3.144697e-15
-7.547267e-16
7.673054e-16
9.937234e-16
8.930941e-16
1.006303e-16
-7.798849e-16
1.886818e-16
-2.38997e-16
1.761031e-15
-2.641543e-16
8.805144e-17
-1.245299e-15
1.006302e-16
2.641543e-15
-1.874238e-15
8.427781e-16
-1.308193e-15
-1.433981e-15
1.710715e-15
1.081776e-15
-1.132091e-16
-6.415183e-16
1.157249e-15
7.295698e-16
1.194984e-15
3.773633e-17
9.685659e-16
8.301993e-16
3.773633e-17
-1.006302e-15
-6.289389e-17
3.773633e-17
-2.138392e-16
3.018907e-15
-2.289338e-15
-1.345929e-15
1.54719e-15
1.094354e-15
3.647845e-16
6.037813e-16
8.427781e-16
2.327074e-15
1.509455e-16
4.77994e-16
-1.169827e-15
1.433981e-15
-1.84908e-15
6.037813e-16
-8.679357e-16
-5.031511e-17
9.685659e-16
-1.220143e-15
-1.358509e-15
-1.207564e-15
1.270457e-15
1.54719e-15
1.383666e-16
-1.220143e-15
-6.792546e-16
3.144697e-16
-4.402576e-16
-2.012606e-16
-0
1.396244e-15
-4.025209e-16
-6.037813e-16
-8.930932e-16
7.92463e-16
-7.92463e-16
3.660428e-15
3.899425e-16
-9.182516e-16
-2.503179e-15
1.584927e-15
1.735873e-15
-1.54719e-15
-7.421479e-16
-1.245299e-15
8.805228e-17
1.433994e-15
-7.044182e-16
1.54719e-15
1.874238e-15
4.52836e-16
-4.276825e-16
-1.547204e-15
1.886835e-16
5.534662e-16
9.559871e-16
-3.4969e-15
-1.584926e-15
1.924553e-15
2.767331e-16
-1.157259e-15
-1.132101e-16
1.723309e-15
-1.433981e-15
2.012604e-16
1.597505e-15
5.283087e-16
-1.345929e-15
1.622662e-15
4.025209e-16
9.685659e-16
-2.566071e-15
8.553577e-16
-6.540971e-16
-1.069197e-15
-9.056728e-16
1.119512e-15
3.698164e-15
-5.031516e-16
4.402576e-16
-2.515758e-16
-9.937244e-16
-4.025213e-16
2.037764e-15
9.811456e-16
-7.044122e-16
-1.635243e-16
-1.836503e-15
-1.408824e-15
-2.415128e-15
2.591228e-15
3.773633e-16
-3.144694e-16
1.119511e-15
1.622662e-15
-1.308193e-15
3.522058e-16
-6.037813e-16
-4.52836e-16
-1.534611e-15
-1.886817e-16
4.905723e-16
-4.90577e-16
1.182416e-15
-8.55365e-16
3.559794e-15
-1.811344e-15
-1.069196e-15
9.811539e-16
-1.522047e-15
2.264201e-16
-3.522058e-15
-7.044115e-16
8.050418e-16
-1.081785e-15
1.006311e-16
-3.270513e-16
1.572347e-15
5.786238e-16
-8.805144e-16
-2.553492e-15
-1.283035e-15
1.433981e-15
-3.295643e-15
1.685558e-15
2.515758e-16
2.742174e-15
7.547267e-16
-9.811446e-16
8.176213e-16
-8.805153e-16
-1.509455e-15
1.094355e-15
-1.723294e-15
2.641546e-16
-3.383694e-15
9.55988e-16
3.899425e-16
-8.805144e-17
6.415177e-16
-1.84908e-15
8.805144e-17
1.383666e-16
-1.23272e-15
3.396273e-16
-1.257879e-16
-1.383667e-16
-1.257878e-16
1.786186e-15
1.245299e-15
-1.622664e-15
-3.773637e-17
9.937244e-16
2.100676e-15
8.302072e-16
-6.289448e-17
1.3711e-15
-1.383679e-16
3.220198e-15
-2.062939e-15
-1.270469e-15
-5.408926e-16
3.396257e-16
-3.396257e-16
-1.006298e-16
8.805111e-16
-1.257873e-15
2.364801e-15
-8.553536e-16
-1.28303e-15
1.132086e-16
1.320772e-15
-1.421402e-15
2.301916e-15
2.603807e-15
7.42147e-16
-8.176201e-16
-7.798843e-16
-4.905717e-16
-3.245324e-15
1.396246e-15
7.924635e-16
-1.509457e-16
-2.641546e-15
-1.87424e-15
2.9057e-15
-5.534666e-16
-2.515752e-17
-5.40888e-16
-1.949711e-15
-7.044115e-16
7.169903e-16
-1.672979e-15
1.698137e-15
-1.987449e-15
1.182405e-15
-1.761029e-15
-5.786238e-16
2.264182e-15
-1.396246e-15
3.773637e-16
6.289395e-17
-1.207564e-15
2.515758e-17
1.584926e-15
1.094354e-15
1.584926e-15
-1.283047e-15
-2.515779e-17
1.006312e-16
5.408926e-16
2.578674e-15
-8.931017e-16
1.396258e-15
1.295626e-15
5.283137e-16
-5.283067e-16
1.132086e-16
1.169822e-15
-1.119507e-15
6.666727e-16
-1.761022e-15
6.163578e-16
-0
7.9246e-16
1.408823e-15
-4.52836e-16
-7.798842e-16
-2.26418e-16
1.006302e-16
1.471717e-15
-3.584955e-15
-8.427789e-16
-6.163607e-16
3.044067e-15
1.257879e-16
4.151001e-16
6.415177e-16
-1.496875e-15
1.572347e-15
-1.358509e-15
3.144697e-16
1.257879e-15
2.503177e-15
1.761029e-16
-2.578649e-15
-1.383667e-16
-1.886818e-16
8.930941e-16
-7.295691e-16
3.144694e-16
-1.283035e-15
-9.685668e-16
8.679365e-16
-8.553577e-16
-1.044039e-15
1.119511e-15
3.836527e-15
5.283092e-16
-1.157249e-15
-6.289395e-16
-9.811446e-16
-4.779935e-16
-7.673054e-16
3.27047e-16
-2.767321e-16
-1.798758e-15
1.018877e-15
-8.427749e-16
-1.194979e-15
5.912025e-16
-7.044115e-16
1.949711e-15
-1.257878e-17
-3.773633e-17
-8.805144e-17
-6.289365e-17
2.389959e-16
-3.27047e-16
4.402555e-16
-5.031492e-16
2.427695e-15
-2.075498e-15
1.044039e-15
1.194984e-15
7.547267e-16
-2.515756e-16
-1.03146e-15
2.515746e-17
-1.132086e-15
-3.27047e-15
8.553536e-16
2.37738e-15
5.283067e-16
2.012604e-16
5.912025e-16
8.301993e-16
6.289389e-16
-5.157299e-16
1.635241e-16
7.044115e-16
-3.773633e-17
9.685659e-16
-1.773608e-15
-7.673054e-16
1.056617e-15
-3.899421e-16
-6.540964e-16
-4.402572e-16
5.534662e-16
1.194984e-15
1.094354e-15
1.044039e-15
-1.320772e-15
1.710714e-15
-6.54094e-16
-2.515746e-16
-8.301962e-16
-1.48429e-15
-1.647814e-15
6.54094e-16
2.779899e-15
9.811409e-16
1.811337e-15
-1.094354e-15
3.647845e-16
9.811446e-16
-2.767331e-16
-1.283035e-15
-1.283035e-15
1.308193e-15
5.283087e-16
3.773633e-17
7.798812e-16
-7.295663e-16
1.610077e-15
-3.144694e-16
7.044115e-16
-1.522032e-15
1.433981e-15
-9.685659e-16
2.213865e-15
-5.157299e-16
-7.547267e-16
-3.018907e-16
8.427749e-16
1.78618e-15
-4.528343e-16
8.301962e-16
1.220137e-15
-1.345924e-15
6.666752e-16
7.547267e-16
1.761029e-16
-1.421402e-15
-3.018907e-16
8.050418e-16
-4.025209e-16
-5.031511e-16
-2.125813e-15
1.54719e-15
-1.937132e-15
-9.937234e-16
8.553569e-16
-4.905723e-16
-1.169826e-15
-1.496875e-15
4.276784e-16
-1.761029e-15
-9.308304e-16
1.182406e-15
-6.289395e-16
-8.805153e-17
3.899425e-16
-3.647849e-16
-1.308193e-15
-2.515756e-17
1.006302e-15
-3.056646e-15
-0
1.962291e-15
1.119511e-15
-2.012604e-16
-9.308295e-16
-1.811344e-15
7.92463e-16
-4.276784e-16
-1.823916e-15
-6.792514e-16
-1.660392e-15
2.415116e-15
6.415152e-16
9.811409e-16
1.383679e-16
1.383679e-16
-7.673127e-16
-0
2.893108e-16
1.597499e-15
-1.3711e-15
-1.018891e-15
1.308205e-15
-3.899458e-16
1.974887e-15
-3.270513e-16
-3.899421e-16
-3.899421e-16
2.641543e-16
3.283064e-15
1.094355e-15
-3.522061e-16
-2.792491e-15
1.295615e-15
-1.031461e-15
4.402572e-16
-2.138392e-16
7.547267e-17
-1.34593e-15
6.666758e-16
-1.34593e-15
3.773633e-17
-7.295691e-16
-1.886817e-16
-9.55988e-16
-2.264182e-16
1.509455e-16
9.559871e-16
-7.673054e-16
4.150997e-16
-2.641543e-16
-1.144669e-15
-8.930932e-16
1.836503e-15
-2.893122e-16
-3.144697e-16
-4.276788e-16
6.918334e-16
1.119512e-15
-8.805144e-16
1.383666e-16
1.069196e-15
-3.471729e-15
-7.547238e-16
1.144664e-15
6.163578e-16
5.786216e-16
1.38366e-15
9.559835e-16
1.78618e-15
-9.811409e-16
-2.301938e-15
6.163659e-16
8.805228e-17
1.723309e-15
5.534715e-16
-2.893146e-16
6.037871e-16
-1.496889e-15
1.333363e-15
1.006302e-15
-5.66045e-16
-9.182508e-16
2.893122e-16
-4.151001e-16
-1.157249e-15
-2.641543e-16
1.283035e-15
-1.13209e-16
9.182516e-16
5.534667e-16
-2.38997e-16
-2.339655e-15
1.55977e-15
1.132091e-16
-1.572347e-15