/*--------------------------------*- C++ -*----------------------------------*\
| =========                 |                                                 |
| \\      /  F ield         | OpenFOAM: The Open Source CFD Toolbox           |
|  \\    /   O peration     | Version:  2212                                  |
|   \\  /    A nd           | Website:  www.openfoam.com                      |
|    \\/     M anipulation  |                                                 |
\*---------------------------------------------------------------------------*/
FoamFile
{
    version     2.0;
    format      ascii;
    arch        "LSB;label=32;scalar=64";
    class       volScalarField;
    location    "200/fluidRegion";
    object      heatFlux.structure;
}
// * * * * * * * * * * * * * * * * * * * * * * * * * * * * * * * * * * * * * //

dimensions      [1 0 -3 0 0 0 0];

internalField   nonuniform List<scalar> 
23322
(
-7.603387e+07
-7.603379e+07
-7.603371e+07
-7.603387e+07
-7.603379e+07
-7.603371e+07
-7.603387e+07
-7.603379e+07
-7.603371e+07
-7.603387e+07
-7.603379e+07
-7.603371e+07
-7.603387e+07
-7.603379e+07
-7.603371e+07
-7.603387e+07
-7.603379e+07
-7.603371e+07
-9.979809e+07
-9.979833e+07
-9.979858e+07
-1.003098e+08
-1.003096e+08
-1.003094e+08
-1.004575e+08
-1.004574e+08
-1.004572e+08
-1.004575e+08
-1.004574e+08
-1.004572e+08
-1.004016e+08
-1.004016e+08
-1.004015e+08
-1.003098e+08
-1.003096e+08
-1.003094e+08
-9.97981e+07
-9.979834e+07
-9.979858e+07
-1.003098e+08
-1.003096e+08
-1.003094e+08
-1.003098e+08
-1.003096e+08
-1.003094e+08
-1.004575e+08
-1.004574e+08
-1.004572e+08
-1.004016e+08
-1.004016e+08
-1.004015e+08
-1.004575e+08
-1.004574e+08
-1.004572e+08
-1.004575e+08
-1.004574e+08
-1.004572e+08
-1.003098e+08
-1.003096e+08
-1.003094e+08
-9.97981e+07
-9.979834e+07
-9.979858e+07
-1.004016e+08
-1.004016e+08
-1.004015e+08
-1.003098e+08
-1.003096e+08
-1.003094e+08
-1.004575e+08
-1.004574e+08
-1.004572e+08
-1.003098e+08
-1.003096e+08
-1.003094e+08
-1.003098e+08
-1.003096e+08
-1.003094e+08
-1.004575e+08
-1.004574e+08
-1.004572e+08
-9.97981e+07
-9.979834e+07
-9.979859e+07
-1.004016e+08
-1.004016e+08
-1.004015e+08
-1.004575e+08
-1.004574e+08
-1.004572e+08
-1.004575e+08
-1.004574e+08
-1.004572e+08
-1.004016e+08
-1.004016e+08
-1.004015e+08
-1.003098e+08
-1.003096e+08
-1.003094e+08
-1.003098e+08
-1.003096e+08
-1.003094e+08
-1.004575e+08
-1.004574e+08
-1.004572e+08
-9.979809e+07
-9.979833e+07
-9.979858e+07
-1.004575e+08
-1.004574e+08
-1.004572e+08
-9.979809e+07
-9.979833e+07
-9.979858e+07
-1.003098e+08
-1.003096e+08
-1.003094e+08
-1.004016e+08
-1.004016e+08
-1.004015e+08
-1.003098e+08
-1.003096e+08
-1.003094e+08
-1.004575e+08
-1.004574e+08
-1.004572e+08
-9.842227e+07
-9.842221e+07
-9.842215e+07
-9.842228e+07
-9.842221e+07
-9.842215e+07
-9.742765e+07
-9.742821e+07
-9.742878e+07
-9.950579e+07
-9.950547e+07
-9.950516e+07
-9.950579e+07
-9.950547e+07
-9.950516e+07
-9.992109e+07
-9.992072e+07
-9.992036e+07
-9.950579e+07
-9.950548e+07
-9.950517e+07
-9.742766e+07
-9.742822e+07
-9.742879e+07
-9.950579e+07
-9.950548e+07
-9.950517e+07
-9.842228e+07
-9.842222e+07
-9.842216e+07
-9.992109e+07
-9.992073e+07
-9.992036e+07
-9.842228e+07
-9.842222e+07
-9.842216e+07
-9.992109e+07
-9.992072e+07
-9.992035e+07
-9.950578e+07
-9.950546e+07
-9.950515e+07
-9.950578e+07
-9.950546e+07
-9.950515e+07
-9.742764e+07
-9.742821e+07
-9.742877e+07
-9.842227e+07
-9.84222e+07
-9.842214e+07
-9.842227e+07
-9.84222e+07
-9.842214e+07
-9.842227e+07
-9.842221e+07
-9.842215e+07
-9.842227e+07
-9.842221e+07
-9.842215e+07
-9.950579e+07
-9.950547e+07
-9.950516e+07
-9.950579e+07
-9.950547e+07
-9.950516e+07
-9.992109e+07
-9.992072e+07
-9.992036e+07
-9.742765e+07
-9.742821e+07
-9.742878e+07
-9.950578e+07
-9.950546e+07
-9.950515e+07
-9.992109e+07
-9.992071e+07
-9.992035e+07
-9.950578e+07
-9.950546e+07
-9.950515e+07
-9.842227e+07
-9.84222e+07
-9.842214e+07
-9.842227e+07
-9.84222e+07
-9.842214e+07
-9.742764e+07
-9.74282e+07
-9.742877e+07
-9.992107e+07
-9.99207e+07
-9.992034e+07
-9.950577e+07
-9.950545e+07
-9.950514e+07
-9.742763e+07
-9.742819e+07
-9.742876e+07
-9.950577e+07
-9.950545e+07
-9.950514e+07
-9.842226e+07
-9.842219e+07
-9.842213e+07
-9.842226e+07
-9.842219e+07
-9.842213e+07
-9.986107e+07
-9.986098e+07
-9.986089e+07
-9.939334e+07
-9.93934e+07
-9.939346e+07
-1.003359e+08
-1.003357e+08
-1.003354e+08
-9.986108e+07
-9.986098e+07
-9.986089e+07
-9.939334e+07
-9.93934e+07
-9.939347e+07
-1.003359e+08
-1.003357e+08
-1.003354e+08
-9.986109e+07
-9.9861e+07
-9.986091e+07
-1.003359e+08
-1.003357e+08
-1.003354e+08
-9.939336e+07
-9.939341e+07
-9.939348e+07
-1.003359e+08
-1.003357e+08
-1.003354e+08
-9.986109e+07
-9.986099e+07
-9.98609e+07
-9.939336e+07
-9.939341e+07
-9.939348e+07
-1.003359e+08
-1.003357e+08
-1.003354e+08
-1.003359e+08
-1.003357e+08
-1.003354e+08
-9.986108e+07
-9.986099e+07
-9.98609e+07
-9.986108e+07
-9.986098e+07
-9.98609e+07
-9.939335e+07
-9.939341e+07
-9.939347e+07
-9.939335e+07
-9.93934e+07
-9.939347e+07
-9.986108e+07
-9.986098e+07
-9.98609e+07
-9.939335e+07
-9.93934e+07
-9.939347e+07
-1.003359e+08
-1.003357e+08
-1.003354e+08
-9.939335e+07
-9.939341e+07
-9.939347e+07
-1.003359e+08
-1.003357e+08
-1.003354e+08
-9.986108e+07
-9.986099e+07
-9.98609e+07
-9.939335e+07
-9.93934e+07
-9.939347e+07
-9.939334e+07
-9.93934e+07
-9.939347e+07
-9.986108e+07
-9.986098e+07
-9.98609e+07
-9.986108e+07
-9.986098e+07
-9.986089e+07
-1.003359e+08
-1.003357e+08
-1.003354e+08
-1.003359e+08
-1.003357e+08
-1.003354e+08
-1.003359e+08
-1.003357e+08
-1.003354e+08
-1.003359e+08
-1.003357e+08
-1.003354e+08
-9.986107e+07
-9.986098e+07
-9.986089e+07
-9.939334e+07
-9.93934e+07
-9.939346e+07
-9.986107e+07
-9.986097e+07
-9.986089e+07
-9.939334e+07
-9.939339e+07
-9.939346e+07
-7.603387e+07
-7.603379e+07
-7.603371e+07
-7.603387e+07
-7.603379e+07
-7.603371e+07
-7.603387e+07
-7.603379e+07
-7.603371e+07
-7.603387e+07
-7.603379e+07
-7.603371e+07
-7.603387e+07
-7.603379e+07
-7.603371e+07
-7.603387e+07
-7.603379e+07
-7.603371e+07
-7.603387e+07
-7.603379e+07
-7.603371e+07
-7.603387e+07
-7.603379e+07
-7.603371e+07
-7.603387e+07
-7.603379e+07
-7.603371e+07
-7.603387e+07
-7.603379e+07
-7.603371e+07
-7.603387e+07
-7.603379e+07
-7.603371e+07
-7.603387e+07
-7.603379e+07
-7.603371e+07
-7.603387e+07
-7.603379e+07
-7.603371e+07
-7.603387e+07
-7.603379e+07
-7.603371e+07
-7.603387e+07
-7.603379e+07
-7.603371e+07
-7.603387e+07
-7.603379e+07
-7.603371e+07
-7.603387e+07
-7.603379e+07
-7.603371e+07
-7.603387e+07
-7.603379e+07
-7.603371e+07
-7.603387e+07
-7.603379e+07
-7.60337e+07
-7.603387e+07
-7.603379e+07
-7.60337e+07
-7.603387e+07
-7.603379e+07
-7.60337e+07
-7.603387e+07
-7.603379e+07
-7.60337e+07
-7.603387e+07
-7.603379e+07
-7.60337e+07
-7.603387e+07
-7.603379e+07
-7.60337e+07
-7.603387e+07
-7.603379e+07
-7.603371e+07
-7.603387e+07
-7.603379e+07
-7.603371e+07
-7.603387e+07
-7.603379e+07
-7.603371e+07
-7.603387e+07
-7.603379e+07
-7.603371e+07
-7.603387e+07
-7.603379e+07
-7.603371e+07
-7.603387e+07
-7.603379e+07
-7.603371e+07
-7.603387e+07
-7.603379e+07
-7.603371e+07
-7.603387e+07
-7.603379e+07
-7.603371e+07
-7.603387e+07
-7.603379e+07
-7.603371e+07
-7.603387e+07
-7.603379e+07
-7.603371e+07
-7.603387e+07
-7.603379e+07
-7.603371e+07
-7.603387e+07
-7.603379e+07
-7.603371e+07
-9.800195e+07
-9.800161e+07
-9.800127e+07
-9.668564e+07
-9.668596e+07
-9.66863e+07
-9.858037e+07
-9.857991e+07
-9.857945e+07
-9.805004e+07
-9.804984e+07
-9.804964e+07
-9.664942e+07
-9.664952e+07
-9.664962e+07
-9.719347e+07
-9.719348e+07
-9.719349e+07
-9.668564e+07
-9.668597e+07
-9.668631e+07
-9.664943e+07
-9.664953e+07
-9.664963e+07
-9.805005e+07
-9.804984e+07
-9.804965e+07
-9.719348e+07
-9.719349e+07
-9.71935e+07
-9.800196e+07
-9.800162e+07
-9.800128e+07
-9.858038e+07
-9.857992e+07
-9.857946e+07
-9.668563e+07
-9.668596e+07
-9.668629e+07
-9.800195e+07
-9.800161e+07
-9.800127e+07
-9.858037e+07
-9.857991e+07
-9.857945e+07
-9.664942e+07
-9.664952e+07
-9.664962e+07
-9.719347e+07
-9.719348e+07
-9.719349e+07
-9.805004e+07
-9.804984e+07
-9.804964e+07
-9.800195e+07
-9.800161e+07
-9.800128e+07
-9.668564e+07
-9.668597e+07
-9.66863e+07
-9.858037e+07
-9.857991e+07
-9.857945e+07
-9.805004e+07
-9.804984e+07
-9.804964e+07
-9.719347e+07
-9.719348e+07
-9.71935e+07
-9.664943e+07
-9.664952e+07
-9.664962e+07
-9.719347e+07
-9.719348e+07
-9.71935e+07
-9.858037e+07
-9.857991e+07
-9.857945e+07
-9.805004e+07
-9.804984e+07
-9.804964e+07
-9.664942e+07
-9.664952e+07
-9.664962e+07
-9.800195e+07
-9.800161e+07
-9.800127e+07
-9.668564e+07
-9.668596e+07
-9.66863e+07
-9.719347e+07
-9.719347e+07
-9.719349e+07
-9.858036e+07
-9.85799e+07
-9.857944e+07
-9.800194e+07
-9.80016e+07
-9.800127e+07
-9.805003e+07
-9.804983e+07
-9.804963e+07
-9.664942e+07
-9.664952e+07
-9.664962e+07
-9.668563e+07
-9.668596e+07
-9.668629e+07
-9.719347e+07
-9.719348e+07
-9.719349e+07
-9.858037e+07
-9.857991e+07
-9.857945e+07
-9.800195e+07
-9.800161e+07
-9.800127e+07
-9.805004e+07
-9.804984e+07
-9.804964e+07
-9.668564e+07
-9.668596e+07
-9.66863e+07
-9.664942e+07
-9.664952e+07
-9.664962e+07
-9.668564e+07
-9.668597e+07
-9.66863e+07
-9.664943e+07
-9.664953e+07
-9.664963e+07
-9.800195e+07
-9.800161e+07
-9.800128e+07
-9.858038e+07
-9.857992e+07
-9.857946e+07
-9.719348e+07
-9.719349e+07
-9.71935e+07
-9.805005e+07
-9.804985e+07
-9.804965e+07
-9.719348e+07
-9.719348e+07
-9.71935e+07
-9.805004e+07
-9.804984e+07
-9.804964e+07
-9.858037e+07
-9.857991e+07
-9.857946e+07
-9.664943e+07
-9.664953e+07
-9.664963e+07
-9.668564e+07
-9.668597e+07
-9.66863e+07
-9.800195e+07
-9.800161e+07
-9.800128e+07
-9.668564e+07
-9.668596e+07
-9.66863e+07
-9.664942e+07
-9.664952e+07
-9.664962e+07
-9.719347e+07
-9.719348e+07
-9.719349e+07
-9.800195e+07
-9.800161e+07
-9.800127e+07
-9.858037e+07
-9.857991e+07
-9.857945e+07
-9.805004e+07
-9.804984e+07
-9.804964e+07
-9.719347e+07
-9.719348e+07
-9.71935e+07
-9.858037e+07
-9.857991e+07
-9.857945e+07
-9.800195e+07
-9.800161e+07
-9.800128e+07
-9.668564e+07
-9.668597e+07
-9.66863e+07
-9.805004e+07
-9.804984e+07
-9.804964e+07
-9.664943e+07
-9.664952e+07
-9.664963e+07
-9.858036e+07
-9.85799e+07
-9.857945e+07
-9.800194e+07
-9.80016e+07
-9.800127e+07
-9.664942e+07
-9.664952e+07
-9.664962e+07
-9.719347e+07
-9.719348e+07
-9.719349e+07
-9.668563e+07
-9.668596e+07
-9.668629e+07
-9.805003e+07
-9.804983e+07
-9.804964e+07
-9.105177e+07
-9.105226e+07
-9.105275e+07
-9.192919e+07
-9.192931e+07
-9.192944e+07
-9.411707e+07
-9.411655e+07
-9.411603e+07
-9.346207e+07
-9.346169e+07
-9.346131e+07
-9.346207e+07
-9.346169e+07
-9.346131e+07
-9.192918e+07
-9.192931e+07
-9.192944e+07
-9.192919e+07
-9.192932e+07
-9.192945e+07
-9.346208e+07
-9.34617e+07
-9.346133e+07
-9.105178e+07
-9.105227e+07
-9.105276e+07
-9.411708e+07
-9.411656e+07
-9.411605e+07
-9.192919e+07
-9.192932e+07
-9.192945e+07
-9.346208e+07
-9.34617e+07
-9.346132e+07
-9.192918e+07
-9.19293e+07
-9.192943e+07
-9.411707e+07
-9.411654e+07
-9.411602e+07
-9.346206e+07
-9.346168e+07
-9.346131e+07
-9.105177e+07
-9.105225e+07
-9.105274e+07
-9.192918e+07
-9.19293e+07
-9.192943e+07
-9.346206e+07
-9.346168e+07
-9.346131e+07
-9.411707e+07
-9.411655e+07
-9.411603e+07
-9.346207e+07
-9.346169e+07
-9.346131e+07
-9.346207e+07
-9.346169e+07
-9.346131e+07
-9.192918e+07
-9.192931e+07
-9.192944e+07
-9.105177e+07
-9.105226e+07
-9.105275e+07
-9.192919e+07
-9.192931e+07
-9.192944e+07
-9.411707e+07
-9.411654e+07
-9.411602e+07
-9.192918e+07
-9.19293e+07
-9.192943e+07
-9.346206e+07
-9.346168e+07
-9.34613e+07
-9.346206e+07
-9.346168e+07
-9.34613e+07
-9.192918e+07
-9.19293e+07
-9.192943e+07
-9.105177e+07
-9.105225e+07
-9.105274e+07
-9.105177e+07
-9.105225e+07
-9.105274e+07
-9.192918e+07
-9.19293e+07
-9.192943e+07
-9.346206e+07
-9.346168e+07
-9.346131e+07
-9.192918e+07
-9.19293e+07
-9.192943e+07
-9.346206e+07
-9.346168e+07
-9.34613e+07
-9.411707e+07
-9.411654e+07
-9.411602e+07
-9.529495e+07
-9.529464e+07
-9.529434e+07
-9.41731e+07
-9.417316e+07
-9.417322e+07
-9.508061e+07
-9.508043e+07
-9.508024e+07
-9.410125e+07
-9.410129e+07
-9.410133e+07
-9.576856e+07
-9.576808e+07
-9.576761e+07
-9.350082e+07
-9.350115e+07
-9.350148e+07
-9.529496e+07
-9.529465e+07
-9.529435e+07
-9.350082e+07
-9.350115e+07
-9.350148e+07
-9.417311e+07
-9.417317e+07
-9.417323e+07
-9.576856e+07
-9.576809e+07
-9.576761e+07
-9.508062e+07
-9.508043e+07
-9.508024e+07
-9.410126e+07
-9.410129e+07
-9.410133e+07
-9.529495e+07
-9.529464e+07
-9.529434e+07
-9.350081e+07
-9.350114e+07
-9.350147e+07
-9.576855e+07
-9.576808e+07
-9.576761e+07
-9.508061e+07
-9.508042e+07
-9.508024e+07
-9.41731e+07
-9.417316e+07
-9.417322e+07
-9.410125e+07
-9.410128e+07
-9.410132e+07
-9.529495e+07
-9.529464e+07
-9.529434e+07
-9.410125e+07
-9.410128e+07
-9.410132e+07
-9.350082e+07
-9.350114e+07
-9.350147e+07
-9.576856e+07
-9.576808e+07
-9.576761e+07
-9.41731e+07
-9.417316e+07
-9.417322e+07
-9.508061e+07
-9.508042e+07
-9.508024e+07
-9.508061e+07
-9.508042e+07
-9.508024e+07
-9.576856e+07
-9.576808e+07
-9.576761e+07
-9.410125e+07
-9.410128e+07
-9.410132e+07
-9.529495e+07
-9.529464e+07
-9.529434e+07
-9.350082e+07
-9.350114e+07
-9.350147e+07
-9.41731e+07
-9.417316e+07
-9.417322e+07
-9.350081e+07
-9.350114e+07
-9.350147e+07
-9.41731e+07
-9.417316e+07
-9.417322e+07
-9.410125e+07
-9.410128e+07
-9.410132e+07
-9.529494e+07
-9.529464e+07
-9.529433e+07
-9.508061e+07
-9.508042e+07
-9.508023e+07
-9.576855e+07
-9.576807e+07
-9.57676e+07
-9.490576e+07
-9.490593e+07
-9.49061e+07
-9.65914e+07
-9.659101e+07
-9.659063e+07
-9.569497e+07
-9.569491e+07
-9.569486e+07
-9.569497e+07
-9.569491e+07
-9.569486e+07
-9.490576e+07
-9.490593e+07
-9.49061e+07
-9.65914e+07
-9.659101e+07
-9.659063e+07
-9.490576e+07
-9.490593e+07
-9.49061e+07
-9.490576e+07
-9.490593e+07
-9.49061e+07
-9.569497e+07
-9.569491e+07
-9.569486e+07
-9.65914e+07
-9.659101e+07
-9.659063e+07
-9.569497e+07
-9.569491e+07
-9.569486e+07
-9.65914e+07
-9.659101e+07
-9.659063e+07
-9.490576e+07
-9.490592e+07
-9.49061e+07
-9.569496e+07
-9.569491e+07
-9.569485e+07
-9.65914e+07
-9.659101e+07
-9.659062e+07
-9.569497e+07
-9.569491e+07
-9.569485e+07
-9.490576e+07
-9.490592e+07
-9.49061e+07
-9.65914e+07
-9.659101e+07
-9.659062e+07
-9.65914e+07
-9.659101e+07
-9.659062e+07
-9.569496e+07
-9.569491e+07
-9.569485e+07
-9.65914e+07
-9.659101e+07
-9.659062e+07
-9.490576e+07
-9.490592e+07
-9.49061e+07
-9.490576e+07
-9.490592e+07
-9.490609e+07
-9.569497e+07
-9.569491e+07
-9.569485e+07
-9.490576e+07
-9.490593e+07
-9.49061e+07
-9.569497e+07
-9.569491e+07
-9.569485e+07
-9.65914e+07
-9.659101e+07
-9.659062e+07
-9.490576e+07
-9.490593e+07
-9.49061e+07
-9.65914e+07
-9.659101e+07
-9.659062e+07
-9.569497e+07
-9.569491e+07
-9.569485e+07
-9.659139e+07
-9.6591e+07
-9.659061e+07
-9.659139e+07
-9.6591e+07
-9.659061e+07
-9.490575e+07
-9.490592e+07
-9.490609e+07
-9.569496e+07
-9.56949e+07
-9.569485e+07
-9.569496e+07
-9.56949e+07
-9.569485e+07
-9.490575e+07
-9.490592e+07
-9.490609e+07
-9.350081e+07
-9.350114e+07
-9.350147e+07
-9.41731e+07
-9.417316e+07
-9.417322e+07
-9.508061e+07
-9.508042e+07
-9.508024e+07
-9.410125e+07
-9.410128e+07
-9.410132e+07
-9.529495e+07
-9.529464e+07
-9.529434e+07
-9.576855e+07
-9.576808e+07
-9.576761e+07
-9.417311e+07
-9.417317e+07
-9.417322e+07
-9.576856e+07
-9.576808e+07
-9.576761e+07
-9.508062e+07
-9.508043e+07
-9.508024e+07
-9.529495e+07
-9.529465e+07
-9.529434e+07
-9.350082e+07
-9.350115e+07
-9.350148e+07
-9.410126e+07
-9.410129e+07
-9.410132e+07
-9.508062e+07
-9.508043e+07
-9.508024e+07
-9.576856e+07
-9.576808e+07
-9.576761e+07
-9.410126e+07
-9.410129e+07
-9.410132e+07
-9.529495e+07
-9.529464e+07
-9.529434e+07
-9.417311e+07
-9.417316e+07
-9.417322e+07
-9.350082e+07
-9.350115e+07
-9.350148e+07
-9.529494e+07
-9.529464e+07
-9.529433e+07
-9.350081e+07
-9.350114e+07
-9.350147e+07
-9.41731e+07
-9.417315e+07
-9.417321e+07
-9.410125e+07
-9.410128e+07
-9.410131e+07
-9.576855e+07
-9.576807e+07
-9.57676e+07
-9.508061e+07
-9.508042e+07
-9.508023e+07
-9.508061e+07
-9.508042e+07
-9.508024e+07
-9.576856e+07
-9.576808e+07
-9.576761e+07
-9.410125e+07
-9.410129e+07
-9.410132e+07
-9.350082e+07
-9.350115e+07
-9.350148e+07
-9.529495e+07
-9.529464e+07
-9.529434e+07
-9.417311e+07
-9.417316e+07
-9.417322e+07
-9.508061e+07
-9.508042e+07
-9.508023e+07
-9.576855e+07
-9.576807e+07
-9.57676e+07
-9.410125e+07
-9.410128e+07
-9.410132e+07
-9.529494e+07
-9.529463e+07
-9.529433e+07
-9.350081e+07
-9.350114e+07
-9.350147e+07
-9.41731e+07
-9.417316e+07
-9.417321e+07
-8.658199e+07
-8.658261e+07
-8.658324e+07
-8.589349e+07
-8.589385e+07
-8.589421e+07
-8.945835e+07
-8.945777e+07
-8.945719e+07
-8.945835e+07
-8.945777e+07
-8.945719e+07
-8.658198e+07
-8.658261e+07
-8.658324e+07
-9.082961e+07
-9.082862e+07
-9.082763e+07
-8.589348e+07
-8.589385e+07
-8.589421e+07
-8.658199e+07
-8.658262e+07
-8.658324e+07
-8.945836e+07
-8.945778e+07
-8.94572e+07
-8.658199e+07
-8.658262e+07
-8.658324e+07
-9.082962e+07
-9.082862e+07
-9.082763e+07
-8.945836e+07
-8.945778e+07
-8.94572e+07
-8.658198e+07
-8.658261e+07
-8.658324e+07
-8.945836e+07
-8.945777e+07
-8.945719e+07
-8.658199e+07
-8.658261e+07
-8.658324e+07
-8.589348e+07
-8.589384e+07
-8.589421e+07
-9.082961e+07
-9.082862e+07
-9.082763e+07
-8.945836e+07
-8.945777e+07
-8.945719e+07
-9.082961e+07
-9.082862e+07
-9.082763e+07
-8.945835e+07
-8.945777e+07
-8.945719e+07
-8.945835e+07
-8.945777e+07
-8.945719e+07
-8.658199e+07
-8.658261e+07
-8.658324e+07
-8.658199e+07
-8.658261e+07
-8.658324e+07
-8.589349e+07
-8.589385e+07
-8.589422e+07
-8.658199e+07
-8.658261e+07
-8.658324e+07
-8.945836e+07
-8.945777e+07
-8.945719e+07
-8.589348e+07
-8.589384e+07
-8.589421e+07
-8.658199e+07
-8.658261e+07
-8.658324e+07
-9.082961e+07
-9.082862e+07
-9.082763e+07
-8.945836e+07
-8.945777e+07
-8.945719e+07
-8.945836e+07
-8.945777e+07
-8.945719e+07
-9.082961e+07
-9.082862e+07
-9.082763e+07
-8.658199e+07
-8.658261e+07
-8.658324e+07
-8.945836e+07
-8.945777e+07
-8.945719e+07
-8.658199e+07
-8.658261e+07
-8.658324e+07
-8.589348e+07
-8.589384e+07
-8.589421e+07
-9.045527e+07
-9.045533e+07
-9.045539e+07
-8.826332e+07
-8.826454e+07
-8.826576e+07
-9.005556e+07
-9.005581e+07
-9.005607e+07
-9.310784e+07
-9.310723e+07
-9.310661e+07
-9.417216e+07
-9.41713e+07
-9.417044e+07
-9.289494e+07
-9.289433e+07
-9.289373e+07
-8.826334e+07
-8.826456e+07
-8.826577e+07
-9.045528e+07
-9.045534e+07
-9.04554e+07
-9.005557e+07
-9.005582e+07
-9.005608e+07
-9.310785e+07
-9.310723e+07
-9.310662e+07
-9.417217e+07
-9.41713e+07
-9.417044e+07
-9.289495e+07
-9.289434e+07
-9.289374e+07
-9.310784e+07
-9.310723e+07
-9.310661e+07
-9.005557e+07
-9.005582e+07
-9.005608e+07
-9.045528e+07
-9.045534e+07
-9.04554e+07
-8.826334e+07
-8.826455e+07
-8.826577e+07
-9.289494e+07
-9.289434e+07
-9.289374e+07
-9.417216e+07
-9.41713e+07
-9.417044e+07
-9.417216e+07
-9.41713e+07
-9.417044e+07
-9.310784e+07
-9.310723e+07
-9.310661e+07
-9.289494e+07
-9.289434e+07
-9.289373e+07
-9.045527e+07
-9.045533e+07
-9.04554e+07
-8.826333e+07
-8.826454e+07
-8.826576e+07
-9.005556e+07
-9.005581e+07
-9.005607e+07
-9.417216e+07
-9.41713e+07
-9.417044e+07
-9.005557e+07
-9.005582e+07
-9.005607e+07
-9.310784e+07
-9.310722e+07
-9.310661e+07
-8.826334e+07
-8.826455e+07
-8.826577e+07
-9.045528e+07
-9.045534e+07
-9.04554e+07
-9.289494e+07
-9.289434e+07
-9.289373e+07
-9.417216e+07
-9.417129e+07
-9.417043e+07
-9.289494e+07
-9.289433e+07
-9.289373e+07
-9.310784e+07
-9.310722e+07
-9.310661e+07
-9.005556e+07
-9.005581e+07
-9.005607e+07
-9.045527e+07
-9.045533e+07
-9.04554e+07
-8.826334e+07
-8.826455e+07
-8.826577e+07
-9.385796e+07
-9.385797e+07
-9.385798e+07
-9.220392e+07
-9.220453e+07
-9.220514e+07
-9.582293e+07
-9.582233e+07
-9.582175e+07
-9.268076e+07
-9.268121e+07
-9.268167e+07
-9.627494e+07
-9.627422e+07
-9.62735e+07
-9.481464e+07
-9.481432e+07
-9.481401e+07
-9.385797e+07
-9.385797e+07
-9.385799e+07
-9.582294e+07
-9.582234e+07
-9.582175e+07
-9.627495e+07
-9.627423e+07
-9.627351e+07
-9.481464e+07
-9.481433e+07
-9.481402e+07
-9.268076e+07
-9.268122e+07
-9.268167e+07
-9.220392e+07
-9.220453e+07
-9.220515e+07
-9.481464e+07
-9.481432e+07
-9.481401e+07
-9.268076e+07
-9.268121e+07
-9.268167e+07
-9.627494e+07
-9.627422e+07
-9.62735e+07
-9.220392e+07
-9.220453e+07
-9.220514e+07
-9.582293e+07
-9.582233e+07
-9.582174e+07
-9.385796e+07
-9.385797e+07
-9.385798e+07
-9.220392e+07
-9.220453e+07
-9.220514e+07
-9.268076e+07
-9.268121e+07
-9.268167e+07
-9.385796e+07
-9.385797e+07
-9.385798e+07
-9.582293e+07
-9.582234e+07
-9.582175e+07
-9.627494e+07
-9.627422e+07
-9.62735e+07
-9.481464e+07
-9.481432e+07
-9.481401e+07
-9.220392e+07
-9.220453e+07
-9.220514e+07
-9.481464e+07
-9.481432e+07
-9.481401e+07
-9.268076e+07
-9.268121e+07
-9.268167e+07
-9.385796e+07
-9.385797e+07
-9.385798e+07
-9.582293e+07
-9.582233e+07
-9.582175e+07
-9.627494e+07
-9.627422e+07
-9.62735e+07
-9.582292e+07
-9.582233e+07
-9.582174e+07
-9.627494e+07
-9.627421e+07
-9.627349e+07
-9.481463e+07
-9.481432e+07
-9.481401e+07
-9.385795e+07
-9.385796e+07
-9.385798e+07
-9.268075e+07
-9.268121e+07
-9.268166e+07
-9.220391e+07
-9.220452e+07
-9.220514e+07
-9.268076e+07
-9.268121e+07
-9.268167e+07
-9.582293e+07
-9.582233e+07
-9.582175e+07
-9.481464e+07
-9.481432e+07
-9.481401e+07
-9.385796e+07
-9.385797e+07
-9.385798e+07
-9.220392e+07
-9.220453e+07
-9.220514e+07
-9.627494e+07
-9.627422e+07
-9.62735e+07
-9.268076e+07
-9.268122e+07
-9.268168e+07
-9.385797e+07
-9.385798e+07
-9.385799e+07
-9.220392e+07
-9.220453e+07
-9.220515e+07
-9.481465e+07
-9.481433e+07
-9.481402e+07
-9.582294e+07
-9.582234e+07
-9.582176e+07
-9.627495e+07
-9.627423e+07
-9.627351e+07
-9.220392e+07
-9.220453e+07
-9.220514e+07
-9.582293e+07
-9.582233e+07
-9.582175e+07
-9.385796e+07
-9.385797e+07
-9.385798e+07
-9.627494e+07
-9.627422e+07
-9.62735e+07
-9.481464e+07
-9.481432e+07
-9.481401e+07
-9.268076e+07
-9.268121e+07
-9.268167e+07
-9.481464e+07
-9.481432e+07
-9.481401e+07
-9.268076e+07
-9.268121e+07
-9.268167e+07
-9.627494e+07
-9.627422e+07
-9.62735e+07
-9.582292e+07
-9.582233e+07
-9.582174e+07
-9.220392e+07
-9.220452e+07
-9.220514e+07
-9.385796e+07
-9.385797e+07
-9.385798e+07
-9.385796e+07
-9.385797e+07
-9.385798e+07
-9.582293e+07
-9.582234e+07
-9.582175e+07
-9.220392e+07
-9.220453e+07
-9.220514e+07
-9.481464e+07
-9.481432e+07
-9.481401e+07
-9.627495e+07
-9.627422e+07
-9.62735e+07
-9.268076e+07
-9.268121e+07
-9.268167e+07
-9.481463e+07
-9.481432e+07
-9.481401e+07
-9.627494e+07
-9.627421e+07
-9.627349e+07
-9.268075e+07
-9.268121e+07
-9.268166e+07
-9.220391e+07
-9.220452e+07
-9.220514e+07
-9.385795e+07
-9.385796e+07
-9.385798e+07
-9.582292e+07
-9.582233e+07
-9.582174e+07
-8.826334e+07
-8.826455e+07
-8.826577e+07
-9.417216e+07
-9.41713e+07
-9.417044e+07
-9.289494e+07
-9.289433e+07
-9.289373e+07
-9.005557e+07
-9.005582e+07
-9.005607e+07
-9.310784e+07
-9.310722e+07
-9.310661e+07
-9.045528e+07
-9.045534e+07
-9.04554e+07
-9.045527e+07
-9.045533e+07
-9.04554e+07
-8.826333e+07
-8.826454e+07
-8.826576e+07
-9.417217e+07
-9.41713e+07
-9.417044e+07
-9.005556e+07
-9.005581e+07
-9.005607e+07
-9.310784e+07
-9.310723e+07
-9.310662e+07
-9.289495e+07
-9.289434e+07
-9.289374e+07
-9.045528e+07
-9.045534e+07
-9.04554e+07
-8.826334e+07
-8.826455e+07
-8.826577e+07
-9.310784e+07
-9.310723e+07
-9.310662e+07
-9.417216e+07
-9.41713e+07
-9.417044e+07
-9.005557e+07
-9.005582e+07
-9.005607e+07
-9.289494e+07
-9.289434e+07
-9.289373e+07
-8.826334e+07
-8.826455e+07
-8.826577e+07
-9.310784e+07
-9.310722e+07
-9.310661e+07
-9.289494e+07
-9.289433e+07
-9.289373e+07
-9.005556e+07
-9.005582e+07
-9.005607e+07
-9.045527e+07
-9.045533e+07
-9.04554e+07
-9.417216e+07
-9.417129e+07
-9.417043e+07
-9.310784e+07
-9.310723e+07
-9.310662e+07
-9.045528e+07
-9.045534e+07
-9.04554e+07
-9.005556e+07
-9.005582e+07
-9.005607e+07
-9.417217e+07
-9.41713e+07
-9.417044e+07
-8.826333e+07
-8.826455e+07
-8.826576e+07
-9.289495e+07
-9.289434e+07
-9.289374e+07
-9.005556e+07
-9.005582e+07
-9.005607e+07
-9.289494e+07
-9.289433e+07
-9.289373e+07
-9.417216e+07
-9.417129e+07
-9.417043e+07
-8.826334e+07
-8.826455e+07
-8.826577e+07
-9.045527e+07
-9.045533e+07
-9.04554e+07
-9.310784e+07
-9.310722e+07
-9.310661e+07
-8.108326e+07
-8.108354e+07
-8.108383e+07
-8.020537e+07
-8.020585e+07
-8.020633e+07
-8.311081e+07
-8.311039e+07
-8.310998e+07
-8.311081e+07
-8.311039e+07
-8.310998e+07
-8.108326e+07
-8.108354e+07
-8.108383e+07
-8.413355e+07
-8.413279e+07
-8.413204e+07
-8.31108e+07
-8.311038e+07
-8.310997e+07
-8.108325e+07
-8.108354e+07
-8.108383e+07
-8.108325e+07
-8.108354e+07
-8.108383e+07
-8.31108e+07
-8.311038e+07
-8.310997e+07
-8.020536e+07
-8.020584e+07
-8.020633e+07
-8.413354e+07
-8.413278e+07
-8.413203e+07
-8.108325e+07
-8.108354e+07
-8.108382e+07
-8.108325e+07
-8.108354e+07
-8.108382e+07
-8.311079e+07
-8.311038e+07
-8.310997e+07
-8.020536e+07
-8.020584e+07
-8.020633e+07
-8.311079e+07
-8.311038e+07
-8.310997e+07
-8.413353e+07
-8.413278e+07
-8.413203e+07
-8.413355e+07
-8.413279e+07
-8.413204e+07
-8.020537e+07
-8.020585e+07
-8.020633e+07
-8.108326e+07
-8.108355e+07
-8.108383e+07
-8.311081e+07
-8.311039e+07
-8.310998e+07
-8.311081e+07
-8.311039e+07
-8.310998e+07
-8.108326e+07
-8.108355e+07
-8.108383e+07
-8.108325e+07
-8.108354e+07
-8.108382e+07
-8.020536e+07
-8.020584e+07
-8.020633e+07
-8.108325e+07
-8.108354e+07
-8.108383e+07
-8.311079e+07
-8.311038e+07
-8.310997e+07
-8.31108e+07
-8.311038e+07
-8.310997e+07
-8.413353e+07
-8.413278e+07
-8.413203e+07
-8.108325e+07
-8.108354e+07
-8.108382e+07
-8.020536e+07
-8.020584e+07
-8.020633e+07
-8.108325e+07
-8.108354e+07
-8.108382e+07
-8.311079e+07
-8.311038e+07
-8.310997e+07
-8.413353e+07
-8.413278e+07
-8.413203e+07
-8.311079e+07
-8.311038e+07
-8.310997e+07
-7.603387e+07
-7.603379e+07
-7.603371e+07
-7.603387e+07
-7.603379e+07
-7.603371e+07
-7.603387e+07
-7.603379e+07
-7.603371e+07
-7.603387e+07
-7.603379e+07
-7.603371e+07
-7.603387e+07
-7.603379e+07
-7.603371e+07
-7.603387e+07
-7.603379e+07
-7.603371e+07
-7.603387e+07
-7.603379e+07
-7.60337e+07
-7.603387e+07
-7.603379e+07
-7.60337e+07
-7.603387e+07
-7.603379e+07
-7.60337e+07
-7.603387e+07
-7.603379e+07
-7.60337e+07
-7.603387e+07
-7.603379e+07
-7.60337e+07
-7.603387e+07
-7.603379e+07
-7.603371e+07
-7.603387e+07
-7.603379e+07
-7.603371e+07
-7.603387e+07
-7.603379e+07
-7.603371e+07
-7.603387e+07
-7.603379e+07
-7.603371e+07
-7.603387e+07
-7.603379e+07
-7.603371e+07
-7.603387e+07
-7.603379e+07
-7.603371e+07
-7.603387e+07
-7.603379e+07
-7.603371e+07
-7.603387e+07
-7.603378e+07
-7.60337e+07
-7.603387e+07
-7.603378e+07
-7.60337e+07
-7.603387e+07
-7.603378e+07
-7.60337e+07
-7.603387e+07
-7.603378e+07
-7.60337e+07
-7.603387e+07
-7.603378e+07
-7.60337e+07
-7.603387e+07
-7.603378e+07
-7.60337e+07
-7.603387e+07
-7.603379e+07
-7.603371e+07
-7.603387e+07
-7.603379e+07
-7.603371e+07
-7.603387e+07
-7.603379e+07
-7.603371e+07
-7.603387e+07
-7.603379e+07
-7.603371e+07
-7.603387e+07
-7.603379e+07
-7.603371e+07
-7.603387e+07
-7.603379e+07
-7.603371e+07
-7.603387e+07
-7.603379e+07
-7.603371e+07
-7.603387e+07
-7.603379e+07
-7.603371e+07
-7.603387e+07
-7.603379e+07
-7.603371e+07
-7.603387e+07
-7.603379e+07
-7.603371e+07
-7.603387e+07
-7.603379e+07
-7.603371e+07
-7.603387e+07
-7.603379e+07
-7.603371e+07
-8.366703e+07
-8.36677e+07
-8.366838e+07
-8.545115e+07
-8.545147e+07
-8.545179e+07
-8.421533e+07
-8.421605e+07
-8.421677e+07
-8.946225e+07
-8.946111e+07
-8.945997e+07
-8.72404e+07
-8.724005e+07
-8.72397e+07
-8.847609e+07
-8.847533e+07
-8.847458e+07
-8.421535e+07
-8.421607e+07
-8.42168e+07
-8.724043e+07
-8.724008e+07
-8.723974e+07
-8.366704e+07
-8.366772e+07
-8.36684e+07
-8.545118e+07
-8.54515e+07
-8.545182e+07
-8.847612e+07
-8.847537e+07
-8.847462e+07
-8.946228e+07
-8.946114e+07
-8.946001e+07
-8.366703e+07
-8.36677e+07
-8.366838e+07
-8.421533e+07
-8.421605e+07
-8.421677e+07
-8.545116e+07
-8.545148e+07
-8.54518e+07
-8.724041e+07
-8.724006e+07
-8.723971e+07
-8.946226e+07
-8.946112e+07
-8.945998e+07
-8.84761e+07
-8.847535e+07
-8.847459e+07
-8.545116e+07
-8.545147e+07
-8.545179e+07
-8.366703e+07
-8.36677e+07
-8.366838e+07
-8.421533e+07
-8.421605e+07
-8.421677e+07
-8.847609e+07
-8.847533e+07
-8.847458e+07
-8.946225e+07
-8.946111e+07
-8.945997e+07
-8.72404e+07
-8.724005e+07
-8.72397e+07
-8.366703e+07
-8.36677e+07
-8.366838e+07
-8.724042e+07
-8.724006e+07
-8.723971e+07
-8.545117e+07
-8.545148e+07
-8.54518e+07
-8.847611e+07
-8.847535e+07
-8.847459e+07
-8.421534e+07
-8.421606e+07
-8.421678e+07
-8.946226e+07
-8.946112e+07
-8.945998e+07
-8.84761e+07
-8.847535e+07
-8.847459e+07
-8.946226e+07
-8.946112e+07
-8.945998e+07
-8.545116e+07
-8.545148e+07
-8.54518e+07
-8.724041e+07
-8.724006e+07
-8.723971e+07
-8.366703e+07
-8.36677e+07
-8.366837e+07
-8.421533e+07
-8.421605e+07
-8.421677e+07
-8.7616e+07
-8.761588e+07
-8.761577e+07
-8.476113e+07
-8.476198e+07
-8.476282e+07
-8.476114e+07
-8.476198e+07
-8.476283e+07
-9.040392e+07
-9.040291e+07
-9.040191e+07
-9.040392e+07
-9.040292e+07
-9.040191e+07
-8.761599e+07
-8.761588e+07
-8.761577e+07
-8.476114e+07
-8.476198e+07
-8.476282e+07
-9.040393e+07
-9.040292e+07
-9.040192e+07
-8.7616e+07
-8.761589e+07
-8.761578e+07
-8.761599e+07
-8.761588e+07
-8.761577e+07
-8.476114e+07
-8.476199e+07
-8.476283e+07
-9.040393e+07
-9.040292e+07
-9.040192e+07
-9.040392e+07
-9.040292e+07
-9.040191e+07
-8.7616e+07
-8.761588e+07
-8.761577e+07
-8.7616e+07
-8.761588e+07
-8.761577e+07
-9.040392e+07
-9.040292e+07
-9.040191e+07
-8.476115e+07
-8.476199e+07
-8.476284e+07
-8.476115e+07
-8.476199e+07
-8.476284e+07
-8.476113e+07
-8.476198e+07
-8.476282e+07
-8.761599e+07
-8.761588e+07
-8.761577e+07
-8.476114e+07
-8.476198e+07
-8.476283e+07
-8.761599e+07
-8.761588e+07
-8.761577e+07
-9.040392e+07
-9.040291e+07
-9.040191e+07
-9.040392e+07
-9.040291e+07
-9.040191e+07
-8.476113e+07
-8.476198e+07
-8.476282e+07
-9.040392e+07
-9.040292e+07
-9.040191e+07
-8.7616e+07
-8.761589e+07
-8.761578e+07
-9.040392e+07
-9.040292e+07
-9.040191e+07
-8.761599e+07
-8.761588e+07
-8.761577e+07
-8.476114e+07
-8.476198e+07
-8.476283e+07
-8.476115e+07
-8.476199e+07
-8.476283e+07
-8.476115e+07
-8.476199e+07
-8.476283e+07
-8.761599e+07
-8.761588e+07
-8.761577e+07
-8.761599e+07
-8.761588e+07
-8.761577e+07
-9.040392e+07
-9.040291e+07
-9.040191e+07
-9.040392e+07
-9.040291e+07
-9.040191e+07
-8.545116e+07
-8.545148e+07
-8.54518e+07
-8.847611e+07
-8.847535e+07
-8.847459e+07
-8.366703e+07
-8.36677e+07
-8.366838e+07
-8.946226e+07
-8.946112e+07
-8.945998e+07
-8.421534e+07
-8.421606e+07
-8.421678e+07
-8.724041e+07
-8.724006e+07
-8.723971e+07