/*--------------------------------*- C++ -*----------------------------------*\
| =========                 |                                                 |
| \\      /  F ield         | OpenFOAM: The Open Source CFD Toolbox           |
|  \\    /   O peration     | Version:  2212                                  |
|   \\  /    A nd           | Website:  www.openfoam.com                      |
|    \\/     M anipulation  |                                                 |
\*---------------------------------------------------------------------------*/
FoamFile
{
    version     2.0;
    format      ascii;
    arch        "LSB;label=32;scalar=64";
    class       volVectorField;
    location    "200/fluidRegion";
    object      U;
}
// * * * * * * * * * * * * * * * * * * * * * * * * * * * * * * * * * * * * * //

dimensions      [0 1 -1 0 0 0 0];

internalField   nonuniform List<vector> 
23322
(
(-3.3797e-13 -5.218866e-14 4.559114)
(-1.359628e-13 8.444498e-15 4.559114)
(1.254673e-14 2.757285e-14 4.559114)
(-5.90573e-14 3.561574e-13 4.559114)
(1.963705e-13 2.70371e-13 4.559114)
(2.785575e-13 1.463376e-13 4.559114)
(3.935804e-13 -2.008196e-14 4.559114)
(3.238441e-13 1.169178e-13 4.559114)
(2.112243e-13 1.567671e-13 4.559114)
(5.042403e-13 1.633443e-13 4.559114)
(4.345157e-13 1.230753e-13 4.559114)
(3.115702e-13 6.401569e-14 4.559114)
(1.106599e-13 3.377382e-13 4.559114)
(1.106715e-13 1.402995e-13 4.559114)
(1.003459e-13 1.738287e-14 4.559114)
(2.789127e-13 5.626581e-13 4.559114)
(3.323333e-13 3.960685e-13 4.559114)
(2.660108e-13 2.28899e-13 4.559114)
(-4.978137e-10 -9.181832e-10 4.559114)
(-4.500989e-10 -4.155384e-10 4.559114)
(-2.611271e-10 -8.456675e-11 4.559114)
(5.462634e-10 1.128711e-10 4.559114)
(1.348174e-10 2.012587e-10 4.559114)
(-5.732658e-11 2.176004e-10 4.559114)
(-7.190418e-10 1.311739e-11 4.559114)
(-3.52868e-10 7.536715e-11 4.559114)
(-1.169872e-10 1.169603e-10 4.559114)
(7.727274e-10 6.189368e-10 4.559114)
(1.810245e-10 4.958768e-10 4.559114)
(-1.099189e-10 2.874753e-10 4.559114)
(5.368557e-11 -8.612735e-10 4.559114)
(-1.718435e-10 -3.08243e-10 4.559114)
(-2.26906e-10 -4.080889e-12 4.559114)
(-1.044077e-09 4.62273e-10 4.559114)
(-5.849163e-10 2.626897e-10 4.559114)
(-2.038005e-10 1.063493e-10 4.559114)
(2.049565e-11 -6.671709e-11 4.559114)
(-1.785906e-11 -4.207824e-11 4.559114)
(-1.414942e-11 -2.647112e-11 4.559114)
(-9.451083e-11 7.82322e-11 4.559114)
(-4.877905e-11 7.54073e-12 4.559114)
(-2.120174e-11 -4.097517e-12 4.559114)
(-1.873629e-12 -7.746851e-11 4.559114)
(4.88147e-12 -3.458562e-11 4.559114)
(6.647999e-12 -2.214016e-11 4.559114)
(-1.150064e-10 -3.244747e-12 4.559114)
(-3.091994e-11 -1.712939e-11 4.559114)
(-7.052269e-12 -1.628572e-11 4.559114)
(-1.003525e-10 -1.275824e-10 4.559114)
(-5.088049e-11 -6.435698e-11 4.559114)
(-2.607406e-11 -3.541132e-11 4.559114)
(-1.022262e-10 -5.685681e-11 4.559114)
(-4.599906e-11 -3.21942e-11 4.559114)
(-1.942611e-11 -1.889211e-11 4.559114)
(-2.463234e-11 -4.998982e-11 4.559114)
(-1.332063e-11 -1.135808e-11 4.559114)
(2.247301e-13 -1.199783e-11 4.559114)
(2.840777e-11 -4.484417e-11 4.559114)
(3.30253e-11 -3.444846e-11 4.559114)
(3.48504e-11 -1.986134e-11 4.559114)
(5.304006e-11 -7.607462e-11 4.559114)
(4.634589e-11 -5.434156e-11 4.559114)
(3.462562e-11 -4.272658e-11 4.559114)
(2.997983e-11 -5.307728e-11 4.559114)
(4.393331e-11 -2.903241e-11 4.559114)
(3.971729e-11 -3.505847e-11 4.559114)
(6.809719e-12 -4.152032e-11 4.559114)
(9.79999e-12 -2.192571e-11 4.559114)
(4.318576e-12 -2.024213e-11 4.559114)
(3.678959e-11 -1.337729e-11 4.559114)
(5.373335e-11 -1.970691e-11 4.559114)
(4.403591e-11 -2.043748e-11 4.559114)
(-3.763414e-08 -2.21828e-08 4.559114)
(-3.580505e-08 -7.546107e-09 4.559115)
(-1.434882e-08 -1.105578e-08 4.559115)
(3.547697e-08 -1.403193e-08 4.559114)
(3.361863e-08 -6.817276e-09 4.559115)
(1.463635e-08 -1.704382e-08 4.559115)
(4.599793e-09 -3.11042e-09 4.559114)
(1.876888e-08 2.289722e-09 4.559115)
(1.48363e-08 -1.133723e-08 4.559115)
(-2.157171e-09 -4.221071e-08 4.559114)
(-2.186415e-09 -4.008177e-08 4.559115)
(2.875317e-10 -1.673459e-08 4.559115)
(-8.137446e-09 -1.000954e-08 4.559114)
(-1.724385e-09 -2.266802e-08 4.559115)
(5.329569e-09 -1.405446e-08 4.559115)
(-1.273724e-08 -9.031445e-10 4.559114)
(-2.049327e-08 7.60651e-10 4.559115)
(-9.506731e-09 -1.408224e-08 4.559115)
(6.936288e-09 -4.974619e-08 4.559114)
(3.049069e-09 -4.873382e-08 4.559115)
(-7.051033e-10 -2.033198e-08 4.559115)
(-3.961333e-08 -4.335064e-08 4.559114)
(-4.068021e-08 -2.844613e-08 4.559115)
(-1.796056e-08 1.089751e-09 4.559115)
(5.48638e-09 5.576836e-08 4.559114)
(6.733384e-09 4.366696e-08 4.559115)
(2.01521e-09 1.113981e-08 4.559115)
(4.654962e-08 -4.56811e-08 4.559114)
(4.372927e-08 -3.44608e-08 4.559115)
(1.725546e-08 -1.644309e-09 4.559115)
(-4.555362e-08 5.820517e-09 4.559114)
(-3.445e-08 1.493031e-08 4.559115)
(-8.639751e-09 1.644745e-08 4.559115)
(5.104e-08 1.066228e-08 4.559114)
(4.118338e-08 1.456355e-08 4.559115)
(1.065496e-08 1.446978e-08 4.559115)
(3.654998e-08 1.817831e-08 4.559114)
(2.91094e-08 6.336056e-09 4.559114)
(1.164575e-08 9.990994e-09 4.559115)
(-3.432482e-08 1.256117e-08 4.559114)
(-2.734562e-08 3.906378e-09 4.559114)
(-1.050785e-08 8.914926e-09 4.559115)
(2.225159e-09 4.091959e-08 4.559114)
(1.763779e-09 3.259433e-08 4.559114)
(1.137895e-09 1.279039e-08 4.559115)
(-1.557713e-10 -2.833898e-09 4.559114)
(-1.490996e-08 -1.861999e-09 4.559114)
(-1.479804e-08 1.181097e-08 4.559115)
(6.132934e-09 -3.715421e-09 4.559114)
(1.789601e-08 -1.549361e-09 4.559114)
(1.629889e-08 1.225838e-08 4.559115)
(5.977163e-09 3.630785e-09 4.559114)
(2.98605e-09 1.894053e-08 4.559114)
(1.500847e-09 1.795381e-08 4.559115)
(3.135345e-08 -4.991905e-09 4.559114)
(2.639987e-08 -1.822034e-09 4.559114)
(9.960535e-09 -8.174985e-09 4.559115)
(-3.462145e-08 -1.068017e-08 4.559114)
(-2.876638e-08 -4.422058e-09 4.559114)
(-1.143037e-08 -9.375918e-09 4.559115)
(-3.267997e-09 -3.809063e-08 4.559114)
(-2.366508e-09 -3.185026e-08 4.559114)
(-1.469835e-09 -1.235005e-08 4.559115)
(2.147117e-09 8.068895e-09 4.559114)
(1.526321e-08 3.374003e-09 4.559114)
(1.488487e-08 -1.137037e-08 4.559115)
(-8.707295e-09 8.082862e-09 4.559114)
(-1.869815e-08 2.624558e-09 4.559114)
(-1.665982e-08 -1.204281e-08 4.559115)
(-6.560178e-09 -6.266796e-09 4.559114)
(-3.434941e-09 -1.96076e-08 4.559114)
(-1.774951e-09 -1.821233e-08 4.559115)
(3.837864e-08 1.683327e-08 4.559114)
(4.002957e-08 2.286151e-08 4.559115)
(1.286778e-08 6.781744e-09 4.559115)
(-3.812968e-08 1.727406e-08 4.559114)
(-3.99627e-08 2.292946e-08 4.559115)
(-1.283192e-08 6.737316e-09 4.559115)
(5.062115e-10 -4.110634e-08 4.559114)
(9.2291e-11 -4.612406e-08 4.559115)
(-2.054413e-11 -1.493403e-08 4.559115)
(2.489603e-10 -4.417211e-08 4.559114)
(6.687498e-11 -4.618357e-08 4.559115)
(3.586226e-11 -1.483773e-08 4.559115)
(-3.534604e-08 1.858415e-08 4.559114)
(-3.989848e-08 2.293719e-08 4.559115)
(-1.294353e-08 6.738011e-09 4.559115)
(3.585225e-08 1.858894e-08 4.559114)
(3.999077e-08 2.291326e-08 4.559115)
(1.292298e-08 6.68474e-09 4.559115)
(4.613699e-11 -5.530783e-12 4.559114)
(2.109872e-11 -7.3449e-12 4.559114)
(8.010566e-12 -6.284067e-12 4.559114)
(3.325615e-11 4.030676e-11 4.559114)
(1.734485e-11 1.48504e-11 4.559114)
(9.390243e-12 3.762186e-12 4.559114)
(7.892027e-11 -7.709719e-12 4.559114)
(3.573286e-11 -3.73227e-12 4.559114)
(1.650518e-11 2.795183e-13 4.559114)
(4.517079e-11 -5.540531e-12 4.559114)
(2.644743e-11 -1.125075e-12 4.559114)
(1.545848e-11 -9.490232e-13 4.559114)
(7.842689e-11 -6.878947e-12 4.559114)
(4.379224e-11 -5.255407e-12 4.559114)
(2.484867e-11 -3.503525e-12 4.559114)
(3.278332e-11 3.946629e-11 4.559114)
(1.463419e-11 2.259341e-11 4.559114)
(8.494659e-12 1.288033e-11 4.559114)
(-2.074467e-08 7.916441e-09 4.559114)
(-1.750588e-08 3.710226e-09 4.559114)
(-6.835212e-09 6.399415e-09 4.559114)
(2.303929e-08 1.06867e-08 4.559114)
(1.892092e-08 4.994445e-09 4.559114)
(7.641281e-09 7.012e-09 4.559114)
(4.842184e-09 -1.264863e-09 4.559114)
(1.183248e-08 4.346812e-10 4.559114)
(1.071923e-08 8.641848e-09 4.559114)
(-1.295756e-09 -1.866939e-09 4.559114)
(-1.001278e-08 -1.486724e-10 4.559114)
(-9.78567e-09 8.250061e-09 4.559114)
(3.546428e-09 3.543741e-09 4.559114)
(1.819696e-09 1.261236e-08 4.559114)
(9.335554e-10 1.18385e-08 4.559114)
(2.294621e-09 2.527868e-08 4.559114)
(1.415034e-09 2.103103e-08 4.559114)
(8.060692e-10 8.358009e-09 4.559114)
(-3.516943e-13 -6.867228e-13 4.559114)
(-1.928453e-13 -2.725951e-13 4.559114)
(-1.75526e-13 7.176883e-14 4.559114)
(-7.705198e-13 6.061336e-13 4.559114)
(-3.324501e-13 7.25494e-13 4.559114)
(-2.556247e-14 6.156464e-13 4.559114)
(-2.025163e-13 1.168025e-12 4.559114)
(-3.258608e-13 1.105679e-12 4.559114)
(-3.191483e-13 8.147738e-13 4.559114)
(5.086903e-14 2.632691e-13 4.559114)
(-1.488259e-13 2.904012e-13 4.559114)
(-2.662243e-13 2.148703e-13 4.559114)
(4.188724e-13 3.398656e-13 4.559114)
(1.396517e-13 7.806046e-13 4.559114)
(-1.499167e-13 8.224162e-13 4.559114)
(2.534322e-13 7.280209e-13 4.559114)
(1.770818e-13 9.63471e-13 4.559114)
(5.297094e-14 7.664447e-13 4.559114)
(-1.617628e-08 7.778752e-08 4.559105)
(-5.81796e-08 1.590708e-08 4.559105)
(-3.060103e-08 -3.508072e-09 4.559105)
(-3.104448e-08 5.052462e-08 4.559105)
(-1.749376e-08 -2.778295e-08 4.559105)
(8.872641e-09 -1.605296e-08 4.559105)
(-5.626228e-08 3.676184e-08 4.559105)
(1.625914e-10 5.876155e-08 4.559105)
(-4.640941e-09 2.232012e-08 4.559105)
(-3.173449e-08 3.568415e-10 4.559105)
(-8.361535e-08 1.890467e-08 4.559105)
(-3.111623e-08 1.737006e-08 4.559105)
(-8.730677e-08 1.455951e-08 4.559105)
(-1.733116e-08 -1.01939e-08 4.559105)
(4.2317e-09 7.802072e-09 4.559105)
(-1.555821e-08 -4.703747e-09 4.559105)
(-2.543574e-08 4.417008e-08 4.559105)
(-5.152034e-10 1.934322e-08 4.559105)
(9.572315e-09 1.004083e-08 4.559113)
(1.063457e-08 -2.413679e-09 4.559113)
(4.087068e-09 2.421082e-09 4.559113)
(-4.748332e-09 7.255701e-09 4.559113)
(-1.304043e-08 -1.024658e-09 4.559113)
(-9.89101e-09 5.771988e-09 4.559113)
(-9.523959e-09 1.000574e-08 4.559113)
(-1.059711e-08 -2.434737e-09 4.559113)
(-4.070629e-09 2.407953e-09 4.559113)
(4.802905e-09 7.280035e-09 4.559113)
(1.30774e-08 -1.00274e-09 4.559113)
(9.910597e-09 5.779658e-09 4.559113)
(5.457351e-11 5.514408e-09 4.559113)
(3.696921e-11 1.507913e-08 4.559113)
(1.958706e-11 1.143246e-08 4.559113)
(4.835613e-11 1.102524e-08 4.559113)
(3.746731e-11 1.225812e-08 4.559113)
(1.64384e-11 4.709849e-09 4.559113)
(2.168878e-09 -6.21482e-10 4.559113)
(4.135437e-10 1.401391e-09 4.559113)
(2.074363e-10 1.554734e-09 4.559113)
(1.619288e-09 -1.569509e-09 4.559113)
(2.208141e-09 7.973521e-10 4.559113)
(1.254504e-09 4.847614e-10 4.559113)
(3.913401e-09 2.890123e-09 4.559113)
(3.853371e-09 3.864894e-09 4.559113)
(2.228172e-09 2.960933e-09 4.559113)
(-5.495902e-10 1.63974e-09 4.559113)
(1.794598e-09 3.235023e-09 4.559113)
(1.047067e-09 2.335012e-09 4.559113)
(-1.145478e-09 2.618388e-09 4.559113)
(-1.161324e-09 2.869402e-09 4.559113)
(-9.251782e-10 2.264639e-09 4.559113)
(2.767923e-09 2.920744e-09 4.559113)
(2.692046e-09 2.895235e-09 4.559113)
(1.302994e-09 1.820587e-09 4.559113)
(3.444378e-11 1.795066e-11 4.559114)
(1.398309e-11 5.808129e-12 4.559114)
(-1.660368e-12 -2.502761e-12 4.559114)
(-3.320336e-11 1.866682e-11 4.559114)
(-3.69076e-11 -7.427346e-12 4.559114)
(-2.820978e-11 -1.974831e-11 4.559114)
(6.195551e-13 -3.941462e-11 4.559114)
(-2.410297e-11 -3.00622e-11 4.559114)
(-3.051756e-11 -1.570215e-11 4.559114)
(-5.056992e-11 -9.143436e-12 4.559114)
(-5.989199e-11 -8.038626e-12 4.559114)
(-4.954894e-11 -3.966815e-12 4.559114)
(-3.382428e-11 -4.079935e-11 4.559114)
(-3.80861e-11 -4.94324e-11 4.559114)
(-2.885724e-11 -4.210408e-11 4.559114)
(-1.736651e-11 -1.124433e-11 4.559114)
(-2.298434e-11 -1.417335e-11 4.559114)
(-2.133911e-11 -1.31232e-11 4.559114)
(-2.952762e-09 -5.842336e-11 4.559114)
(-2.544673e-09 -1.303824e-10 4.559114)
(-9.842774e-10 -5.566485e-10 4.559114)
(-4.185481e-10 1.888004e-09 4.559114)
(8.521221e-10 8.468125e-10 4.559114)
(8.06639e-10 -4.540888e-10 4.559114)
(2.552011e-09 6.727603e-10 4.559114)
(2.239014e-09 3.652533e-11 4.559114)
(9.299566e-10 -9.266148e-10 4.559114)
(-8.335984e-10 2.019322e-12 4.559114)
(-2.973739e-10 -1.155635e-09 4.559114)
(2.932415e-10 -7.621233e-10 4.559114)
(-4.007511e-10 -3.178183e-09 4.559114)
(-3.056591e-10 -2.761864e-09 4.559114)
(-5.432078e-11 -1.105184e-09 4.559114)
(-4.150504e-10 1.906535e-09 4.559114)
(-1.149496e-09 6.65559e-10 4.559114)
(-5.133976e-10 -6.86114e-10 4.559114)
(-2.006367e-09 -3.238279e-09 4.559114)
(-1.248231e-09 -2.002935e-09 4.559114)
(-6.883421e-10 2.077357e-10 4.559114)
(-3.807617e-09 -8.353421e-10 4.559114)
(-2.358709e-09 2.881398e-09 4.559114)
(-1.642667e-10 3.839677e-09 4.559114)
(1.801249e-09 1.406705e-09 4.559114)
(1.110478e-09 4.104199e-09 4.559114)
(-5.240754e-10 4.441381e-09 4.559114)
(-2.013771e-09 2.525638e-09 4.559114)
(-2.886588e-09 5.909772e-09 4.559114)
(-2.902872e-09 5.610492e-09 4.559114)
(-9.310819e-10 1.909097e-09 4.559114)
(1.203501e-09 5.440177e-09 4.559114)
(2.037611e-09 5.315222e-09 4.559114)
(-2.944853e-09 6.250909e-10 4.559114)
(-1.683086e-09 2.361415e-09 4.559114)
(-8.652609e-10 2.85239e-09 4.559114)
(-2.63373e-11 -1.564725e-11 4.559114)
(-1.287158e-11 -9.512187e-12 4.559114)
(-2.105024e-12 -2.430228e-12 4.559114)
(-6.35856e-12 -3.452421e-11 4.559114)
(6.630607e-12 -1.311542e-11 4.559114)
(8.796726e-12 1.433229e-12 4.559114)
(-3.340419e-11 1.112583e-11 4.559114)
(-7.592015e-12 1.047962e-11 4.559114)
(6.161049e-12 5.987811e-12 4.559114)
(-7.066846e-12 -2.404952e-11 4.559114)
(5.279612e-12 3.099297e-12 4.559114)
(8.26612e-12 1.183545e-11 4.559114)
(-2.397753e-11 6.501253e-12 4.559114)
(7.122863e-12 3.544033e-12 4.559114)
(1.543337e-11 1.247182e-12 4.559114)
(-1.761901e-11 -9.797127e-12 4.559114)
(4.922093e-13 -2.330657e-13 4.559114)
(6.636592e-12 3.231368e-12 4.559114)
(-3.448904e-09 1.29599e-09 4.559114)
(-2.686215e-09 4.600804e-12 4.559114)
(-1.040486e-09 6.688219e-10 4.559114)
(2.703001e-09 8.174914e-10 4.559114)
(2.293694e-09 -2.389991e-10 4.559114)
(8.344164e-10 5.426822e-10 4.559114)
(-7.459038e-10 3.551803e-09 4.559114)
(-3.92521e-10 2.875151e-09 4.559114)
(-2.060693e-10 1.082475e-09 4.559114)
(-9.924111e-10 -1.701176e-10 4.559114)
(-2.089798e-09 -3.567182e-10 4.559114)
(-1.719599e-09 1.053743e-09 4.559114)
(2.050671e-10 -5.768395e-10 4.559114)
(1.682574e-09 -5.748513e-10 4.559114)
(1.507325e-09 9.383519e-10 4.559114)
(-7.87344e-10 6.913645e-10 4.559114)
(-4.072241e-10 2.177981e-09 4.559114)
(-2.122745e-10 1.863066e-09 4.559114)
(-2.397019e-11 4.304101e-11 4.559114)
(-1.609132e-11 3.585267e-12 4.559114)
(-8.564607e-12 2.135618e-12 4.559114)
(-4.925971e-11 -2.317091e-11 4.559114)
(-1.115059e-11 4.976395e-12 4.559114)
(-6.131803e-12 1.503953e-11 4.559114)
(-2.900908e-11 -6.835942e-11 4.559114)
(-1.450239e-11 -9.834362e-12 4.559114)
(-3.335574e-12 9.573538e-12 4.559114)
(2.528947e-11 -4.984419e-11 4.559114)
(-4.940773e-12 -6.755267e-12 4.559114)
(-2.432851e-12 9.073408e-12 4.559114)
(-6.073097e-12 -6.093889e-11 4.559114)
(-3.704241e-12 -1.764176e-12 4.559114)
(-6.111106e-12 1.400616e-11 4.559114)
(-3.508213e-11 -1.324212e-11 4.559114)
(-1.820658e-11 -6.234344e-12 4.559114)
(-9.446633e-12 1.602427e-12 4.559114)
(-5.321324e-14 -5.990337e-12 4.559114)
(1.961937e-13 -1.362938e-12 4.559114)
(1.467606e-13 7.891435e-13 4.559114)
(-5.214392e-12 9.076197e-12 4.559114)
(-1.082242e-12 7.456468e-12 4.559114)
(7.567988e-13 5.517747e-12 4.559114)
(5.161226e-12 9.107069e-12 4.559114)
(1.278483e-12 7.494919e-12 4.559114)
(-6.099913e-13 5.516894e-12 4.559114)
(1.990227e-12 1.323586e-11 4.559114)
(3.51487e-12 1.026226e-11 4.559114)
(3.09333e-12 6.950544e-12 4.559114)
(-2.040575e-12 1.326486e-11 4.559114)
(-3.448691e-12 1.007241e-11 4.559114)
(-3.020872e-12 6.824912e-12 4.559114)
(-5.03948e-14 2.327158e-12 4.559114)
(6.61316e-14 4.020388e-12 4.559114)
(7.241157e-14 3.53001e-12 4.559114)
(-8.315278e-11 4.832191e-10 4.559114)
(4.454849e-10 7.729831e-10 4.559114)
(3.976136e-10 2.926117e-10 4.559114)
(1.359162e-09 -8.80729e-10 4.559114)
(1.323591e-09 -2.497738e-10 4.559114)
(9.093502e-10 -6.588887e-11 4.559114)
(1.717319e-09 -2.105323e-10 4.559114)
(1.929081e-09 -3.143571e-11 4.559114)
(1.180409e-09 1.204668e-10 4.559114)
(1.442315e-09 -7.150557e-10 4.559114)
(8.78106e-10 -6.903519e-10 4.559114)
(5.117365e-10 -5.453932e-10 4.559114)
(1.040986e-09 -6.978617e-11 4.559114)
(9.917646e-10 -5.681328e-11 4.559114)
(4.858772e-10 -2.17472e-10 4.559114)
(6.763334e-10 5.081464e-10 4.559114)
(9.373163e-10 3.577826e-10 4.559114)
(6.945318e-10 1.510461e-10 4.559114)
(-2.420466e-11 -7.699375e-12 4.559114)
(-1.424295e-11 -1.699297e-12 4.559114)
(-6.890079e-12 7.526142e-13 4.559114)
(-5.434475e-12 7.260264e-12 4.559114)
(-5.649838e-12 7.250471e-12 4.559114)
(-4.096823e-12 5.28924e-12 4.559114)
(2.137969e-12 2.395767e-11 4.559114)
(-4.44159e-12 1.368066e-11 4.559114)
(-4.635438e-12 6.862837e-12 4.559114)
(-1.877014e-11 1.435497e-11 4.559114)
(-8.593061e-12 6.154988e-12 4.559114)
(-2.793209e-12 2.573796e-12 4.559114)
(-8.091411e-12 -5.489092e-13 4.559114)
(-3.622187e-12 1.897267e-12 4.559114)
(-1.155972e-12 2.256539e-12 4.559114)
(-5.953489e-12 -5.90591e-12 4.559114)
(-8.063824e-12 4.731099e-13 4.559114)
(-5.791457e-12 2.008898e-12 4.559114)
(4.898567e-09 8.102207e-10 4.559114)
(3.493883e-09 -1.93907e-10 4.559114)
(1.054251e-09 3.259248e-10 4.559114)
(5.129835e-10 4.629945e-09 4.559114)
(3.648651e-10 3.60817e-09 4.559114)
(2.04594e-10 1.032994e-09 4.559114)
(-4.179926e-09 6.327873e-10 4.559114)
(-3.083653e-09 -3.783723e-10 4.559114)
(-8.385599e-10 2.142092e-10 4.559114)
(-3.753159e-09 1.489187e-10 4.559114)
(-2.942336e-09 -5.123435e-10 4.559114)
(-7.923027e-10 1.746888e-10 4.559114)
(4.266143e-09 6.825636e-10 4.559114)
(3.307201e-09 -2.493073e-10 4.559114)
(9.968966e-10 3.056248e-10 4.559114)
(7.186404e-10 5.241472e-09 4.559114)
(4.1023e-10 3.797543e-09 4.559114)
(2.156908e-10 1.092815e-09 4.559114)
(2.292671e-11 1.581154e-11 4.559114)
(9.682665e-12 7.748363e-12 4.559114)
(-3.603388e-12 -8.487104e-13 4.559114)
(-3.954499e-11 6.217023e-12 4.559114)
(-3.927426e-11 -9.336292e-12 4.559114)
(-2.996128e-11 -2.022722e-11 4.559114)
(-1.494764e-11 -3.510357e-11 4.559114)
(-2.846854e-11 -2.761696e-11 4.559114)
(-3.310362e-11 -1.495161e-11 4.559114)
(-3.787439e-11 -2.804031e-11 4.559114)
(-3.815125e-11 -4.182988e-11 4.559114)
(-2.950028e-11 -3.883898e-11 4.559114)
(-4.545355e-11 -1.942e-11 4.559114)
(-5.717086e-11 -1.234239e-11 4.559114)
(-4.945347e-11 -6.044333e-12 4.559114)
(-5.908507e-12 -2.762185e-12 4.559114)
(-1.789656e-11 -9.470602e-12 4.559114)
(-1.949214e-11 -1.055313e-11 4.559114)
(-5.842942e-09 7.21056e-09 4.559113)
(-8.015246e-09 1.914098e-09 4.559114)
(-3.70552e-09 3.401078e-10 4.559114)
(3.032465e-10 4.012217e-09 4.559113)
(6.152932e-10 -2.358266e-09 4.559114)
(2.564251e-09 -3.188033e-10 4.559114)
(-4.158177e-10 9.26559e-09 4.559113)
(2.486018e-09 9.080669e-09 4.559114)
(1.91448e-10 3.688027e-09 4.559114)
(-1.125712e-10 4.15152e-10 4.559113)
(3.101311e-09 -1.080064e-09 4.559114)
(2.755699e-09 1.369939e-09 4.559114)
(-4.605843e-09 4.087662e-09 4.559113)
(-8.355754e-09 4.431011e-09 4.559114)
(-2.092166e-09 3.070852e-09 4.559114)
(1.237099e-09 9.739755e-09 4.559113)
(-3.405076e-10 1.031938e-08 4.559114)
(1.613354e-09 4.730029e-09 4.559114)
(-1.338029e-10 1.354209e-09 4.559114)
(-3.149219e-11 5.894122e-10 4.559114)
(-6.977357e-12 1.964973e-11 4.559114)
(1.105879e-09 1.015776e-10 4.559114)
(4.946999e-10 -5.896584e-10 4.559114)
(1.352849e-11 -7.399225e-10 4.559114)
(1.962114e-10 -6.501843e-10 4.559114)
(4.290879e-10 -1.123008e-09 4.559114)
(4.680885e-10 -1.017984e-09 4.559114)
(-1.239681e-09 1.401004e-10 4.559114)
(-5.261921e-10 -5.59609e-10 4.559114)
(-2.05058e-11 -7.257281e-10 4.559114)
(-2.964737e-10 -7.467993e-10 4.559114)
(-4.70855e-10 -1.135255e-09 4.559114)
(-4.83871e-10 -1.016931e-09 4.559114)
(-1.002623e-10 -2.84452e-10 4.559114)
(-4.176717e-11 -5.195824e-10 4.559114)
(-1.578254e-11 -5.496143e-10 4.559114)
(9.39635e-11 5.750652e-11 4.559114)
(6.243323e-11 2.14518e-11 4.559114)
(-1.69112e-12 -3.209645e-11 4.559114)
(-8.235241e-11 6.421012e-11 4.559114)
(-1.894559e-10 -5.188483e-11 4.559114)
(-1.718017e-10 -1.322626e-10 4.559114)
(5.050886e-12 -1.055835e-10 4.559114)
(-1.015684e-10 -1.307322e-10 4.559114)
(-1.307743e-10 -7.354983e-11 4.559114)
(-8.891257e-11 -1.338029e-10 4.559114)
(-1.640015e-10 -1.870694e-10 4.559114)
(-1.290832e-10 -1.636242e-10 4.559114)
(-8.080874e-11 -3.581428e-11 4.559114)
(-4.191633e-11 -6.818263e-11 4.559114)
(-7.493319e-12 -8.477172e-11 4.559114)
(-1.631611e-10 -8.912685e-13 4.559114)
(-2.313722e-10 -8.518204e-11 4.559114)
(-1.79295e-10 -9.486351e-11 4.559114)
(1.385725e-09 -1.858224e-09 4.559114)
(1.375154e-09 -1.033667e-09 4.559114)
(9.220772e-10 -8.858642e-11 4.559114)
(-6.057258e-10 2.75893e-09 4.559114)
(-9.672674e-11 2.072951e-09 4.559114)
(4.235679e-10 1.03832e-09 4.559114)
(2.302132e-09 1.77951e-09 4.559114)
(1.582758e-09 1.21499e-09 4.559114)
(5.377567e-10 4.832988e-10 4.559114)
(-9.164065e-10 4.662498e-10 4.559114)
(-2.076045e-10 1.25495e-09 4.559114)
(3.843205e-10 1.340335e-09 4.559114)
(-4.444509e-10 -4.428281e-10 4.559114)
(7.221813e-10 -5.286419e-10 4.559114)
(1.203247e-09 -2.056011e-10 4.559114)
(1.61275e-10 9.022251e-10 4.559114)
(8.189081e-10 9.020132e-10 4.559114)
(7.796794e-10 6.682988e-10 4.559114)
(5.236605e-09 1.447132e-09 4.559114)
(4.534332e-09 4.959457e-10 4.559114)
(1.764425e-09 1.465271e-09 4.559114)
(-5.571706e-09 1.983001e-09 4.559114)
(-4.762794e-09 7.472418e-10 4.559114)
(-1.897078e-09 1.583075e-09 4.559114)
(5.221646e-10 -9.323531e-10 4.559114)
(2.684215e-09 -4.528268e-10 4.559114)
(2.58848e-09 1.982255e-09 4.559114)
(-3.351004e-10 6.240183e-09 4.559114)
(-2.284617e-10 5.367699e-09 4.559114)
(-1.326527e-10 2.11397e-09 4.559114)
(-1.153796e-09 -9.100793e-10 4.559114)
(-3.01608e-09 -3.806183e-10 4.559114)
(-2.75683e-09 2.038236e-09 4.559114)
(-6.316309e-10 9.676158e-10 4.559114)
(-3.318648e-10 3.291066e-09 4.559114)
(-1.683504e-10 3.086115e-09 4.559114)
(8.979993e-09 7.304608e-09 4.559114)
(9.439214e-09 3.733348e-09 4.559114)
(7.024636e-09 -2.726561e-10 4.559114)
(3.142648e-10 -1.431172e-08 4.559114)
(1.252811e-09 -1.080506e-08 4.559114)
(2.458174e-09 -4.962938e-09 4.559114)
(5.221596e-09 2.651808e-09 4.559114)
(6.156352e-09 2.10775e-09 4.559114)
(5.942244e-09 5.923018e-10 4.559114)
(1.081597e-08 -7.885675e-09 4.559114)
(7.95278e-09 -5.490214e-09 4.559114)
(3.276191e-09 -1.652202e-09 4.559114)
(4.907332e-09 -6.9572e-09 4.559114)
(4.903541e-09 -3.459959e-09 4.559114)
(3.484071e-09 -2.823368e-10 4.559114)
(-1.835978e-09 -8.730449e-09 4.559114)
(1.486434e-09 -7.149214e-09 4.559114)
(3.748445e-09 -4.458032e-09 4.559114)
(1.022647e-13 5.333908e-14 4.559114)
(2.037907e-14 1.155389e-14 4.559114)
(-9.743399e-15 -5.810298e-15 4.559114)
(-6.474234e-14 -1.554641e-13 4.559114)
(-8.940948e-14 -7.51523e-14 4.559114)
(-7.846202e-14 -3.404935e-14 4.559114)
(-1.636832e-13 1.793322e-14 4.559114)
(-1.08862e-13 -3.947762e-14 4.559114)
(-6.380044e-14 -4.821671e-14 4.559114)
(-1.868276e-13 -8.108604e-14 4.559114)
(-1.619986e-13 -3.211893e-14 4.559114)
(-1.134743e-13 -8.101815e-15 4.559114)
(-1.669602e-13 -1.27831e-13 4.559114)
(-1.097417e-13 -1.237066e-13 4.559114)
(-6.867173e-14 -9.13712e-14 4.559114)
(-2.319122e-14 -1.799292e-14 4.559114)
(-5.318352e-14 -2.958762e-14 4.559114)
(-4.972079e-14 -2.296311e-14 4.559114)
(-1.389236e-11 -1.954787e-11 4.559114)
(-6.528206e-12 -1.31388e-11 4.559114)
(4.7805e-12 -2.768607e-12 4.559114)
(1.646141e-11 2.554546e-11 4.559114)
(2.814191e-11 2.378581e-11 4.559114)
(3.221743e-11 1.308065e-11 4.559114)
(3.035372e-11 2.994882e-12 4.559114)
(3.467007e-11 3.022783e-11 4.559114)
(2.743689e-11 3.350715e-11 4.559114)
(1.687131e-11 -1.782786e-11 4.559114)
(3.069981e-11 8.167868e-13 4.559114)
(2.609456e-11 1.505722e-11 4.559114)
(2.775501e-11 3.457001e-12 4.559114)
(5.163451e-11 5.637942e-12 4.559114)
(4.752888e-11 2.690644e-12 4.559114)
(1.088365e-11 -2.081353e-11 4.559114)
(2.093465e-11 -1.875577e-12 4.559114)
(2.143427e-11 5.29137e-12 4.559114)
(-1.205043e-12 5.925963e-13 4.559114)
(-5.362868e-13 2.195141e-13 4.559114)
(5.233633e-14 -8.824818e-14 4.559114)
(1.328814e-12 5.211375e-13 4.559114)
(1.392916e-12 -2.750609e-13 4.559114)
(1.092011e-12 -7.489374e-13 4.559114)
(1.33087e-12 -7.660036e-13 4.559114)
(2.004939e-12 -4.508483e-13 4.559114)
(1.819471e-12 -2.104735e-13 4.559114)
(1.39147e-13 -1.4718e-12 4.559114)
(9.049313e-13 -1.141713e-12 4.559114)
(1.169374e-12 -6.147056e-13 4.559114)
(1.344237e-12 -8.682641e-13 4.559114)
(1.441265e-12 -1.577335e-12 4.559114)
(1.117085e-12 -1.51855e-12 4.559114)
(2.056782e-15 -9.10352e-14 4.559114)
(6.120237e-13 -3.919228e-13 4.559114)
(7.2746e-13 -4.536556e-13 4.559114)
(-8.667415e-12 4.138023e-11 4.559114)
(3.797502e-12 2.941138e-11 4.559114)
(9.834638e-12 1.694117e-11 4.559114)
(3.797203e-11 -2.544795e-11 4.559114)
(2.722285e-11 -1.173516e-11 4.559114)
(1.522942e-11 -4.344823e-13 4.559114)
(-3.052502e-12 1.533489e-11 4.559114)
(3.44853e-12 1.675587e-11 4.559114)
(7.238483e-12 1.431501e-11 4.559114)
(2.127257e-11 4.815583e-12 4.559114)
(1.263885e-11 7.467872e-12 4.559114)
(4.418974e-12 7.584623e-12 4.559114)
(4.102458e-11 2.269876e-11 4.559114)
(2.377437e-11 1.34927e-11 4.559114)
(7.990981e-12 6.64949e-12 4.559114)
(1.26052e-11 -1.728583e-11 4.559114)
(1.64364e-11 -5.104528e-12 4.559114)
(1.425366e-11 3.126761e-12 4.559114)
(-2.953648e-08 9.648275e-10 4.559114)
(-2.270749e-08 9.306367e-09 4.559114)
(-5.548408e-09 7.090782e-09 4.559115)
(-8.325133e-09 2.282424e-08 4.559114)
(-5.622369e-10 2.274115e-08 4.559114)
(4.762856e-09 7.54432e-09 4.559115)
(1.847728e-08 -9.662555e-09 4.559114)
(1.736694e-08 -1.46454e-08 4.559114)
(2.793403e-09 -1.008983e-08 4.559115)
(6.478175e-09 -2.40706e-08 4.559114)
(-1.267857e-09 -2.394021e-08 4.559114)
(-5.94508e-09 -8.270207e-09 4.559115)
(1.015215e-08 1.547438e-08 4.559114)
(1.68047e-08 1.035141e-08 4.559114)
(7.556259e-09 -1.137064e-09 4.559115)
(-2.305831e-08 -2.079308e-08 4.559114)
(-2.397535e-08 -1.237818e-08 4.559114)
(-1.149349e-08 2.290188e-10 4.559115)
(-8.938381e-14 -9.725356e-13 4.559114)
(-1.149886e-13 -6.619721e-13 4.559114)
(-1.811789e-13 -1.871939e-13 4.559114)
(-8.868853e-13 -7.573349e-13 4.559114)
(-6.30732e-13 -3.722872e-13 4.559114)
(-2.526572e-13 -1.286703e-14 4.559114)
(-4.129855e-13 9.351598e-13 4.559114)
(-5.07678e-14 6.114936e-13 4.559114)
(8.969366e-14 1.511751e-13 4.559114)
(-1.016412e-12 3.415343e-13 4.559114)
(-5.549999e-13 3.122954e-13 4.559114)
(-8.612154e-14 1.827269e-13 4.559114)
(6.033796e-13 4.842866e-13 4.559114)
(5.041853e-13 2.100478e-13 4.559114)
(1.757683e-13 -7.6646e-14 4.559114)
(7.975953e-13 -3.245124e-13 4.559114)
(5.158372e-13 -3.788083e-13 4.559114)
(7.15721e-14 -2.193939e-13 4.559114)
(4.597314e-09 8.848919e-08 4.559115)
(6.231069e-09 4.237458e-08 4.559115)
(3.111765e-09 2.067856e-10 4.559116)
(-7.433521e-08 -1.137322e-08 4.559115)
(-3.358192e-08 -5.732336e-08 4.559115)
(1.376801e-09 -6.70255e-08 4.559116)
(7.893252e-08 -1.02565e-08 4.559115)
(3.981299e-08 -5.608554e-08 4.559115)
(1.734964e-09 -6.568409e-08 4.559116)
(-9.686036e-09 -5.98829e-08 4.559115)
(-3.252903e-08 -9.549252e-08 4.559115)
(-3.914298e-08 -8.882979e-08 4.559116)
(1.29518e-08 -6.330593e-08 4.559115)
(3.671655e-08 -1.002699e-07 4.559115)
(4.186056e-08 -9.085395e-08 4.559116)
(3.265766e-09 -1.306996e-08 4.559115)
(4.187519e-09 -3.997894e-08 4.559115)
(2.717583e-09 -4.67674e-08 4.559116)
(-1.678769e-08 -8.702603e-09 4.559114)
(-1.421395e-08 4.760455e-10 4.559114)
(-5.761458e-09 -3.133615e-09 4.559114)
(1.760129e-08 -8.415234e-09 4.559114)
(1.402403e-08 -1.692452e-10 4.559114)
(5.99268e-09 -5.624231e-09 4.559114)
(8.135992e-10 -1.985448e-08 4.559114)
(-1.899157e-10 -1.63032e-08 4.559114)
(2.312215e-10 -6.786253e-09 4.559114)
(4.843403e-09 -1.806568e-09 4.559114)
(9.370386e-09 3.272476e-09 4.559114)
(6.700443e-09 -3.67574e-09 4.559114)
(1.579296e-10 -5.5015e-09 4.559114)
(4.638835e-10 -1.055217e-08 4.559114)
(2.272549e-09 -6.42495e-09 4.559114)
(-4.685473e-09 -9.582864e-10 4.559114)
(-8.906502e-09 2.785361e-09 4.559114)
(-4.427894e-09 -4.720803e-09 4.559114)
(5.182457e-11 -4.18217e-11 4.559114)
(2.821298e-11 -1.440392e-11 4.559114)
(1.111114e-11 4.400491e-12 4.559114)
(-1.030638e-11 5.794584e-11 4.559114)
(1.632325e-12 5.332066e-11 4.559114)
(9.366507e-12 3.97249e-11 4.559114)
(6.2131e-11 1.189444e-11 4.559114)
(2.65807e-11 3.969479e-11 4.559114)
(1.744678e-12 4.149005e-11 4.559114)
(5.023529e-12 6.099585e-11 4.559114)
(-5.764601e-12 5.570639e-11 4.559114)
(-9.574209e-12 3.984477e-11 4.559114)
(6.579715e-11 3.218728e-11 4.559114)
(2.59089e-11 2.161485e-11 4.559114)
(4.02627e-12 1.337986e-11 4.559114)
(6.077353e-11 8.285341e-11 4.559114)
(3.167341e-11 7.332783e-11 4.559114)
(1.360039e-11 5.034954e-11 4.559114)
(-2.526165e-11 1.207833e-10 4.559114)
(7.512899e-12 7.312625e-11 4.559114)
(1.638563e-11 3.046862e-11 4.559114)
(7.104501e-11 -9.186844e-11 4.559114)
(6.890696e-11 -2.892934e-11 4.559114)
(4.651343e-11 1.121811e-12 4.559114)
(1.150828e-10 6.892493e-11 4.559114)
(5.950696e-11 3.443222e-11 4.559114)
(2.228515e-11 8.141931e-12 4.559114)
(3.044333e-11 -4.674605e-11 4.559114)
(4.262382e-11 -1.593367e-11 4.559114)
(3.818989e-11 -3.1284e-12 4.559114)
(5.570489e-11 5.631138e-11 4.559114)
(3.511082e-11 1.816238e-11 4.559114)
(2.180417e-11 -1.196151e-12 4.559114)
(-4.403793e-11 6.304743e-11 4.559114)
(9.399898e-12 4.386077e-11 4.559114)
(2.422819e-11 2.538076e-11 4.559114)
(-3.49848e-10 1.534288e-10 4.559114)
(-1.180724e-10 -4.080707e-11 4.559114)
(-4.77373e-11 -4.318641e-11 4.559114)
(-1.526037e-10 3.15864e-10 4.559114)
(-1.517856e-10 4.870489e-11 4.559114)
(-6.577017e-11 1.714991e-11 4.559114)
(1.972444e-10 -1.038379e-10 4.559114)
(-3.371307e-11 -1.889326e-10 4.559114)
(-1.803278e-11 -1.035228e-10 4.559114)
(-1.314068e-10 -1.24424e-10 4.559114)
(-1.284017e-10 -1.831091e-10 4.559114)
(-4.847161e-11 -9.873274e-11 4.559114)
(-2.991014e-10 2.095069e-11 4.559114)
(-2.041788e-10 -3.038294e-11 4.559114)
(-8.514281e-11 -6.813027e-12 4.559114)