/*--------------------------------*- C++ -*----------------------------------*\
| =========                 |                                                 |
| \\      /  F ield         | OpenFOAM: The Open Source CFD Toolbox           |
|  \\    /   O peration     | Version:  2212                                  |
|   \\  /    A nd           | Website:  www.openfoam.com                      |
|    \\/     M anipulation  |                                                 |
\*---------------------------------------------------------------------------*/
FoamFile
{
    version     2.0;
    format      ascii;
    arch        "LSB;label=32;scalar=64";
    class       surfaceScalarField;
    location    "14/fluidRegion";
    object      alphaPhi;
}
// * * * * * * * * * * * * * * * * * * * * * * * * * * * * * * * * * * * * * //

dimensions      [0 3 -1 0 0 0 0];

oriented        oriented;

internalField   nonuniform List<scalar> 
661
(
-0.000537357
9.03181e-17
-0.000537313
-3.28194e-16
-0.000537269
-9.57073e-16
-0.000537225
-3.07717e-16
-0.000537181
-6.53681e-16
-0.000537137
-2.18964e-16
-0.000537093
-1.02885e-15
-0.00053705
-3.92395e-16
-0.000537006
-6.45326e-16
-0.000536962
-7.32005e-16
-0.000536918
-3.61303e-16
-0.000536874
-3.77852e-16
-0.000536831
-8.64423e-17
-0.000536787
-4.58843e-16
-0.000536743
-1.03421e-15
-0.000536699
-2.31764e-16
-0.000536656
-7.20677e-18
-0.000536612
-2.86341e-16
-0.000536568
9.74183e-18
-0.000536524
-7.27904e-16
-0.00053648
-4.46495e-17
-0.000536437
-6.8526e-16
-0.000536393
-8.77675e-16
-0.00053635
2.778e-16
5.54597e-15
-0.000537357
-0.000537313
-0.000537269
-0.000537225
-0.000537181
-0.000537137
-0.000537093
-0.00053705
-0.000537006
-0.000536962
-0.000536918
-0.000536874
-0.000536831
-0.000536787
-0.000536743
-0.000536699
-0.000536656
-0.000536612
-0.000536568
-0.000536524
-0.00053648
-0.000536437
-0.000536393
-0.00053635
-0.0115114
5.82854e-07
-0.011424
5.86627e-07
-0.0112533
6.37917e-07
-0.011003
5.44687e-07
-0.0106777
4.57753e-07
-0.0102831
3.68379e-07
-0.00982553
2.7566e-07
-0.00931199
1.77596e-07
-0.00875033
7.40175e-08
-0.0081491
-3.58499e-08
-0.00751751
-1.46801e-07
-0.00686536
-2.56325e-07
-0.00620287
-3.57761e-07
-0.0055404
-4.45049e-07
-0.00488815
-5.12849e-07
-0.00425588
-5.59324e-07
-0.00365268
-5.85287e-07
-0.00308687
-5.946e-07
-0.00256602
-5.91336e-07
-0.00209724
-5.78601e-07
-0.00168707
-5.56386e-07
-0.00134162
-5.21029e-07
-0.0010662
-4.66668e-07
-0.000865034
-3.84604e-07
-2.82438e-07
-0.0115704
-8.32377e-08
-8.50272e-08
-0.0114841
-1.91391e-07
-1.95021e-07
-0.0113135
-1.65457e-07
-1.66502e-07
-0.0110627
-1.38176e-07
-1.37622e-07
-0.0107364
-1.12733e-07
-1.10596e-07
-0.0103402
-8.68654e-08
-8.44198e-08
-0.00988044
-5.99661e-08
-5.72417e-08
-0.00936422
-3.17565e-08
-2.93092e-08
-0.0087994
-1.46684e-09
9.25401e-10
-0.00819458
2.95235e-08
3.15574e-08
-0.00755903
6.27431e-08
6.47165e-08
-0.00690266
9.54876e-08
9.70948e-08
-0.00623576
1.2654e-07
1.28104e-07
-0.00556881
1.53757e-07
1.54942e-07
-0.00491213
1.75632e-07
1.76674e-07
-0.00427557
1.91127e-07
1.9175e-07
-0.00366834
2.00548e-07
2.00946e-07
-0.00309884
2.04718e-07
2.04682e-07
-0.00257472
2.04944e-07
2.04617e-07
-0.00210313
2.01771e-07
2.01036e-07
-0.00169066
1.9489e-07
1.93938e-07
-0.00134348
1.82048e-07
1.80839e-07
-0.00106691
1.59588e-07
1.58136e-07
-0.00086515
1.20749e-07
1.19053e-07
9.19108e-08
9.05363e-08
-0.0115016
4.69843e-07
-0.0114142
6.64831e-07
-0.0112435
6.15643e-07
-0.0109933
5.18615e-07
-0.0106682
4.24162e-07
-0.0102739
3.28497e-07
-0.00981669
2.29168e-07
-0.00930359
1.24791e-07
-0.00874245
1.4222e-08
-0.00814181
-1.0134e-07
-0.00751086
-2.18934e-07
-0.00685939
-3.34015e-07
-0.00619761
-4.40196e-07
-0.00553585
-5.30304e-07
-0.0048843
-5.99482e-07
-0.0042527
-6.45369e-07
-0.00365013
-6.69643e-07
-0.00308489
-6.75986e-07
-0.00256456
-6.69206e-07
-0.00209621
-6.51768e-07
-0.00168638
-6.23281e-07
-0.00134119
-5.78199e-07
-0.00106596
-5.07076e-07
-0.000864921
-3.9631e-07
-2.8961e-07
-0.0115573
5.46278e-10
-0.0114707
-3.81819e-10
-0.0113
9.0939e-11
-0.0110493
1.25619e-11
-0.0107232
4.32804e-11
-0.0103274
4.32975e-11
-0.00986805
2.44625e-11
-0.00935242
4.40763e-11
-0.0087883
6.65054e-11
-0.00818427
3.29601e-11
-0.00754961
6.19773e-11
-0.00689419
1.0419e-10
-0.00622829
1.41167e-10
-0.00556235
1.60258e-10
-0.00490667
1.51575e-10
-0.00427109
1.25131e-10
-0.00366477
1.12204e-10
-0.00309611
1.44973e-10
-0.00257274
1.43173e-10
-0.00210179
1.4356e-10
-0.00168985
1.46387e-10
-0.00134306
7.56008e-11
-0.00106677
-2.42705e-11
-0.000865134
-1.18599e-10
-8.97343e-11
-0.0115573
-4.68844e-07
-0.0114707
-6.65601e-07
-0.0113
-6.15337e-07
-0.0110493
-5.18484e-07
-0.0107232
-4.24019e-07
-0.0103274
-3.28405e-07
-0.00986807
-2.29106e-07
-0.00935243
-1.24699e-07
-0.00878831
-1.40947e-08
-0.00818428
1.01423e-07
-0.00754962
2.19084e-07
-0.0068942
3.34246e-07
-0.00622829
4.40491e-07
-0.00556235
5.30629e-07
-0.00490667
5.99787e-07
-0.00427109
6.45632e-07
-0.00366478
6.69892e-07
-0.00309612
6.76283e-07
-0.00257274
6.69492e-07
-0.00210179
6.52048e-07
-0.00168985
6.23549e-07
-0.00134307
5.78346e-07
-0.00106677
5.07037e-07
-0.000865135
3.96065e-07
2.89462e-07
-0.0115016
8.13623e-08
-0.0114142
1.90307e-07
-0.0112435
1.64712e-07
-0.0109933
1.38067e-07
-0.0106682
1.13448e-07
-0.0102739
8.74698e-08
-0.00981669
6.08959e-08
-0.0093036
3.23339e-08
-0.00874246
2.25505e-09
-0.00814181
-2.91708e-08
-0.00751086
-6.21801e-08
-0.0068594
-9.52234e-08
-0.00619762
-1.26086e-07
-0.00553585
-1.53589e-07
-0.0048843
-1.75356e-07
-0.0042527
-1.91157e-07
-0.00365013
-2.00524e-07
-0.00308489
-2.04944e-07
-0.00256456
-2.05169e-07
-0.00209621
-2.02243e-07
-0.00168638
-1.95363e-07
-0.00134119
-1.82666e-07
-0.00106596
-1.60187e-07
-0.000864921
-1.21355e-07
-9.24894e-08
-0.0115704
-5.85144e-07
-8.52456e-08
-0.0114841
-5.89011e-07
-1.93938e-07
-0.0113135
-6.38091e-07
-1.66745e-07
-0.0110627
-5.43778e-07
-1.37999e-07
-0.0107364
-4.55551e-07
-1.1132e-07
-0.0103402
-3.66455e-07
-8.50469e-08
-0.00988044
-2.73309e-07
-5.79593e-08
-0.00936422
-1.75864e-07
-2.98972e-08
-0.0087994
-7.2043e-08
2.65561e-10
-0.00819458
3.71221e-08
3.10836e-08
-0.00755903
1.48319e-07
6.41626e-08
-0.00690266
2.57294e-07
9.66475e-08
-0.00623576
3.58934e-07
1.27585e-07
-0.00556881
4.45674e-07
1.54553e-07
-0.00491213
5.13559e-07
1.76291e-07
-0.00427557
5.5948e-07
1.91533e-07
-0.00366834
5.85472e-07
2.00752e-07
-0.00309884
5.94336e-07
2.04584e-07
-0.00257472
5.91053e-07
2.04544e-07
-0.00210313
5.77933e-07
2.01065e-07
-0.00169066
5.55715e-07
1.93981e-07
-0.00134348
5.20116e-07
1.80997e-07
-0.00106691
4.65759e-07
1.58376e-07
-0.00086515
3.83569e-07
1.19405e-07
2.8155e-07
9.08152e-08
-0.0115114
-0.011424
-0.0112533
-0.011003
-0.0106777
-0.0102831
-0.00982553
-0.00931199
-0.00875033
-0.0081491
-0.00751751
-0.00686536
-0.00620287
-0.0055404
-0.00488815
-0.00425588
-0.00365268
-0.00308687
-0.00256602
-0.00209724
-0.00168707
-0.00134162
-0.0010662
-0.000865034
-0.0115573
-4.70093e-07
7.29198e-10
-0.0114707
-6.64885e-07
-6.21982e-10
-0.0113
-6.15402e-07
1.13555e-10
-0.0110493
-5.18334e-07
-8.92809e-11
-0.0107232
-4.23703e-07
-8.90826e-12
-0.0103274
-3.28219e-07
-1.43195e-10
-0.00986805
-2.28801e-07
-1.93616e-11
-0.00935242
-1.24617e-07
-8.96835e-11
-0.0087883
-1.39397e-08
1.07426e-11
-0.00818427
1.01346e-07
3.23351e-11
-0.00754961
2.1907e-07
1.38948e-10
-0.00689419
3.34035e-07
5.7109e-11
-0.00622829
4.4031e-07
1.70805e-10
-0.00556235
5.30279e-07
1.10873e-10
-0.00490667
5.99477e-07
2.39636e-10
-0.00427109
6.45186e-07
2.18505e-10
-0.00366477
6.69483e-07
3.18684e-10
-0.00309611
6.75753e-07
2.48777e-10
-0.00257274
6.6901e-07
3.10003e-10
-0.00210179
6.51509e-07
2.73225e-10
-0.00168985
6.23065e-07
2.83864e-10
-0.00134306
5.77911e-07
2.52496e-10
-0.00106677
5.06771e-07
2.44957e-10
-0.000865134
3.96034e-07
1.34706e-10
2.89441e-07
2.77636e-11
-0.0115016
-0.0114142
-0.0112435
-0.0109933
-0.0106682
-0.0102739
-0.00981669
-0.00930359
-0.00874245
-0.00814181
-0.00751086
-0.00685939
-0.00619761
-0.00553585
-0.0048843
-0.0042527
-0.00365013
-0.00308489
-0.00256456
-0.00209621
-0.00168638
-0.00134119
-0.00106596
-0.000864921
-0.0115016
4.66014e-07
-0.0114142
6.62414e-07
-0.0112435
6.14558e-07
-0.0109933
5.19063e-07
-0.0106682
4.26374e-07
-0.0102739
3.30487e-07
-0.00981669
2.31804e-07
-0.0093036
1.26629e-07
-0.00874246
1.64053e-08
-0.00814181
-9.99951e-08
-0.00751086
-2.17289e-07
-0.0068594
-3.33161e-07
-0.00619762
-4.39048e-07
-0.00553585
-5.29901e-07
-0.0048843
-5.98882e-07
-0.0042527
-6.45485e-07
-0.00365013
-6.69667e-07
-0.00308489
-6.76678e-07
-0.00256456
-6.69904e-07
-0.00209621
-6.53027e-07
-0.00168638
-6.24529e-07
-0.00134119
-5.79724e-07
-0.00106596
-5.08478e-07
-0.000864921
-3.97705e-07
-2.90824e-07
-0.0115573
-0.0114707
-0.0113
-0.0110493
-0.0107232
-0.0103274
-0.00986807
-0.00935243
-0.00878831
-0.00818428
-0.00754962
-0.0068942
-0.00622829
-0.00556235
-0.00490667
-0.00427109
-0.00366478
-0.00309612
-0.00257274
-0.00210179
-0.00168985
-0.00134307
-0.00106677
-0.000865135
)
;

boundaryField
{
    outletCentralUnloaded
    {
        type            calculated;
        value           nonuniform List<scalar> 2(0.000537401 0.000537401);
    }
    inletCentralUnloaded
    {
        type            calculated;
        value           uniform -0.000540134;
    }
    outletFuelElement
    {
        type            calculated;
        value           nonuniform List<scalar> 
12
(
0.0115787
0.0116378
0.0115691
0.0116246
0.0116246
0.0115691
0.0116378
0.0115787
0.0116246
0.0115691
0.0115691
0.0116246
)
;
    }
    inletFuelElement
    {
        type            calculated;
        value           nonuniform List<scalar> 
12
(
-0.000722059
-0.00072206
-0.000722059
-0.000722059
-0.00072206
-0.000722059
-0.00072206
-0.000722059
-0.000722059
-0.000722059
-0.000722059
-0.00072206
)
;
    }
    defaultFaces
    {
        type            calculated;
        value           nonuniform List<scalar> 
450
(
1.65447e-24
-1.26994e-23
0
1.34122e-23
-1.13644e-23
0
1.036e-23
8.33488e-24
0
-3.17819e-23
-2.2902e-23
0
-8.85894e-24
-3.59474e-23
0
-2.16944e-23
2.73687e-26
0
-1.81871e-23
-4.03483e-24
0
-1.05945e-23
-4.69308e-24
0
-2.69397e-24
-7.02893e-25
0
2.48961e-24
1.4206e-24
0
9.75513e-24
6.34297e-25
0
1.28845e-23
5.6296e-24
0
2.18168e-23
1.03027e-23
0
3.82912e-23
1.20321e-23
0
3.62313e-23
1.22022e-23
0
3.43193e-23
1.29908e-23
0
3.73372e-23
-1.34722e-23
0
4.689e-23
2.56932e-23
0
2.7287e-23
-4.14265e-23
0
-1.81796e-23
-3.23145e-23
0
-1.85732e-23
-1.06451e-23
0
2.47618e-23
-1.31683e-23
0
-2.21512e-23
-2.95988e-24
0
-1.69791e-23
-1.46674e-24
0
-8.56047e-24
-7.67148e-24
0
1.60454e-23
0
1.60454e-23
0
1.60454e-23
0
1.2034e-23
0
-1.2034e-23
0
1.2034e-23
0
8.0227e-24
0
2.00567e-24
0
-2.50709e-25
0
-3.00851e-24
0
-4.01135e-24
0
-1.2034e-23
0
-2.00567e-23
0
-8.0227e-24
0
-2.40681e-23
0
-2.40681e-23
0
3.20908e-23
0
-1.60454e-23
0
8.0227e-24
0
-2.40681e-23
0
-4.01135e-23
0
2.40681e-23
0
0
0
-1.60454e-23
0
-1.60454e-23
0
0
-2.40681e-23
8.0227e-24
-1.60454e-23
8.0227e-24
-4.01135e-24
-4.01135e-24
0
2.50709e-25
4.01135e-24
0
8.0227e-24
8.0227e-24
0
0
1.60454e-23
-1.60454e-23
1.60454e-23
-3.20908e-23
0
0
-1.60454e-23
0
-8.0227e-24
0
0
0
0
0
0
0
0
0
0
0
0
0
0
0
0
0
0
0
0
0
0
0
0
0
0
-1.2034e-23
1.60454e-23
0
1.60454e-23
1.60454e-23
4.01135e-23
-1.2034e-23
-1.2034e-23
1.60454e-23
-8.0227e-24
-1.2034e-23
-8.0227e-24
-8.0227e-24
-6.01702e-24
-2.00567e-24
-3.00851e-24
6.26773e-25
-5.01419e-25
3.00851e-24
2.00567e-24
6.01702e-24
6.01702e-24
1.2034e-23
8.0227e-24
1.2034e-23
1.2034e-23
1.60454e-23
8.0227e-24
1.60454e-23
1.2034e-23
1.60454e-23
1.2034e-23
-1.60454e-23
3.20908e-23
2.40681e-23
2.80794e-23
-4.01135e-23
2.40681e-23
-4.01135e-23
-2.40681e-23
-8.0227e-24
-2.00567e-23
-3.20908e-23
2.40681e-23
-8.0227e-24
-1.2034e-23
4.01135e-24
-8.0227e-24
-2.00567e-23
-1.2034e-23
8.73392e-24
0
8.0227e-24
2.91076e-24
0
0
1.11469e-23
0
-4.81362e-23
-4.56647e-23
0
8.0227e-24
9.81594e-24
0
8.0227e-24
-3.01169e-23
0
8.0227e-24
-2.14802e-23
0
4.01135e-24
-1.35917e-23
0
4.01135e-24
-3.22107e-24
0
-2.00567e-24
3.12583e-24
-0
0
1.32006e-23
-0
-2.00567e-24
2.11858e-23
-0
-8.0227e-24
2.50991e-23
-0
0
4.32872e-23
-0
-1.60454e-23
4.2565e-23
-0
-8.0227e-24
4.97594e-23
-0
-8.0227e-24
3.79349e-23
-0
-8.0227e-24
5.01681e-23
-0
0
2.95413e-23
-0
-1.60454e-23
-2.03078e-23
-0
8.0227e-24
-9.18013e-24
-0
8.0227e-24
2.52067e-23
-0
1.60454e-23
-2.36079e-23
-0
8.0227e-24
-1.35814e-23
-0
0
-9.79383e-24
-0
4.01135e-24
-8.0227e-24
-8.0227e-24
0
-8.0227e-24
8.0227e-24
-4.01135e-24
0
2.00567e-24
0
6.01702e-24
4.01135e-24
8.0227e-24
8.0227e-24
8.0227e-24
8.0227e-24
1.60454e-23
-2.40681e-23
1.60454e-23
-1.60454e-23
8.0227e-24
8.0227e-24
-1.60454e-23
-2.40681e-23
0
0
2.00567e-23
0
3.20908e-23
0
0
0
1.2034e-23
0
-4.01135e-24
0
8.0227e-24
0
1.00284e-23
0
6.01702e-24
0
0
0
-5.01419e-24
-0
-4.01135e-24
-0
-1.60454e-23
-0
-1.2034e-23
-0
-1.60454e-23
-0
-1.60454e-23
-0
-2.40681e-23
-0
3.20908e-23
-0
-3.20908e-23
-0
2.40681e-23
-0
-3.20908e-23
-0
-4.01135e-23
-0
2.40681e-23
-0
8.0227e-24
-0
-1.60454e-23
-0
-1.2034e-23
-0
-8.0227e-24
8.0227e-24
-8.0227e-24
2.40681e-23
-1.60454e-23
2.40681e-23
-1.2034e-23
-3.61021e-23
-4.01135e-24
1.2034e-23
-4.01135e-24
-2.40681e-23
-6.01702e-24
-2.00567e-23
-3.00851e-24
-8.0227e-24
2.50709e-25
5.01419e-25
2.00567e-24
8.0227e-24
2.00567e-24
1.60454e-23
4.01135e-24
2.80794e-23
1.2034e-23
4.01135e-23
8.0227e-24
4.41248e-23
8.0227e-24
4.81362e-23
8.0227e-24
6.01702e-23
0
3.20908e-23
0
4.81362e-23
0
3.61021e-23
0
-1.60454e-23
0
-1.60454e-23
1.60454e-23
4.01135e-23
8.0227e-24
-2.40681e-23
-4.01135e-24
-1.60454e-23
0
-8.0227e-24
-0
-0
-0
-0
-0
-0
-0
-0
-0
0
0
0
0
0
0
0
0
0
0
0
0
0
0
0
0
)
;
    }
    baffle_master
    {
        type            calculated;
        value           nonuniform List<scalar> 
150
(
-4.97422e-34
0
0
-7.34257e-34
0
0
2.4476e-33
0
0
-3.51116e-33
0
0
-3.84766e-32
0
-1.11784e-32
3.76563e-34
0
0
-7.20492e-33
0
1.11784e-32
-5.93153e-35
0
6.9865e-34
6.35977e-34
0
0
-3.37385e-34
0
0
4.80292e-33
0
0
3.79066e-33
0
5.5892e-33
-7.71824e-36
0
-1.3973e-33
1.58252e-33
0
0
-3.22237e-34
0
-2.7946e-33
-3.88879e-33
0
0
4.51099e-32
0
2.23568e-32
-3.43846e-34
0
5.5892e-33
6.16627e-32
0
2.23568e-32
8.66192e-34
0
1.11784e-32
3.10252e-33
0
1.11784e-32
-4.03095e-32
0
-2.23568e-32
6.8654e-35
0
0
-2.13557e-33
0
-2.23568e-32
9.69582e-33
0
0
0
-1.16874e-32
0
1.11784e-32
-2.34839e-32
0
1.11784e-32
-2.22081e-32
0
5.5892e-33
-1.38447e-32
0
0
2.34464e-32
0
5.5892e-33
-1.05309e-32
0
-1.11784e-32
-3.2084e-32
0
-1.3973e-33
9.23801e-34
-0
-5.5892e-33
-7.71108e-33
0
-1.11784e-32
-3.06635e-32
0
1.11784e-32
-3.21058e-32
0
5.5892e-33
-1.53867e-32
0
1.3973e-33
-3.50349e-33
0
0
-1.75775e-32
0
2.7946e-33
-8.00037e-33
0
-5.5892e-33
9.12066e-33
-0
-1.67676e-32
-1.49159e-32
0
0
-1.2077e-32
0
-2.23568e-32
-2.14371e-33
0
1.11784e-32
2.4115e-32
0
1.11784e-32
1.73619e-32
0
-2.23568e-32
4.28039e-32
0
-1.11784e-32
-2.09779e-32
0
0
-7.27033e-33
-0
0
-9.61238e-32
-0
)
;
    }
    baffle_slave
    {
        type            calculated;
        value           nonuniform List<scalar> 
150
(
-2.50709e-25
-0
0
3.25922e-24
-0
-8.0227e-24
1.22221e-24
-0
8.0227e-24
1.56693e-24
-0
0
-1.88032e-23
-0
-1.60454e-23
2.00567e-24
-0
4.01135e-24
-7.52128e-25
-0
0
1.50426e-24
-0
2.00567e-24
-1.00284e-24
-0
0
-1.25355e-25
0
0
-1.25355e-25
0
-4.01135e-24
1.00284e-24
0
0
-3.38458e-24
0
0
-4.38741e-25
0
8.0227e-24
1.19087e-24
0
-8.0227e-24
-3.43158e-24
0
0
-3.54597e-23
0
-3.20908e-23
7.52128e-25
0
0
-2.61991e-23
0
-1.60454e-23
1.25355e-25
0
-1.60454e-23
2.50709e-25
0
0
2.16864e-23
0
1.60454e-23
1.25355e-25
0
0
-5.01419e-25
0
-8.0227e-24
2.7578e-24
0
-4.01135e-24
-4.1259e-24
1.72989e-23
0
-6.98487e-24
1.35383e-23
0
8.22988e-25
1.34129e-23
0
-8.05045e-24
1.89286e-23
0
-3.53078e-24
-2.18117e-23
0
-2.86578e-24
1.40397e-23
0
-2.69753e-24
1.07805e-23
0
5.0994e-25
4.01135e-24
0
2.56717e-25
2.50709e-24
0
-6.63956e-26
-2.50709e-25
0
2.49897e-24
-3.50993e-24
0
5.72912e-24
-5.64096e-24
0
2.76968e-24
-8.39876e-24
0
-8.14188e-24
-1.24101e-23
0
-4.64334e-24
-1.15013e-23
0
3.17305e-25
-1.28077e-23
0
-2.02732e-23
-1.35696e-23
0
3.15006e-24
-1.7863e-23
0
-1.24397e-23
-6.14238e-24
0
-4.32781e-24
6.39309e-24
0
-3.63885e-24
7.89734e-24
0
-3.07074e-23
2.18117e-23
0
-8.26794e-24
-9.77766e-24
0
-5.94669e-24
5.89167e-24
0
8.9041e-25
5.51561e-24
0
)
;
    }
}


// ************************************************************************* //
