/*--------------------------------*- C++ -*----------------------------------*\
| =========                 |                                                 |
| \\      /  F ield         | OpenFOAM: The Open Source CFD Toolbox           |
|  \\    /   O peration     | Version:  2212                                  |
|   \\  /    A nd           | Website:  www.openfoam.com                      |
|    \\/     M anipulation  |                                                 |
\*---------------------------------------------------------------------------*/
FoamFile
{
    version     2.0;
    format      ascii;
    arch        "LSB;label=32;scalar=64";
    class       volScalarField;
    location    "14/fluidRegion";
    object      hdeltaT;
}
// * * * * * * * * * * * * * * * * * * * * * * * * * * * * * * * * * * * * * //

dimensions      [1 0 -3 0 0 0 0];

internalField   nonuniform List<scalar> 
350
(
0
0
0
0
0
0
0
0
0
0
0
0
0
0
0
0
0
0
0
0
0
0
0
0
0
0
0
0
0
0
0
0
0
0
0
0
0
0
0
0
0
0
0
0
0
0
0
0
0
0
0
250718
753138
1.24183e+06
1.70877e+06
2.14635e+06
2.54741e+06
2.90545e+06
3.21462e+06
3.46989e+06
3.66707e+06
3.80289e+06
3.87506e+06
3.88229e+06
3.82434e+06
3.7021e+06
3.51764e+06
3.27426e+06
2.97664e+06
2.63104e+06
2.2454e+06
1.82964e+06
1.39505e+06
952645
509238
0
246565
754644
1.24887e+06
1.72116e+06
2.16377e+06
2.5695e+06
2.93175e+06
3.24462e+06
3.50301e+06
3.7027e+06
3.84036e+06
3.91368e+06
3.92133e+06
3.86308e+06
3.73981e+06
3.55357e+06
3.3077e+06
3.00691e+06
2.65752e+06
2.26757e+06
1.84709e+06
1.40758e+06
960170
511752
0
251433
752943
1.24074e+06
1.70683e+06
2.14359e+06
2.54391e+06
2.90126e+06
3.20984e+06
3.4646e+06
3.66138e+06
3.79691e+06
3.86889e+06
3.87604e+06
3.81814e+06
3.69607e+06
3.51189e+06
3.26891e+06
2.97179e+06
2.62679e+06
2.24184e+06
1.82683e+06
1.39303e+06
951428
508833
0
247456
754239
1.2472e+06
1.71826e+06
2.15972e+06
2.56438e+06
2.92567e+06
3.23769e+06
3.49537e+06
3.69449e+06
3.83173e+06
3.90478e+06
3.91234e+06
3.85416e+06
3.73113e+06
3.5453e+06
3.30001e+06
2.99995e+06
2.65143e+06
2.26247e+06
1.84308e+06
1.4047e+06
958440
511174
0
247456
754239
1.2472e+06
1.71826e+06
2.15972e+06
2.56438e+06
2.92567e+06
3.23769e+06
3.49537e+06
3.69449e+06
3.83173e+06
3.90478e+06
3.91234e+06
3.85416e+06
3.73113e+06
3.5453e+06
3.30001e+06
2.99995e+06
2.65143e+06
2.26247e+06
1.84308e+06
1.4047e+06
958440
511174
0
251432
752943
1.24074e+06
1.70683e+06
2.14359e+06
2.54391e+06
2.90126e+06
3.20983e+06
3.4646e+06
3.66138e+06
3.7969e+06
3.86889e+06
3.87604e+06
3.81814e+06
3.69607e+06
3.51189e+06
3.26891e+06
2.97179e+06
2.62679e+06
2.24184e+06
1.82683e+06
1.39303e+06
951428
508833
0
246565
754644
1.24888e+06
1.72116e+06
2.16377e+06
2.5695e+06
2.93175e+06
3.24462e+06
3.50301e+06
3.7027e+06
3.84036e+06
3.91368e+06
3.92133e+06
3.86308e+06
3.73981e+06
3.55357e+06
3.3077e+06
3.00691e+06
2.65752e+06
2.26757e+06
1.8471e+06
1.40758e+06
960170
511752
0
250718
753138
1.24183e+06
1.70877e+06
2.14635e+06
2.54741e+06
2.90545e+06
3.21462e+06
3.46989e+06
3.66707e+06
3.80289e+06
3.87506e+06
3.88228e+06
3.82434e+06
3.7021e+06
3.51764e+06
3.27426e+06
2.97664e+06
2.63104e+06
2.2454e+06
1.82964e+06
1.39505e+06
952645
509238
0
247457
754239
1.2472e+06
1.71826e+06
2.15972e+06
2.56438e+06
2.92567e+06
3.23769e+06
3.49537e+06
3.69449e+06
3.83173e+06
3.90478e+06
3.91234e+06
3.85416e+06
3.73113e+06
3.5453e+06
3.30001e+06
2.99995e+06
2.65143e+06
2.26247e+06
1.84308e+06
1.4047e+06
958441
511174
0
251433
752943
1.24074e+06
1.70683e+06
2.14359e+06
2.54391e+06
2.90126e+06
3.20984e+06
3.4646e+06
3.66138e+06
3.7969e+06
3.86889e+06
3.87604e+06
3.81814e+06
3.69607e+06
3.51189e+06
3.26891e+06
2.97179e+06
2.62679e+06
2.24184e+06
1.82683e+06
1.39303e+06
951428
508833
0
251432
752943
1.24074e+06
1.70683e+06
2.14359e+06
2.54391e+06
2.90126e+06
3.20983e+06
3.4646e+06
3.66138e+06
3.7969e+06
3.86889e+06
3.87604e+06
3.81814e+06
3.69607e+06
3.51189e+06
3.26891e+06
2.97179e+06
2.62679e+06
2.24184e+06
1.82683e+06
1.39303e+06
951428
508833
0
247456
754239
1.2472e+06
1.71826e+06
2.15972e+06
2.56438e+06
2.92567e+06
3.23769e+06
3.49537e+06
3.69449e+06
3.83173e+06
3.90478e+06
3.91234e+06
3.85416e+06
3.73113e+06
3.5453e+06
3.30001e+06
2.99995e+06
2.65143e+06
2.26247e+06
1.84308e+06
1.4047e+06
958440
511174
)
;

boundaryField
{
    outletCentralUnloaded
    {
        type            calculated;
        value           uniform 0;
    }
    inletCentralUnloaded
    {
        type            calculated;
        value           uniform 0;
    }
    outletFuelElement
    {
        type            calculated;
        value           uniform 0;
    }
    inletFuelElement
    {
        type            calculated;
        value           nonuniform List<scalar> 
12
(
2.80688e+06
2.80635e+06
2.80683e+06
2.80649e+06
2.80649e+06
2.80683e+06
2.80635e+06
2.80688e+06
2.80649e+06
2.80683e+06
2.80683e+06
2.80649e+06
)
;
    }
    defaultFaces
    {
        type            calculated;
        value           nonuniform List<scalar> 
450
(
0
0
0
0
0
0
0
0
0
0
0
0
0
0
0
0
0
0
0
0
0
0
0
0
0
0
0
0
0
0
0
0
0
0
0
0
136277
136277
136277
986637
986637
986637
1.72788e+06
1.72788e+06
1.72788e+06
2.34134e+06
2.34134e+06
2.34134e+06
2.8149e+06
2.8149e+06
2.8149e+06
3.14383e+06
3.14383e+06
3.14383e+06
3.33148e+06
3.33148e+06
3.33148e+06
3.39005e+06
3.39005e+06
3.39005e+06
3.34119e+06
3.34119e+06
3.34119e+06
3.21631e+06
3.21631e+06
3.21631e+06
3.05532e+06
3.05532e+06
3.05532e+06
2.90237e+06
2.90237e+06
2.90237e+06
2.76873e+06
2.76873e+06
2.76873e+06
0
0
0
0
0
0
0
0
0
0
0
0
0
0
0
0
0
0
0
0
0
0
0
0
155478
155478
1.00227e+06
1.00227e+06
1.74022e+06
1.74022e+06
2.35075e+06
2.35075e+06
2.8218e+06
2.8218e+06
3.14865e+06
3.14865e+06
3.33466e+06
3.33466e+06
3.39203e+06
3.39203e+06
3.34234e+06
3.34234e+06
3.21692e+06
3.21692e+06
3.0556e+06
3.0556e+06
2.90244e+06
2.90244e+06
2.76872e+06
2.76872e+06
0
0
0
0
0
0
0
0
0
0
0
0
41924.9
909490
1.66664e+06
2.29431e+06
2.78013e+06
3.11919e+06
3.31478e+06
3.3792e+06
3.33432e+06
3.21194e+06
3.05251e+06
2.90071e+06
2.7682e+06
0
0
0
0
0
0
0
0
0
0
0
0
41925
909490
1.66664e+06
2.29431e+06
2.78013e+06
3.11919e+06
3.31478e+06
3.3792e+06
3.33432e+06
3.21194e+06
3.05251e+06
2.90071e+06
2.7682e+06
0
0
0
0
0
0
0
0
0
0
0
0
0
0
0
0
0
0
0
0
0
0
0
0
155473
155473
1.00226e+06
1.00226e+06
1.74022e+06
1.74022e+06
2.35075e+06
2.35075e+06
2.82179e+06
2.82179e+06
3.14865e+06
3.14865e+06
3.33466e+06
3.33466e+06
3.39203e+06
3.39203e+06
3.34234e+06
3.34234e+06
3.21692e+06
3.21692e+06
3.0556e+06
3.0556e+06
2.90243e+06
2.90243e+06
2.76872e+06
2.76872e+06
0
0
0
0
0
0
0
0
0
0
0
0
0
0
0
0
0
0
0
0
0
0
0
0
0
0
0
0
0
0
0
0
0
0
0
0
136278
136278
136278
986637
986637
986637
1.72788e+06
1.72788e+06
1.72788e+06
2.34134e+06
2.34134e+06
2.34134e+06
2.8149e+06
2.8149e+06
2.8149e+06
3.14383e+06
3.14383e+06
3.14383e+06
3.33148e+06
3.33148e+06
3.33148e+06
3.39005e+06
3.39005e+06
3.39005e+06
3.34119e+06
3.34119e+06
3.34119e+06
3.21631e+06
3.21631e+06
3.21631e+06
3.05532e+06
3.05532e+06
3.05532e+06
2.90237e+06
2.90237e+06
2.90237e+06
2.76873e+06
2.76873e+06
2.76873e+06
0
0
0
0
0
0
0
0
0
0
0
0
41925.4
909490
1.66664e+06
2.29431e+06
2.78014e+06
3.11919e+06
3.31478e+06
3.3792e+06
3.33432e+06
3.21194e+06
3.05251e+06
2.90071e+06
2.7682e+06
0
0
0
0
0
0
0
0
0
0
0
0
0
0
0
0
0
0
0
0
0
0
0
0
155479
155479
1.00227e+06
1.00227e+06
1.74022e+06
1.74022e+06
2.35075e+06
2.35075e+06
2.8218e+06
2.8218e+06
3.14865e+06
3.14865e+06
3.33466e+06
3.33466e+06
3.39203e+06
3.39203e+06
3.34234e+06
3.34234e+06
3.21692e+06
3.21692e+06
3.0556e+06
3.0556e+06
2.90244e+06
2.90244e+06
2.76872e+06
2.76872e+06
0
0
0
0
0
0
0
0
0
0
0
0
0
0
0
0
0
0
0
0
0
0
0
0
155473
155473
1.00226e+06
1.00226e+06
1.74022e+06
1.74022e+06
2.35075e+06
2.35075e+06
2.82179e+06
2.82179e+06
3.14865e+06
3.14865e+06
3.33466e+06
3.33466e+06
3.39203e+06
3.39203e+06
3.34234e+06
3.34234e+06
3.21692e+06
3.21692e+06
3.0556e+06
3.0556e+06
2.90243e+06
2.90243e+06
2.76872e+06
2.76872e+06
0
0
0
0
0
0
0
0
0
0
0
0
41925.5
909490
1.66664e+06
2.29431e+06
2.78014e+06
3.11919e+06
3.31478e+06
3.3792e+06
3.33432e+06
3.21194e+06
3.05251e+06
2.90071e+06
2.7682e+06
)
;
    }
    baffle_master
    {
        type            calculated;
        value           uniform 0;
    }
    baffle_slave
    {
        type            calculated;
        value           nonuniform List<scalar> 
150
(
0
0
0
0
0
0
0
0
0
0
0
0
0
0
0
0
0
0
0
0
0
0
0
0
0
0
0
0
0
0
0
0
0
0
0
0
13789.6
41924.9
41925.5
886444
909490
909490
1.64831e+06
1.66664e+06
1.66664e+06
2.28021e+06
2.29431e+06
2.29431e+06
2.76969e+06
2.78013e+06
2.78014e+06
3.11177e+06
3.11919e+06
3.11919e+06
3.30973e+06
3.31478e+06
3.31478e+06
3.3759e+06
3.3792e+06
3.3792e+06
3.33222e+06
3.33432e+06
3.33432e+06
3.21059e+06
3.21194e+06
3.21194e+06
3.05162e+06
3.05251e+06
3.05251e+06
2.90017e+06
2.90071e+06
2.90071e+06
2.76802e+06
2.7682e+06
2.7682e+06
0
0
0
0
0
0
0
0
0
0
0
0
0
0
0
0
0
0
0
0
0
0
0
0
0
0
0
0
0
0
0
0
0
0
0
0
41925
13789.9
41925.4
909490
886444
909490
1.66664e+06
1.64831e+06
1.66664e+06
2.29431e+06
2.28021e+06
2.29431e+06
2.78013e+06
2.76969e+06
2.78014e+06
3.11919e+06
3.11177e+06
3.11919e+06
3.31478e+06
3.30973e+06
3.31478e+06
3.3792e+06
3.3759e+06
3.3792e+06
3.33432e+06
3.33222e+06
3.33432e+06
3.21194e+06
3.21059e+06
3.21194e+06
3.05251e+06
3.05162e+06
3.05251e+06
2.90071e+06
2.90017e+06
2.90071e+06
2.7682e+06
2.76802e+06
2.7682e+06
)
;
    }
}


// ************************************************************************* //
