/*--------------------------------*- C++ -*----------------------------------*\
| =========                 |                                                 |
| \\      /  F ield         | OpenFOAM: The Open Source CFD Toolbox           |
|  \\    /   O peration     | Version:  2212                                  |
|   \\  /    A nd           | Website:  www.openfoam.com                      |
|    \\/     M anipulation  |                                                 |
\*---------------------------------------------------------------------------*/
FoamFile
{
    version     2.0;
    format      ascii;
    arch        "LSB;label=32;scalar=64";
    class       volScalarField;
    location    "14/fluidRegion";
    object      heatFlux.structure;
}
// * * * * * * * * * * * * * * * * * * * * * * * * * * * * * * * * * * * * * //

dimensions      [1 0 -3 0 0 0 0];

internalField   nonuniform List<scalar> 
350
(
-257691
-257694
-257697
-257700
-257703
-257706
-257709
-257712
-257715
-257718
-257721
-257724
-257727
-257730
-257733
-257736
-257739
-257742
-257745
-257748
-257751
-257754
-257757
-257760
-258497
-257691
-257694
-257697
-257700
-257703
-257706
-257709
-257712
-257715
-257718
-257721
-257724
-257727
-257730
-257733
-257736
-257739
-257742
-257745
-257748
-257751
-257754
-257757
-257760
-258497
-256648
251232
753645
1.24232e+06
1.70925e+06
2.1468e+06
2.54784e+06
2.90584e+06
3.21498e+06
3.47021e+06
3.66735e+06
3.80314e+06
3.87527e+06
3.88246e+06
3.82447e+06
3.70221e+06
3.51772e+06
3.27432e+06
2.97668e+06
2.63106e+06
2.24542e+06
1.82965e+06
1.39505e+06
952646
509238
-266473
247090
755163
1.24938e+06
1.72164e+06
2.16423e+06
2.56994e+06
2.93215e+06
3.24499e+06
3.50334e+06
3.70299e+06
3.84061e+06
3.91389e+06
3.9215e+06
3.86322e+06
3.73992e+06
3.55365e+06
3.30776e+06
3.00695e+06
2.65755e+06
2.26758e+06
1.8471e+06
1.40758e+06
960172
511752
-255022
251945
753448
1.24123e+06
1.7073e+06
2.14404e+06
2.54433e+06
2.90165e+06
3.21019e+06
3.46492e+06
3.66166e+06
3.79715e+06
3.86909e+06
3.87621e+06
3.81827e+06
3.69617e+06
3.51197e+06
3.26896e+06
2.97183e+06
2.62682e+06
2.24186e+06
1.82684e+06
1.39303e+06
951430
508833
-264282
247979
754755
1.2477e+06
1.71875e+06
2.16018e+06
2.56482e+06
2.92607e+06
3.23806e+06
3.4957e+06
3.69477e+06
3.83198e+06
3.90499e+06
3.91251e+06
3.8543e+06
3.73124e+06
3.54539e+06
3.30007e+06
2.99999e+06
2.65145e+06
2.26248e+06
1.84309e+06
1.4047e+06
958442
511174
-264282
247979
754756
1.2477e+06
1.71875e+06
2.16018e+06
2.56482e+06
2.92607e+06
3.23806e+06
3.4957e+06
3.69477e+06
3.83198e+06
3.90499e+06
3.91251e+06
3.8543e+06
3.73124e+06
3.54539e+06
3.30007e+06
2.99999e+06
2.65145e+06
2.26248e+06
1.84309e+06
1.4047e+06
958442
511174
-255023
251944
753448
1.24123e+06
1.7073e+06
2.14404e+06
2.54433e+06
2.90165e+06
3.21019e+06
3.46492e+06
3.66166e+06
3.79715e+06
3.86909e+06
3.87621e+06
3.81827e+06
3.69617e+06
3.51197e+06
3.26896e+06
2.97183e+06
2.62682e+06
2.24186e+06
1.82684e+06
1.39303e+06
951429
508833
-266473
247090
755163
1.24938e+06
1.72164e+06
2.16423e+06
2.56994e+06
2.93215e+06
3.24499e+06
3.50334e+06
3.70299e+06
3.84061e+06
3.91389e+06
3.9215e+06
3.86322e+06
3.73992e+06
3.55365e+06
3.30776e+06
3.00695e+06
2.65755e+06
2.26758e+06
1.8471e+06
1.40758e+06
960172
511752
-256648
251231
753646
1.24232e+06
1.70925e+06
2.1468e+06
2.54784e+06
2.90584e+06
3.21498e+06
3.47021e+06
3.66735e+06
3.80314e+06
3.87527e+06
3.88245e+06
3.82447e+06
3.70221e+06
3.51772e+06
3.27432e+06
2.97668e+06
2.63106e+06
2.24542e+06
1.82965e+06
1.39505e+06
952646
509238
-264282
247979
754756
1.2477e+06
1.71875e+06
2.16018e+06
2.56482e+06
2.92607e+06
3.23806e+06
3.4957e+06
3.69477e+06
3.83198e+06
3.90499e+06
3.91251e+06
3.8543e+06
3.73124e+06
3.54539e+06
3.30007e+06
2.99999e+06
2.65145e+06
2.26248e+06
1.84309e+06
1.4047e+06
958442
511174
-255022
251945
753449
1.24123e+06
1.7073e+06
2.14404e+06
2.54433e+06
2.90165e+06
3.21019e+06
3.46492e+06
3.66166e+06
3.79715e+06
3.86909e+06
3.87621e+06
3.81827e+06
3.69617e+06
3.51197e+06
3.26896e+06
2.97183e+06
2.62682e+06
2.24186e+06
1.82684e+06
1.39303e+06
951430
508833
-255022
251944
753448
1.24123e+06
1.7073e+06
2.14404e+06
2.54433e+06
2.90165e+06
3.21019e+06
3.46492e+06
3.66166e+06
3.79715e+06
3.86909e+06
3.87621e+06
3.81827e+06
3.69617e+06
3.51197e+06
3.26896e+06
2.97183e+06
2.62682e+06
2.24186e+06
1.82684e+06
1.39303e+06
951429
508833
-264282
247979
754756
1.2477e+06
1.71875e+06
2.16018e+06
2.56482e+06
2.92607e+06
3.23806e+06
3.4957e+06
3.69477e+06
3.83198e+06
3.90499e+06
3.91251e+06
3.8543e+06
3.73124e+06
3.54539e+06
3.30007e+06
2.99999e+06
2.65145e+06
2.26248e+06
1.84309e+06
1.4047e+06
958442
511174
)
;

boundaryField
{
    outletCentralUnloaded
    {
        type            zeroGradient;
    }
    inletCentralUnloaded
    {
        type            zeroGradient;
    }
    outletFuelElement
    {
        type            zeroGradient;
    }
    inletFuelElement
    {
        type            zeroGradient;
    }
    defaultFaces
    {
        type            zeroGradient;
    }
    baffle_master
    {
        type            zeroGradient;
    }
    baffle_slave
    {
        type            zeroGradient;
    }
}


// ************************************************************************* //
