/*--------------------------------*- C++ -*----------------------------------*\
| =========                 |                                                 |
| \\      /  F ield         | OpenFOAM: The Open Source CFD Toolbox           |
|  \\    /   O peration     | Version:  2212                                  |
|   \\  /    A nd           | Website:  www.openfoam.com                      |
|    \\/     M anipulation  |                                                 |
\*---------------------------------------------------------------------------*/
FoamFile
{
    version     2.0;
    format      ascii;
    arch        "LSB;label=32;scalar=64";
    class       volScalarField;
    location    "14/fluidRegion";
    object      htc;
}
// * * * * * * * * * * * * * * * * * * * * * * * * * * * * * * * * * * * * * //

dimensions      [1 0 -3 -1 0 0 0];

internalField   nonuniform List<scalar> 
350
(
3093.97
3093.99
3094.01
3094.02
3094.04
3094.06
3094.08
3094.09
3094.11
3094.13
3094.14
3094.16
3094.18
3094.2
3094.21
3094.23
3094.25
3094.26
3094.28
3094.3
3094.32
3094.33
3094.35
3094.37
3103.21
3093.97
3093.99
3094.01
3094.02
3094.04
3094.06
3094.08
3094.09
3094.11
3094.13
3094.14
3094.16
3094.18
3094.2
3094.21
3094.23
3094.25
3094.26
3094.28
3094.3
3094.32
3094.33
3094.35
3094.37
3103.21
18351.9
18356
18312.8
18180.6
17961
17656.3
17269.8
16805.8
16269.6
15667
15004.8
14290.1
13530
12731.4
11901.1
11045.8
10173.1
9292.46
8416.39
7561.83
6751.41
6014.43
5386.29
4904.16
4551.45
18393.7
18398.4
18355.9
18223.8
18003.7
17698
17309.9
16843.8
16304.9
15699.3
15033.9
14315.8
13552.4
12750.7
11917.4
11059.4
10184.2
9301.13
8422.52
7565.4
6752.53
6013.5
5384.14
4902.01
4550.59
18345
18349.1
18305.8
18173.7
17954.1
17649.6
17263.4
16799.8
16263.9
15661.8
15000.1
14286
13526.4
12728.2
11898.3
11043.4
10171.1
9290.84
8415.13
7560.91
6750.82
6014.11
5386.12
4904.03
4551.37
18384.4
18389
18346.3
18214.2
17994.2
17688.6
17300.9
16835.3
16296.9
15692
15027.3
14310
13547.4
12746.4
11913.8
11056.4
10181.8
9299.21
8421.18
7564.64
6752.33
6013.77
5384.69
4902.57
4550.81
18384.4
18389
18346.3
18214.2
17994.2
17688.6
17300.9
16835.3
16296.9
15692
15027.3
14310
13547.4
12746.4
11913.8
11056.4
10181.8
9299.21
8421.18
7564.64
6752.33
6013.77
5384.69
4902.57
4550.81
18345.1
18349.1
18305.8
18173.7
17954.1
17649.6
17263.4
16799.8
16263.9
15661.8
15000.1
14286
13526.4
12728.2
11898.3
11043.4
10171.1
9290.84
8415.12
7560.91
6750.82
6014.1
5386.12
4904.02
4551.37
18393.7
18398.4
18355.9
18223.8
18003.7
17698
17309.9
16843.8
16304.9
15699.3
15033.9
14315.8
13552.4
12750.7
11917.4
11059.4
10184.2
9301.13
8422.52
7565.4
6752.53
6013.5
5384.14
4902.01
4550.59
18351.9
18356
18312.8
18180.6
17961
17656.3
17269.8
16805.8
16269.6
15667
15004.8
14290.1
13530
12731.4
11901.1
11045.8
10173.1
9292.46
8416.39
7561.83
6751.41
6014.43
5386.29
4904.16
4551.45
18384.4
18389
18346.3
18214.2
17994.2
17688.6
17300.9
16835.3
16296.9
15692
15027.3
14310
13547.4
12746.4
11913.8
11056.4
10181.8
9299.21
8421.18
7564.64
6752.33
6013.77
5384.69
4902.57
4550.81
18345
18349.1
18305.8
18173.7
17954.1
17649.6
17263.4
16799.8
16263.9
15661.8
15000.1
14286
13526.4
12728.2
11898.3
11043.4
10171.1
9290.84
8415.13
7560.91
6750.82
6014.11
5386.12
4904.03
4551.37
18345.1
18349.1
18305.8
18173.7
17954.1
17649.6
17263.4
16799.8
16263.9
15661.8
15000.1
14286
13526.4
12728.2
11898.3
11043.4
10171.1
9290.84
8415.12
7560.91
6750.82
6014.1
5386.12
4904.02
4551.37
18384.4
18389
18346.3
18214.2
17994.2
17688.6
17300.9
16835.3
16296.9
15692
15027.3
14310
13547.4
12746.4
11913.8
11056.4
10181.8
9299.21
8421.18
7564.64
6752.33
6013.77
5384.69
4902.57
4550.81
)
;

boundaryField
{
    outletCentralUnloaded
    {
        type            zeroGradient;
    }
    inletCentralUnloaded
    {
        type            zeroGradient;
    }
    outletFuelElement
    {
        type            zeroGradient;
    }
    inletFuelElement
    {
        type            zeroGradient;
    }
    defaultFaces
    {
        type            zeroGradient;
    }
    baffle_master
    {
        type            zeroGradient;
    }
    baffle_slave
    {
        type            zeroGradient;
    }
}


// ************************************************************************* //
