/*--------------------------------*- C++ -*----------------------------------*\
| =========                 |                                                 |
| \\      /  F ield         | OpenFOAM: The Open Source CFD Toolbox           |
|  \\    /   O peration     | Version:  2212                                  |
|   \\  /    A nd           | Website:  www.openfoam.com                      |
|    \\/     M anipulation  |                                                 |
\*---------------------------------------------------------------------------*/
FoamFile
{
    version     2.0;
    format      ascii;
    arch        "LSB;label=32;scalar=64";
    class       volScalarField;
    location    "14/fluidRegion";
    object      k;
}
// * * * * * * * * * * * * * * * * * * * * * * * * * * * * * * * * * * * * * //

dimensions      [0 2 -2 0 0 0 0];

internalField   nonuniform List<scalar> 
350
(
0.418893
0.418825
0.418757
0.418688
0.418621
0.418553
0.418487
0.41842
0.418356
0.418292
0.418232
0.418175
0.418125
0.418085
0.418058
0.418054
0.418084
0.418166
0.418327
0.418608
0.419074
0.419823
0.421003
0.422843
0.42569
0.418893
0.418825
0.418757
0.418688
0.418621
0.418553
0.418487
0.41842
0.418356
0.418292
0.418232
0.418175
0.418125
0.418085
0.418058
0.418054
0.418084
0.418166
0.418327
0.418608
0.419074
0.419823
0.421003
0.422843
0.42569
138.606
133.995
127.949
120.431
111.709
102.075
91.8365
81.3028
70.7721
60.5208
50.7923
41.7883
33.6613
26.5111
20.3842
15.2769
11.1425
7.89977
5.44381
3.65597
2.41368
1.59847
1.10356
0.839612
0.738638
140.166
135.53
129.439
121.853
113.043
103.304
92.9484
82.2893
71.6294
61.2492
51.3965
42.2763
34.0444
26.8024
20.5981
15.4279
11.2443
7.96485
5.48283
3.67758
2.42449
1.60321
1.10533
0.840217
0.738982
138.343
133.738
127.701
120.195
111.488
101.872
91.6534
81.1407
70.6316
60.4017
50.6937
41.7088
33.5989
26.4637
20.3493
15.2523
11.1258
7.88896
5.43721
3.6522
2.41169
1.59751
1.10315
0.839477
0.738635
139.824
135.193
129.111
121.539
112.747
103.031
92.7008
82.069
71.4375
61.0858
51.2606
42.1663
33.9578
26.7365
20.5496
15.3936
11.2211
7.95005
5.47395
3.67266
2.42204
1.60214
1.10493
0.840083
0.738901
139.824
135.193
129.111
121.539
112.747
103.031
92.7008
82.069
71.4375
61.0858
51.2606
42.1663
33.9578
26.7365
20.5496
15.3936
11.2211
7.95005
5.47395
3.67266
2.42204
1.60214
1.10493
0.840083
0.738901
138.343
133.738
127.701
120.195
111.488
101.872
91.6534
81.1407
70.6317
60.4017
50.6938
41.7088
33.599
26.4637
20.3494
15.2523
11.1258
7.88896
5.43721
3.6522
2.41169
1.59751
1.10315
0.839477
0.738636
140.166
135.53
129.439
121.853
113.043
103.304
92.9484
82.2893
71.6294
61.2492
51.3965
42.2763
34.0444
26.8024
20.5981
15.4279
11.2443
7.96485
5.48283
3.67758
2.42449
1.60321
1.10533
0.840217
0.738982
138.605
133.995
127.949
120.431
111.709
102.075
91.8365
81.3028
70.7721
60.5208
50.7924
41.7883
33.6613
26.5111
20.3842
15.2769
11.1425
7.89976
5.44381
3.65597
2.41368
1.59846
1.10355
0.839611
0.738636
139.824
135.193
129.111
121.539
112.747
103.031
92.7008
82.069
71.4375
61.0858
51.2606
42.1663
33.9578
26.7365
20.5496
15.3936
11.2211
7.95005
5.47395
3.67266
2.42204
1.60214
1.10493
0.840083
0.738901
138.343
133.738
127.701
120.195
111.488
101.872
91.6534
81.1407
70.6316
60.4017
50.6938
41.7088
33.5989
26.4637
20.3494
15.2523
11.1257
7.88896
5.43721
3.6522
2.41169
1.5975
1.10314
0.839474
0.738632
138.343
133.738
127.701
120.195
111.488
101.872
91.6534
81.1407
70.6317
60.4017
50.6938
41.7088
33.599
26.4637
20.3494
15.2523
11.1258
7.88896
5.43721
3.6522
2.41169
1.5975
1.10315
0.839476
0.738635
139.824
135.193
129.111
121.539
112.747
103.031
92.7008
82.069
71.4375
61.0858
51.2606
42.1663
33.9579
26.7365
20.5496
15.3936
11.2211
7.95005
5.47395
3.67266
2.42204
1.60214
1.10493
0.840081
0.738899
)
;

boundaryField
{
    outletCentralUnloaded
    {
        type            zeroGradient;
    }
    inletCentralUnloaded
    {
        type            zeroGradient;
    }
    outletFuelElement
    {
        type            zeroGradient;
    }
    inletFuelElement
    {
        type            zeroGradient;
    }
    defaultFaces
    {
        type            zeroGradient;
    }
    baffle_master
    {
        type            zeroGradient;
    }
    baffle_slave
    {
        type            zeroGradient;
    }
}


// ************************************************************************* //
