/*--------------------------------*- C++ -*----------------------------------*\
| =========                 |                                                 |
| \\      /  F ield         | OpenFOAM: The Open Source CFD Toolbox           |
|  \\    /   O peration     | Version:  2212                                  |
|   \\  /    A nd           | Website:  www.openfoam.com                      |
|    \\/     M anipulation  |                                                 |
\*---------------------------------------------------------------------------*/
FoamFile
{
    version     2.0;
    format      ascii;
    arch        "LSB;label=32;scalar=64";
    class       volScalarField;
    location    "14/fluidRegion";
    object      nut;
}
// * * * * * * * * * * * * * * * * * * * * * * * * * * * * * * * * * * * * * //

dimensions      [0 2 -1 0 0 0 0];

internalField   nonuniform List<scalar> 
350
(
0.000536091
0.000536047
0.000536003
0.00053596
0.000535916
0.000535873
0.00053583
0.000535787
0.000535745
0.000535704
0.000535664
0.000535626
0.00053559
0.00053556
0.000535536
0.000535523
0.000535526
0.000535553
0.000535618
0.00053574
0.00053595
0.000536294
0.000536843
0.000537705
0.000540108
0.000536091
0.000536047
0.000536003
0.00053596
0.000535916
0.000535873
0.00053583
0.000535787
0.000535745
0.000535704
0.000535664
0.000535626
0.00053559
0.00053556
0.000535536
0.000535523
0.000535526
0.000535553
0.000535618
0.00053574
0.00053595
0.000536294
0.000536843
0.000537705
0.000540108
0.00593678
0.00588301
0.00580088
0.00567757
0.00551547
0.00531746
0.00508679
0.00482711
0.00454243
0.0042371
0.00391582
0.00358353
0.00324541
0.00290671
0.00257262
0.00224817
0.00193805
0.00164663
0.00137787
0.00113547
0.000922879
0.000743209
0.000598871
0.000490967
0.000415962
0.0059673
0.00591372
0.00583177
0.00570826
0.00554568
0.00534688
0.00511515
0.00485414
0.00456788
0.00426076
0.00393749
0.00360307
0.00326272
0.00292175
0.0025854
0.00225875
0.00194656
0.00165322
0.00138275
0.00113888
0.000925061
0.000744449
0.000599457
0.00049117
0.000416015
0.00593172
0.00587792
0.00579581
0.00567254
0.00551054
0.00531266
0.00508218
0.00482273
0.00453831
0.00423328
0.00391232
0.00358038
0.00324262
0.00290428
0.00257056
0.00224645
0.00193667
0.00164554
0.00137705
0.00113488
0.000922479
0.000742955
0.000598723
0.000490892
0.000415944
0.00596056
0.00590693
0.00582491
0.00570143
0.00553894
0.00534031
0.0051088
0.00484808
0.00456216
0.00425543
0.0039326
0.00359865
0.0032588
0.00291834
0.0025825
0.00225635
0.00194463
0.00165172
0.00138164
0.0011381
0.000924568
0.000744171
0.000599329
0.000491128
0.000416004
0.00596056
0.00590693
0.00582491
0.00570143
0.00553894
0.00534031
0.0051088
0.00484808
0.00456216
0.00425543
0.0039326
0.00359865
0.0032588
0.00291834
0.0025825
0.00225635
0.00194463
0.00165172
0.00138164
0.0011381
0.000924568
0.000744171
0.000599329
0.000491128
0.000416004
0.00593172
0.00587792
0.00579581
0.00567254
0.00551054
0.00531266
0.00508218
0.00482273
0.00453831
0.00423328
0.00391232
0.00358038
0.00324262
0.00290428
0.00257056
0.00224645
0.00193667
0.00164554
0.00137705
0.00113488
0.000922478
0.000742954
0.000598723
0.000490892
0.000415944
0.0059673
0.00591372
0.00583177
0.00570826
0.00554568
0.00534688
0.00511515
0.00485414
0.00456788
0.00426076
0.00393749
0.00360307
0.00326272
0.00292175
0.0025854
0.00225875
0.00194656
0.00165322
0.00138275
0.00113888
0.000925062
0.000744449
0.000599457
0.00049117
0.000416015
0.00593678
0.00588301
0.00580088
0.00567757
0.00551547
0.00531746
0.00508679
0.00482711
0.00454243
0.0042371
0.00391582
0.00358353
0.00324541
0.00290671
0.00257262
0.00224817
0.00193805
0.00164663
0.00137787
0.00113547
0.000922879
0.000743208
0.000598871
0.000490966
0.000415962
0.00596056
0.00590693
0.00582491
0.00570143
0.00553894
0.00534031
0.0051088
0.00484808
0.00456216
0.00425543
0.0039326
0.00359865
0.0032588
0.00291834
0.0025825
0.00225635
0.00194463
0.00165172
0.00138164
0.0011381
0.000924568
0.000744171
0.000599329
0.000491128
0.000416004
0.00593172
0.00587792
0.00579581
0.00567254
0.00551054
0.00531266
0.00508218
0.00482273
0.00453831
0.00423328
0.00391232
0.00358038
0.00324262
0.00290428
0.00257056
0.00224645
0.00193667
0.00164554
0.00137705
0.00113488
0.000922478
0.000742955
0.000598723
0.000490892
0.000415944
0.00593172
0.00587792
0.00579581
0.00567254
0.00551054
0.00531266
0.00508218
0.00482273
0.00453831
0.00423328
0.00391232
0.00358038
0.00324262
0.00290428
0.00257056
0.00224645
0.00193667
0.00164554
0.00137705
0.00113488
0.000922478
0.000742954
0.000598723
0.000490892
0.000415944
0.00596056
0.00590693
0.00582491
0.00570143
0.00553894
0.00534031
0.0051088
0.00484808
0.00456216
0.00425543
0.0039326
0.00359865
0.0032588
0.00291834
0.0025825
0.00225635
0.00194463
0.00165172
0.00138164
0.0011381
0.000924568
0.000744171
0.000599328
0.000491128
0.000416004
)
;

boundaryField
{
    outletCentralUnloaded
    {
        type            zeroGradient;
    }
    inletCentralUnloaded
    {
        type            zeroGradient;
    }
    outletFuelElement
    {
        type            zeroGradient;
    }
    inletFuelElement
    {
        type            zeroGradient;
    }
    defaultFaces
    {
        type            zeroGradient;
    }
    baffle_master
    {
        type            calculated;
        value           nonuniform List<scalar> 
150
(
0.000536091
0.000536091
0.000536091
0.000536047
0.000536047
0.000536047
0.000536003
0.000536003
0.000536003
0.00053596
0.00053596
0.00053596
0.000535916
0.000535916
0.000535916
0.000535873
0.000535873
0.000535873
0.00053583
0.00053583
0.00053583
0.000535787
0.000535787
0.000535787
0.000535745
0.000535745
0.000535745
0.000535704
0.000535704
0.000535704
0.000535664
0.000535664
0.000535664
0.000535626
0.000535626
0.000535626
0.00053559
0.00053559
0.00053559
0.00053556
0.00053556
0.00053556
0.000535536
0.000535536
0.000535536
0.000535523
0.000535523
0.000535523
0.000535526
0.000535526
0.000535526
0.000535553
0.000535553
0.000535553
0.000535618
0.000535618
0.000535618
0.00053574
0.00053574
0.00053574
0.00053595
0.00053595
0.00053595
0.000536294
0.000536294
0.000536294
0.000536843
0.000536843
0.000536843
0.000537705
0.000537705
0.000537705
0.000540108
0.000540108
0.000540108
0.000536091
0.000536091
0.000536091
0.000536047
0.000536047
0.000536047
0.000536003
0.000536003
0.000536003
0.00053596
0.00053596
0.00053596
0.000535916
0.000535916
0.000535916
0.000535873
0.000535873
0.000535873
0.00053583
0.00053583
0.00053583
0.000535787
0.000535787
0.000535787
0.000535745
0.000535745
0.000535745
0.000535704
0.000535704
0.000535704
0.000535664
0.000535664
0.000535664
0.000535626
0.000535626
0.000535626
0.00053559
0.00053559
0.00053559
0.00053556
0.00053556
0.00053556
0.000535536
0.000535536
0.000535536
0.000535523
0.000535523
0.000535523
0.000535526
0.000535526
0.000535526
0.000535553
0.000535553
0.000535553
0.000535618
0.000535618
0.000535618
0.00053574
0.00053574
0.00053574
0.00053595
0.00053595
0.00053595
0.000536294
0.000536294
0.000536294
0.000536843
0.000536843
0.000536843
0.000537705
0.000537705
0.000537705
0.000540108
0.000540108
0.000540108
)
;
    }
    baffle_slave
    {
        type            calculated;
        value           nonuniform List<scalar> 
150
(
0.0059673
0.00596056
0.00596056
0.00591372
0.00590693
0.00590693
0.00583177
0.00582491
0.00582491
0.00570826
0.00570143
0.00570143
0.00554568
0.00553894
0.00553894
0.00534688
0.00534031
0.00534031
0.00511515
0.0051088
0.0051088
0.00485414
0.00484808
0.00484808
0.00456788
0.00456216
0.00456216
0.00426076
0.00425543
0.00425543
0.00393749
0.0039326
0.0039326
0.00360307
0.00359865
0.00359865
0.00326272
0.0032588
0.0032588
0.00292175
0.00291834
0.00291834
0.0025854
0.0025825
0.0025825
0.00225875
0.00225635
0.00225635
0.00194656
0.00194463
0.00194463
0.00165322
0.00165172
0.00165172
0.00138275
0.00138164
0.00138164
0.00113888
0.0011381
0.0011381
0.000925061
0.000924568
0.000924568
0.000744449
0.000744171
0.000744171
0.000599457
0.000599329
0.000599328
0.00049117
0.000491128
0.000491128
0.000416015
0.000416004
0.000416004
0.00596056
0.0059673
0.00596056
0.00590693
0.00591372
0.00590693
0.00582491
0.00583177
0.00582491
0.00570143
0.00570826
0.00570143
0.00553894
0.00554568
0.00553894
0.00534031
0.00534688
0.00534031
0.0051088
0.00511515
0.0051088
0.00484808
0.00485414
0.00484808
0.00456216
0.00456788
0.00456216
0.00425543
0.00426076
0.00425543
0.0039326
0.00393749
0.0039326
0.00359865
0.00360307
0.00359865
0.0032588
0.00326272
0.0032588
0.00291834
0.00292175
0.00291834
0.0025825
0.0025854
0.0025825
0.00225635
0.00225875
0.00225635
0.00194463
0.00194656
0.00194463
0.00165172
0.00165322
0.00165172
0.00138164
0.00138275
0.00138164
0.0011381
0.00113888
0.0011381
0.000924568
0.000925062
0.000924568
0.000744171
0.000744449
0.000744171
0.000599329
0.000599457
0.000599329
0.000491128
0.00049117
0.000491128
0.000416004
0.000416015
0.000416004
)
;
    }
}


// ************************************************************************* //
