/*--------------------------------*- C++ -*----------------------------------*\
| =========                 |                                                 |
| \\      /  F ield         | OpenFOAM: The Open Source CFD Toolbox           |
|  \\    /   O peration     | Version:  2212                                  |
|   \\  /    A nd           | Website:  www.openfoam.com                      |
|    \\/     M anipulation  |                                                 |
\*---------------------------------------------------------------------------*/
FoamFile
{
    version     2.0;
    format      ascii;
    arch        "LSB;label=32;scalar=64";
    class       volScalarField;
    location    "14/fluidRegion";
    object      p_rgh;
}
// * * * * * * * * * * * * * * * * * * * * * * * * * * * * * * * * * * * * * //

dimensions      [1 -1 -2 0 0 0 0];

internalField   nonuniform List<scalar> 
350
(
3.44743e+06
3.44772e+06
3.44802e+06
3.44831e+06
3.4486e+06
3.4489e+06
3.44919e+06
3.44949e+06
3.44978e+06
3.45007e+06
3.45037e+06
3.45066e+06
3.45096e+06
3.45125e+06
3.45154e+06
3.45184e+06
3.45213e+06
3.45243e+06
3.45272e+06
3.45301e+06
3.45331e+06
3.4536e+06
3.4539e+06
3.45419e+06
3.45447e+06
3.44743e+06
3.44772e+06
3.44802e+06
3.44831e+06
3.4486e+06
3.4489e+06
3.44919e+06
3.44949e+06
3.44978e+06
3.45007e+06
3.45037e+06
3.45066e+06
3.45096e+06
3.45125e+06
3.45154e+06
3.45184e+06
3.45213e+06
3.45243e+06
3.45272e+06
3.45301e+06
3.45331e+06
3.4536e+06
3.4539e+06
3.45419e+06
3.45447e+06
3.46085e+06
3.48779e+06
3.51481e+06
3.54173e+06
3.56834e+06
3.59445e+06
3.61988e+06
3.64446e+06
3.66802e+06
3.69042e+06
3.71154e+06
3.73127e+06
3.74952e+06
3.76623e+06
3.78137e+06
3.79493e+06
3.80691e+06
3.81735e+06
3.82632e+06
3.83389e+06
3.84016e+06
3.84525e+06
3.84929e+06
3.85244e+06
3.85484e+06
3.46085e+06
3.48779e+06
3.51481e+06
3.54173e+06
3.56834e+06
3.59445e+06
3.61988e+06
3.64446e+06
3.66802e+06
3.69042e+06
3.71154e+06
3.73127e+06
3.74952e+06
3.76623e+06
3.78137e+06
3.79493e+06
3.80691e+06
3.81735e+06
3.82632e+06
3.83389e+06
3.84016e+06
3.84525e+06
3.84929e+06
3.85244e+06
3.85484e+06
3.46085e+06
3.48779e+06
3.51481e+06
3.54173e+06
3.56834e+06
3.59445e+06
3.61988e+06
3.64446e+06
3.66802e+06
3.69042e+06
3.71154e+06
3.73127e+06
3.74952e+06
3.76623e+06
3.78137e+06
3.79493e+06
3.80691e+06
3.81735e+06
3.82632e+06
3.83389e+06
3.84016e+06
3.84525e+06
3.84929e+06
3.85244e+06
3.85484e+06
3.46085e+06
3.48779e+06
3.51481e+06
3.54173e+06
3.56834e+06
3.59445e+06
3.61988e+06
3.64446e+06
3.66802e+06
3.69042e+06
3.71154e+06
3.73127e+06
3.74952e+06
3.76623e+06
3.78137e+06
3.79493e+06
3.80691e+06
3.81735e+06
3.82632e+06
3.83389e+06
3.84016e+06
3.84525e+06
3.84929e+06
3.85244e+06
3.85484e+06
3.46085e+06
3.48779e+06
3.51481e+06
3.54173e+06
3.56834e+06
3.59445e+06
3.61988e+06
3.64446e+06
3.66802e+06
3.69042e+06
3.71154e+06
3.73127e+06
3.74952e+06
3.76623e+06
3.78137e+06
3.79493e+06
3.80691e+06
3.81735e+06
3.82632e+06
3.83389e+06
3.84016e+06
3.84525e+06
3.84929e+06
3.85244e+06
3.85484e+06
3.46085e+06
3.48779e+06
3.51481e+06
3.54173e+06
3.56834e+06
3.59445e+06
3.61988e+06
3.64446e+06
3.66802e+06
3.69042e+06
3.71154e+06
3.73127e+06
3.74952e+06
3.76623e+06
3.78137e+06
3.79493e+06
3.80691e+06
3.81735e+06
3.82632e+06
3.83389e+06
3.84016e+06
3.84525e+06
3.84929e+06
3.85244e+06
3.85484e+06
3.46085e+06
3.48779e+06
3.51481e+06
3.54173e+06
3.56834e+06
3.59445e+06
3.61988e+06
3.64446e+06
3.66802e+06
3.69042e+06
3.71154e+06
3.73127e+06
3.74952e+06
3.76623e+06
3.78137e+06
3.79493e+06
3.80691e+06
3.81735e+06
3.82632e+06
3.83389e+06
3.84016e+06
3.84525e+06
3.84929e+06
3.85244e+06
3.85484e+06
3.46085e+06
3.48779e+06
3.51481e+06
3.54173e+06
3.56834e+06
3.59445e+06
3.61988e+06
3.64446e+06
3.66802e+06
3.69042e+06
3.71154e+06
3.73127e+06
3.74952e+06
3.76623e+06
3.78137e+06
3.79493e+06
3.80691e+06
3.81735e+06
3.82632e+06
3.83389e+06
3.84016e+06
3.84525e+06
3.84929e+06
3.85244e+06
3.85484e+06
3.46085e+06
3.48779e+06
3.51481e+06
3.54173e+06
3.56834e+06
3.59445e+06
3.61988e+06
3.64446e+06
3.66802e+06
3.69042e+06
3.71154e+06
3.73127e+06
3.74952e+06
3.76623e+06
3.78137e+06
3.79493e+06
3.80691e+06
3.81735e+06
3.82632e+06
3.83389e+06
3.84016e+06
3.84525e+06
3.84929e+06
3.85244e+06
3.85484e+06
3.46085e+06
3.48779e+06
3.51481e+06
3.54173e+06
3.56834e+06
3.59445e+06
3.61988e+06
3.64446e+06
3.66802e+06
3.69042e+06
3.71154e+06
3.73127e+06
3.74952e+06
3.76623e+06
3.78137e+06
3.79493e+06
3.80691e+06
3.81735e+06
3.82632e+06
3.83389e+06
3.84016e+06
3.84525e+06
3.84929e+06
3.85244e+06
3.85484e+06
3.46085e+06
3.48779e+06
3.51481e+06
3.54173e+06
3.56834e+06
3.59445e+06
3.61988e+06
3.64446e+06
3.66802e+06
3.69042e+06
3.71154e+06
3.73127e+06
3.74952e+06
3.76623e+06
3.78137e+06
3.79493e+06
3.80691e+06
3.81735e+06
3.82632e+06
3.83389e+06
3.84016e+06
3.84525e+06
3.84929e+06
3.85244e+06
3.85484e+06
3.46085e+06
3.48779e+06
3.51481e+06
3.54173e+06
3.56834e+06
3.59445e+06
3.61988e+06
3.64446e+06
3.66802e+06
3.69042e+06
3.71154e+06
3.73127e+06
3.74952e+06
3.76623e+06
3.78137e+06
3.79493e+06
3.80691e+06
3.81735e+06
3.82632e+06
3.83389e+06
3.84016e+06
3.84525e+06
3.84929e+06
3.85244e+06
3.85484e+06
)
;

boundaryField
{
    outletCentralUnloaded
    {
        type            fixedValue;
        value           uniform 3.44728e+06;
    }
    inletCentralUnloaded
    {
        type            zeroGradient;
    }
    outletFuelElement
    {
        type            fixedValue;
        value           uniform 3.44728e+06;
    }
    inletFuelElement
    {
        type            zeroGradient;
    }
    defaultFaces
    {
        type            zeroGradient;
    }
    baffle_master
    {
        type            zeroGradient;
    }
    baffle_slave
    {
        type            zeroGradient;
    }
}


// ************************************************************************* //
