/*--------------------------------*- C++ -*----------------------------------*\
| =========                 |                                                 |
| \\      /  F ield         | OpenFOAM: The Open Source CFD Toolbox           |
|  \\    /   O peration     | Version:  2212                                  |
|   \\  /    A nd           | Website:  www.openfoam.com                      |
|    \\/     M anipulation  |                                                 |
\*---------------------------------------------------------------------------*/
FoamFile
{
    version     2.0;
    format      ascii;
    arch        "LSB;label=32;scalar=64";
    class       volScalarField;
    location    "14/fluidRegion";
    object      T;
}
// * * * * * * * * * * * * * * * * * * * * * * * * * * * * * * * * * * * * * //

dimensions      [0 0 0 1 0 0 0];

internalField   nonuniform List<scalar> 
350
(
83.288
83.2885
83.289
83.2895
83.29
83.2905
83.2911
83.2916
83.2921
83.2926
83.2931
83.2936
83.2941
83.2947
83.2952
83.2957
83.2962
83.2967
83.2972
83.2977
83.2982
83.2987
83.2992
83.2997
83.3001
83.288
83.2885
83.289
83.2895
83.29
83.2905
83.2911
83.2916
83.2921
83.2926
83.2931
83.2936
83.2941
83.2947
83.2952
83.2957
83.2962
83.2967
83.2972
83.2977
83.2982
83.2987
83.2992
83.2997
83.3001
1124.61
1128.91
1124.73
1112.16
1091.38
1062.71
1026.54
983.409
933.959
878.953
819.27
755.9
689.928
622.504
554.813
488.033
423.299
361.679
304.168
251.689
205.111
165.235
132.759
108.181
91.6805
1138.43
1143.07
1139.1
1126.6
1105.75
1076.86
1040.33
996.702
946.622
890.863
830.316
765.987
698.982
630.479
561.689
493.822
428.042
365.442
307.038
253.77
206.522
166.103
133.22
108.371
91.7217
1122.34
1126.59
1122.38
1109.81
1089.06
1060.42
1024.32
981.28
931.938
877.06
817.521
754.31
688.506
621.257
553.742
487.135
422.567
361.102
303.73
251.373
204.898
165.104
132.689
108.153
91.6738
1135.32
1139.88
1135.86
1123.33
1102.5
1073.64
1037.19
993.674
943.733
888.142
827.789
763.676
696.905
628.647
560.108
492.49
426.949
364.575
306.376
253.29
206.196
165.903
133.114
108.327
91.7123
1135.32
1139.88
1135.86
1123.33
1102.5
1073.64
1037.19
993.674
943.733
888.142
827.789
763.676
696.905
628.647
560.108
492.49
426.949
364.575
306.376
253.29
206.196
165.903
133.114
108.327
91.7123
1122.34
1126.59
1122.38
1109.81
1089.06
1060.42
1024.32
981.28
931.939
877.06
817.521
754.31
688.506
621.257
553.743
487.136
422.567
361.102
303.73
251.373
204.899
165.104
132.689
108.153
91.6738
1138.43
1143.07
1139.1
1126.6
1105.75
1076.86
1040.33
996.702
946.622
890.863
830.316
765.987
698.982
630.479
561.689
493.822
428.042
365.442
307.038
253.77
206.522
166.103
133.22
108.371
91.7217
1124.61
1128.91
1124.73
1112.16
1091.38
1062.71
1026.54
983.409
933.959
878.953
819.27
755.9
689.928
622.504
554.813
488.033
423.299
361.679
304.168
251.689
205.111
165.235
132.759
108.181
91.6805
1135.32
1139.88
1135.86
1123.33
1102.5
1073.64
1037.19
993.674
943.733
888.142
827.788
763.676
696.905
628.647
560.108
492.49
426.949
364.575
306.376
253.29
206.196
165.903
133.114
108.327
91.7123
1122.34
1126.59
1122.38
1109.81
1089.06
1060.42
1024.32
981.279
931.938
877.059
817.521
754.31
688.506
621.256
553.742
487.135
422.567
361.102
303.73
251.373
204.898
165.104
132.689
108.153
91.6738
1122.34
1126.59
1122.38
1109.81
1089.06
1060.42
1024.32
981.28
931.939
877.06
817.521
754.31
688.506
621.257
553.742
487.136
422.567
361.102
303.73
251.373
204.899
165.104
132.689
108.153
91.6738
1135.32
1139.88
1135.86
1123.33
1102.5
1073.64
1037.19
993.674
943.733
888.142
827.788
763.676
696.905
628.647
560.108
492.49
426.949
364.575
306.376
253.29
206.196
165.903
133.114
108.327
91.7123
)
;

boundaryField
{
    outletCentralUnloaded
    {
        type            zeroGradient;
    }
    inletCentralUnloaded
    {
        type            fixedValue;
        value           uniform 83.3;
    }
    outletFuelElement
    {
        type            zeroGradient;
    }
    inletFuelElement
    {
        type            fixedValue;
        value           uniform 83.3;
    }
    defaultFaces
    {
        type            zeroGradient;
    }
    baffle_master
    {
        type            zeroGradient;
    }
    baffle_slave
    {
        type            zeroGradient;
    }
}


// ************************************************************************* //
