/*--------------------------------*- C++ -*----------------------------------*\
| =========                 |                                                 |
| \\      /  F ield         | OpenFOAM: The Open Source CFD Toolbox           |
|  \\    /   O peration     | Version:  2212                                  |
|   \\  /    A nd           | Website:  www.openfoam.com                      |
|    \\/     M anipulation  |                                                 |
\*---------------------------------------------------------------------------*/
FoamFile
{
    version     2.0;
    format      ascii;
    arch        "LSB;label=32;scalar=64";
    class       volScalarField;
    location    "14/fluidRegion";
    object      Tci.nuclearFuelPin;
}
// * * * * * * * * * * * * * * * * * * * * * * * * * * * * * * * * * * * * * //

dimensions      [0 0 0 1 0 0 0];

internalField   nonuniform List<scalar> 
350
(
0
0
0
0
0
0
0
0
0
0
0
0
0
0
0
0
0
0
0
0
0
0
0
0
0
0
0
0
0
0
0
0
0
0
0
0
0
0
0
0
0
0
0
0
0
0
0
0
0
0
1105.13
1150.44
1186.92
1214.34
1232.64
1241.85
1242.12
1233.72
1217.03
1192.57
1160.91
1122.77
1078.91
1030.14
977.263
921.023
862.001
800.509
736.442
669.101
596.99
517.76
428.583
327.531
216.883
1118.21
1164.26
1201.34
1229.22
1247.82
1257.18
1257.44
1248.9
1231.92
1207.02
1174.81
1136
1091.37
1041.75
987.98
930.809
870.847
808.425
743.451
675.221
602.216
522.042
431.808
329.541
217.565
1102.97
1148.17
1184.56
1211.93
1230.19
1239.38
1239.65
1231.29
1214.66
1190.27
1158.71
1120.68
1076.94
1028.31
975.58
919.49
860.618
799.274
735.352
668.153
596.184
517.104
428.093
327.227
216.778
1115.27
1161.15
1198.08
1225.85
1244.37
1253.69
1253.95
1245.43
1228.52
1203.71
1171.62
1132.96
1088.51
1039.08
985.513
928.555
868.808
806.6
741.835
673.809
601.01
521.053
431.063
329.077
217.407
1115.27
1161.15
1198.08
1225.85
1244.37
1253.69
1253.95
1245.43
1228.52
1203.71
1171.62
1132.96
1088.51
1039.08
985.513
928.555
868.808
806.6
741.835
673.809
601.01
521.053
431.063
329.077
217.407
1102.97
1148.18
1184.56
1211.93
1230.19
1239.38
1239.65
1231.29
1214.66
1190.27
1158.71
1120.68
1076.94
1028.31
975.581
919.491
860.619
799.274
735.353
668.153
596.184
517.104
428.094
327.227
216.778
1118.21
1164.26
1201.34
1229.22
1247.82
1257.18
1257.44
1248.9
1231.92
1207.02
1174.81
1136
1091.37
1041.75
987.98
930.809
870.847
808.425
743.451
675.221
602.216
522.042
431.808
329.541
217.565
1105.13
1150.44
1186.92
1214.34
1232.64
1241.85
1242.12
1233.72
1217.03
1192.57
1160.91
1122.77
1078.91
1030.14
977.263
921.023
862.001
800.508
736.442
669.101
596.99
517.76
428.584
327.531
216.883
1115.27
1161.15
1198.08
1225.85
1244.37
1253.69
1253.95
1245.43
1228.52
1203.71
1171.62
1132.96
1088.51
1039.08
985.513
928.555
868.808
806.6
741.835
673.809
601.01
521.053
431.063
329.077
217.407
1102.97
1148.17
1184.56
1211.93
1230.19
1239.38
1239.65
1231.29
1214.66
1190.27
1158.71
1120.68
1076.94
1028.31
975.58
919.49
860.618
799.274
735.352
668.153
596.184
517.104
428.093
327.227
216.778
1102.97
1148.18
1184.56
1211.93
1230.19
1239.38
1239.65
1231.29
1214.66
1190.27
1158.71
1120.68
1076.94
1028.31
975.581
919.491
860.619
799.274
735.353
668.153
596.184
517.104
428.094
327.227
216.778
1115.27
1161.15
1198.08
1225.85
1244.37
1253.69
1253.95
1245.43
1228.52
1203.71
1171.62
1132.96
1088.51
1039.08
985.513
928.555
868.808
806.6
741.835
673.809
601.01
521.053
431.063
329.077
217.407
)
;

boundaryField
{
    outletCentralUnloaded
    {
        type            zeroGradient;
    }
    inletCentralUnloaded
    {
        type            zeroGradient;
    }
    outletFuelElement
    {
        type            zeroGradient;
    }
    inletFuelElement
    {
        type            zeroGradient;
    }
    defaultFaces
    {
        type            zeroGradient;
    }
    baffle_master
    {
        type            zeroGradient;
    }
    baffle_slave
    {
        type            zeroGradient;
    }
}


// ************************************************************************* //
