/*--------------------------------*- C++ -*----------------------------------*\
| =========                 |                                                 |
| \\      /  F ield         | OpenFOAM: The Open Source CFD Toolbox           |
|  \\    /   O peration     | Version:  2212                                  |
|   \\  /    A nd           | Website:  www.openfoam.com                      |
|    \\/     M anipulation  |                                                 |
\*---------------------------------------------------------------------------*/
FoamFile
{
    version     2.0;
    format      ascii;
    arch        "LSB;label=32;scalar=64";
    class       volScalarField;
    location    "14/fluidRegion";
    object      Tfi.nuclearFuelPin;
}
// * * * * * * * * * * * * * * * * * * * * * * * * * * * * * * * * * * * * * //

dimensions      [0 0 0 1 0 0 0];

internalField   nonuniform List<scalar> 
350
(
0
0
0
0
0
0
0
0
0
0
0
0
0
0
0
0
0
0
0
0
0
0
0
0
0
0
0
0
0
0
0
0
0
0
0
0
0
0
0
0
0
0
0
0
0
0
0
0
0
0
995.112
1587.32
2164.37
2717.2
3237.11
3715.93
4146.13
4520.96
4834.54
5081.94
5259.27
5363.75
5393.74
5348.76
5229.49
5037.78
4776.58
4449.91
4062.76
3621.08
3131.57
2601.69
2039.47
1453.61
853.992
999.897
1598.93
2182.65
2741.85
3267.75
3752.08
4187.24
4566.39
4883.57
5133.81
5313.18
5418.87
5449.2
5403.7
5283.07
5089.16
4824.96
4494.55
4102.97
3656.24
3161.13
2625.19
2056.53
1463.96
857.461
994.34
1585.46
2161.45
2713.26
3232.22
3710.16
4139.58
4513.73
4826.73
5073.67
5250.68
5354.97
5384.91
5340.01
5220.96
5029.6
4768.88
4442.8
4056.35
3615.49
3126.87
2597.95
2036.76
1451.97
853.439
998.803
1596.27
2178.45
2736.18
3260.7
3743.77
4177.78
4555.94
4872.29
5121.87
5300.77
5406.18
5436.43
5391.05
5270.73
5077.33
4813.83
4484.27
4093.71
3648.15
3154.33
2619.78
2052.6
1461.58
856.662
998.803
1596.27
2178.45
2736.18
3260.7
3743.76
4177.78
4555.94
4872.29
5121.87
5300.77
5406.18
5436.43
5391.05
5270.73
5077.33
4813.83
4484.27
4093.71
3648.15
3154.33
2619.78
2052.61
1461.58
856.662
994.34
1585.46
2161.45
2713.27
3232.22
3710.16
4139.58
4513.73
4826.73
5073.67
5250.68
5354.97
5384.91
5340.01
5220.96
5029.6
4768.88
4442.8
4056.35
3615.49
3126.87
2597.95
2036.76
1451.97
853.44
999.897
1598.93
2182.65
2741.85
3267.75
3752.08
4187.24
4566.39
4883.57
5133.81
5313.18
5418.86
5449.2
5403.7
5283.07
5089.16
4824.96
4494.55
4102.97
3656.24
3161.13
2625.19
2056.53
1463.96
857.461
995.112
1587.32
2164.37
2717.2
3237.11
3715.93
4146.13
4520.96
4834.54
5081.94
5259.27
5363.75
5393.74
5348.76
5229.49
5037.78
4776.58
4449.91
4062.76
3621.08
3131.57
2601.69
2039.47
1453.61
853.992
998.803
1596.27
2178.45
2736.18
3260.7
3743.77
4177.78
4555.94
4872.29
5121.87
5300.77
5406.18
5436.43
5391.05
5270.73
5077.33
4813.83
4484.27
4093.71
3648.15
3154.33
2619.78
2052.61
1461.58
856.662
994.34
1585.46
2161.45
2713.27
3232.22
3710.16
4139.58
4513.73
4826.73
5073.67
5250.68
5354.97
5384.91
5340.01
5220.96
5029.6
4768.88
4442.8
4056.35
3615.49
3126.87
2597.95
2036.76
1451.97
853.439
994.34
1585.46
2161.45
2713.27
3232.22
3710.16
4139.58
4513.73
4826.73
5073.67
5250.68
5354.97
5384.91
5340.01
5220.96
5029.6
4768.88
4442.8
4056.35
3615.49
3126.87
2597.95
2036.76
1451.97
853.439
998.803
1596.27
2178.45
2736.18
3260.7
3743.76
4177.78
4555.94
4872.29
5121.87
5300.77
5406.18
5436.43
5391.05
5270.73
5077.33
4813.83
4484.27
4093.71
3648.15
3154.33
2619.78
2052.61
1461.58
856.662
)
;

boundaryField
{
    outletCentralUnloaded
    {
        type            zeroGradient;
    }
    inletCentralUnloaded
    {
        type            zeroGradient;
    }
    outletFuelElement
    {
        type            zeroGradient;
    }
    inletFuelElement
    {
        type            zeroGradient;
    }
    defaultFaces
    {
        type            zeroGradient;
    }
    baffle_master
    {
        type            zeroGradient;
    }
    baffle_slave
    {
        type            zeroGradient;
    }
}


// ************************************************************************* //
