/*--------------------------------*- C++ -*----------------------------------*\
| =========                 |                                                 |
| \\      /  F ield         | OpenFOAM: The Open Source CFD Toolbox           |
|  \\    /   O peration     | Version:  2212                                  |
|   \\  /    A nd           | Website:  www.openfoam.com                      |
|    \\/     M anipulation  |                                                 |
\*---------------------------------------------------------------------------*/
FoamFile
{
    version     2.0;
    format      ascii;
    arch        "LSB;label=32;scalar=64";
    class       scalarFieldField;
    location    "14/fluidRegion";
    object      Trad.nuclearFuelPin;
}
// * * * * * * * * * * * * * * * * * * * * * * * * * * * * * * * * * * * * * //


350
(
0()
0()
0()
0()
0()
0()
0()
0()
0()
0()
0()
0()
0()
0()
0()
0()
0()
0()
0()
0()
0()
0()
0()
0()
0()
0()
0()
0()
0()
0()
0()
0()
0()
0()
0()
0()
0()
0()
0()
0()
0()
0()
0()
0()
0()
0()
0()
0()
0()
0()

20
(
995.112
995.063
994.932
994.778
994.696
994.817
995.31
996.373
998.234
1001.14
1005.36
1011.17
1018.82
1028.55
1040.57
1055.04
1105.13
1106.96
1108.77
1110.6
)


20
(
1587.32
1586.18
1582.76
1577.04
1568.98
1558.51
1545.57
1530.05
1511.85
1490.84
1466.85
1439.69
1409.12
1374.88
1336.63
1293.97
1150.44
1147.67
1145.04
1142.57
)


20
(
2164.37
2162.16
2155.48
2144.25
2128.27
2107.31
2081.05
2049.11
2011.04
1966.35
1914.43
1854.66
1786.3
1708.59
1620.66
1521.59
1186.92
1179.61
1172.58
1165.86
)


20
(
2717.2
2713.93
2704.09
2687.47
2663.78
2632.59
2593.35
2545.41
2488.01
2420.25
2341.16
2249.66
2144.57
2024.61
1888.42
1734.56
1214.34
1202.62
1191.32
1180.46
)


20
(
3237.11
3232.84
3219.95
3198.18
3167.1
3126.12
3074.46
3011.22
2935.3
2845.5
2740.44
2618.62
2478.43
2318.13
2135.9
1929.79
1232.64
1216.7
1201.33
1186.52
)


20
(
3715.93
3710.71
3694.96
3668.36
3630.34
3580.16
3516.85
3439.24
3345.96
3235.48
3106.06
2955.84
2782.78
2584.72
2359.39
2104.42
1241.85
1221.97
1202.78
1184.27
)


20
(
4146.13
4140.04
4121.67
4090.62
4046.23
3987.6
3913.59
3822.78
3713.58
3584.12
3432.38
3256.13
3052.96
2820.33
2555.57
2255.91
1242.12
1218.62
1195.94
1174.05
)


20
(
4520.96
4514.1
4493.38
4458.34
4408.25
4342.06
4258.47
4155.88
4032.43
3886.03
3714.36
3514.87
3284.84
3021.4
2721.52
2382.08
1233.72
1207
1181.2
1156.29
)


20
(
4834.54
4827
4804.24
4765.76
4710.72
4637.99
4546.11
4433.32
4297.56
4136.52
3947.63
3728.09
3474.91
3184.91
2854.78
2481.12
1217.03
1187.55
1159.06
1131.54
)


20
(
5081.94
5073.84
5049.39
5008.04
4948.91
4870.76
4772.02
4650.78
4504.84
4331.7
4128.6
3892.53
3620.27
3308.41
2953.42
2551.65
1192.57
1160.79
1130.09
1100.43
)


20
(
5259.27
5250.73
5224.97
5181.4
5119.09
5036.73
4932.66
4804.89
4651.07
4468.58
4254.51
4005.69
3718.74
3390.09
3016.02
2592.71
1160.91
1127.38
1094.98
1063.66
)


20
(
5363.75
5354.91
5328.23
5283.12
5218.59
5133.31
5025.55
4893.24
4733.98
4545.04
4323.42
4065.86
3768.86
3428.75
3041.7
2603.78
1122.77
1088.04
1054.47
1022.02
)


20
(
5393.74
5384.74
5357.56
5311.59
5245.86
5158.98
5049.22
4914.47
4752.29
4559.92
4334.31
4072.15
3769.91
3423.87
3030.16
2584.82
1078.91
1043.55
1009.37
976.333
)


20
(
5348.76
5339.73
5312.47
5266.37
5200.45
5113.34
5003.31
4868.24
4705.72
4512.99
4287.01
4024.48
3721.9
3375.57
2981.64
2536.19
1030.14
994.739
960.523
927.441
)


20
(
5229.49
5220.58
5193.66
5148.14
5083.07
4997.09
4888.51
4755.27
4594.99
4404.97
4182.25
3923.6
3625.59
3284.61
2896.92
2458.67
977.263
942.415
908.73
876.157
)


20
(
5037.78
5029.12
5002.96
4958.73
4895.51
4812.01
4706.59
4577.28
4421.77
4237.5
4021.61
3771.01
3482.41
3152.34
2777.22
2353.39
921.023
887.306
854.713
823.194
)


20
(
4776.58
4768.3
4743.3
4701.04
4640.66
4560.93
4460.31
4336.95
4188.69
4013.09
3807.48
3568.96
3294.42
2980.63
2624.22
2221.75
862.001
829.977
799.018
769.078
)


20
(
4449.91
4442.14
4418.67
4379.03
4322.4
4247.67
4153.4
4037.91
3899.19
3735.03
3542.96
3320.31
3064.26
2771.82
2439.9
2065.37
800.509
770.708
741.899
714.036
)


20
(
4062.76
4055.61
4034.03
3997.59
3945.56
3876.94
3790.45
3684.58
3557.54
3407.35
3231.8
3028.52
2794.99
2528.55
2226.47
1885.93
736.442
709.355
683.168
657.84
)


20
(
3621.08
3614.66
3595.28
3562.56
3515.87
3454.36
3376.91
3282.2
3168.72
3034.73
2878.35
2697.53
2490.1
2253.78
1986.23
1685.04
669.101
645.159
622.012
599.626
)


20
(
3131.57
3125.96
3109.03
3080.47
3039.75
2986.17
2918.81
2836.58
2738.22
2622.31
2487.31
2331.54
2153.22
1950.49
1721.43
1464.1
596.99
576.556
556.801
537.694
)


20
(
2601.69
2596.96
2582.68
2558.62
2524.36
2479.36
2422.9
2354.15
2272.13
2175.76
2063.85
1935.12
1788.22
1621.75
1434.24
1224.24
517.76
501.109
485.012
469.443
)


20
(
2039.47
2035.66
2024.17
2004.84
1977.38
1941.4
1896.41
1841.82
1776.98
1701.13
1613.46
1513.13
1399.21
1270.78
1126.88
966.54
428.583
415.894
403.626
391.759
)


20
(
1453.61
1450.75
1442.13
1427.67
1407.18
1380.47
1347.26
1307.22
1259.99
1205.19
1142.4
1071.17
991.06
901.613
802.374
692.895
327.531
318.885
310.524
302.434
)


20
(
853.992
852.09
846.377
836.829
823.408
806.067
784.751
759.406
729.979
696.429
658.727
616.862
570.843
520.701
466.489
408.279
216.883
212.299
207.864
203.565
)


20
(
999.897
999.865
999.789
999.727
999.776
1000.07
1000.79
1002.12
1004.31
1007.6
1012.28
1018.6
1026.84
1037.25
1050.03
1065.33
1118.21
1120.11
1122
1123.91
)


20
(
1598.93
1597.8
1594.41
1588.72
1580.7
1570.29
1557.42
1541.99
1523.9
1503.01
1479.15
1452.15
1421.75
1387.7
1349.63
1307.17
1164.26
1161.52
1158.92
1156.47
)


20
(
2182.65
2180.43
2173.74
2162.47
2146.45
2125.43
2099.09
2067.06
2028.88
1984.04
1931.96
1871.97
1803.37
1725.36
1637.06
1537.55
1201.34
1194.01
1186.96
1180.21
)


20
(
2741.85
2738.57
2728.67
2711.96
2688.14
2656.78
2617.32
2569.11
2511.38
2443.22
2363.66
2271.59
2165.83
2045.09
1907.99
1753.08
1229.22
1217.42
1206.06
1195.13
)


20
(
3267.75
3263.45
3250.47
3228.56
3197.27
3156
3103.99
3040.3
2963.85
2873.4
2767.57
2644.84
2503.59
2342.06
2158.38
1950.62
1247.82
1231.76
1216.27
1201.35
)


20
(
3752.08
3746.83
3730.96
3704.15
3665.85
3615.29
3551.48
3473.27
3379.25
3267.89
3137.43
2985.97
2811.47
2611.74
2384.48
2127.3
1257.18
1237.13
1217.78
1199.12
)


20
(
4187.24
4181.11
4162.59
4131.28
4086.53
4027.42
3952.79
3861.24
3751.11
3620.56
3467.51
3289.73
3084.77
2850.07
2582.93
2280.54
1257.44
1233.74
1210.86
1188.77
)


20
(
4566.39
4559.47
4538.57
4503.24
4452.72
4385.96
4301.65
4198.16
4073.63
3925.94
3752.73
3551.44
3319.31
3053.44
2750.77
2408.13
1248.9
1221.94
1195.9
1170.76
)


20
(
4883.57
4875.97
4853.01
4814.19
4758.67
4685.3
4592.6
4478.79
4341.8
4179.29
3988.66
3767.09
3511.53
3218.79
2885.52
2508.25
1231.92
1202.15
1173.39
1145.62
)


20
(
5133.81
5125.64
5100.97
5059.26
4999.6
4920.74
4821.09
4698.74
4551.45
4376.7
4171.69
3933.38
3658.52
3343.66
2985.22
2579.5
1207.02
1174.94
1143.94
1113.99
)


20
(
5313.18
5304.57
5278.57
5234.61
5171.72
5088.6
4983.57
4854.6
4699.33
4515.12
4299
4047.79
3758.05
3426.19
3048.43
2620.91
1174.81
1140.95
1108.23
1076.61
)


20
(
5418.87
5409.95
5383.02
5337.49
5272.36
5186.28
5077.5
4943.94
4783.16
4592.42
4368.66
4108.58
3808.67
3465.19
3074.28
2631.96
1136
1100.92
1067.02
1034.25
)


20
(
5449.2
5440.11
5412.68
5366.28
5299.93
5212.23
5101.43
4965.39
4801.65
4607.42
4379.61
4114.87
3809.64
3460.14
3062.47
2612.62
1091.37
1055.65
1021.13
987.764
)


20
(
5403.7
5394.59
5367.07
5320.53
5253.99
5166.06
5054.97
4918.61
4754.51
4559.9
4331.7
4066.58
3760.98
3411.17
3013.25
2563.25
1041.75
1006
971.434
938.018
)


20
(
5283.07
5274.07
5246.89
5200.95
5135.25
5048.46
4938.84
4804.31
4642.47
4450.6
4225.68
3964.46
3663.46
3319.04
2927.39
2484.65
987.98
952.776
918.747
885.843
)


20
(
5089.16
5080.41
5054
5009.36
4945.54
4861.25
4754.81
4624.25
4467.24
4281.16
4063.14
3810.04
3518.54
3185.13
2806.18
2377.98
930.809
896.746
863.819
831.977
)


20
(
4824.96
4816.61
4791.37
4748.72
4687.76
4607.28
4505.7
4381.15
4231.45
4054.13
3846.5
3605.6
3328.31
3011.34
2651.29
2244.67
870.847
838.493
807.217
776.97
)


20
(
4494.55
4486.71
4463.03
4423.01
4365.86
4290.42
4195.26
4078.66
3938.61
3772.86
3578.9
3354.05
3095.43
2800.04
2464.75
2086.36
808.425
778.319
749.214
721.066
)


20
(
4102.97
4095.75
4073.98
4037.21
3984.7
3915.44
3828.15
3721.28
3593.03
3441.4
3264.15
3058.88
2823.03
2553.92
2248.78
1904.76
743.451
716.087
689.632
664.046
)


20
(
3656.24
3649.76
3630.21
3597.2
3550.1
3488.02
3409.87
3314.29
3199.75
3064.5
2906.63
2724.06
2514.61
2275.96
2005.74
1701.5
675.221
651.037
627.656
605.043
)


20
(
3161.13
3155.47
3138.4
3109.59
3068.53
3014.48
2946.52
2863.56
2764.32
2647.35
2511.11
2353.87
2173.85
1969.17
1737.87
1477.99
602.216
581.579
561.628
542.332
)


20
(
2625.19
2620.42
2606.03
2581.77
2547.24
2501.86
2444.94
2375.61
2292.89
2195.69
2082.79
1952.91
1804.67
1636.65
1447.38
1235.36
522.042
505.231
488.98
473.261
)


20
(
2056.53
2052.69
2041.13
2021.65
1993.99
1957.75
1912.42
1857.42
1792.07
1715.62
1627.24
1526.07
1411.2
1281.65
1136.48
974.686
431.808
419.004
406.624
394.651
)


20
(
1463.96
1461.08
1452.42
1437.86
1417.26
1390.39
1356.97
1316.68
1269.15
1213.99
1150.77
1079.04
998.347
908.229
808.223
697.87
329.541
320.826
312.399
304.244
)


20
(
857.461
855.553
849.824
840.248
826.787
809.392
788.008
762.579
733.051
699.379
661.534
619.502
573.288
522.922
468.454
409.952
217.565
212.958
208.5
204.18
)


20
(
994.34
994.288
994.148
993.979
993.875
993.967
994.423
995.441
997.247
1000.09
1004.24
1009.95
1017.5
1027.12
1039.02
1053.35
1102.97
1104.79
1106.59
1108.41
)


20
(
1585.46
1584.32
1580.9
1575.17
1567.1
1556.62
1543.66
1528.13
1509.92
1488.88
1464.86
1437.67
1407.08
1372.8
1334.51
1291.82
1148.17
1145.4
1142.76
1140.29
)


20
(
2161.45
2159.24
2152.57
2141.34
2125.36
2104.41
2078.16
2046.23
2008.19
1963.51
1911.62
1851.87
1783.56
1705.89
1618.02
1519
1184.56
1177.26
1170.23
1163.51
)


20
(
2713.26
2710
2700.16
2683.56
2659.89
2628.72
2589.52
2541.63
2484.27
2416.58
2337.56
2246.15
2141.16
2021.32
1885.27
1731.58
1211.93
1200.22
1188.93
1178.08
)


20
(
3232.22
3227.95
3215.08
3193.33
3162.29
3121.35
3069.75
3006.57
2930.75
2841.04
2736.1
2614.43
2474.4
2314.3
2132.29
1926.44
1230.19
1214.27
1198.91
1184.12
)


20
(
3710.16
3704.95
3689.22
3662.65
3624.68
3574.56
3511.32
3433.81
3340.65
3230.3
3101.05
2951.03
2778.19
2580.4
2355.37
2100.75
1239.38
1219.52
1200.36
1181.88
)


20
(
4139.58
4133.5
4115.15
4084.14
4039.81
3981.26
3907.34
3816.65
3707.59
3578.31
3426.78
3250.76
3047.88
2815.58
2551.19
2251.97
1239.65
1216.19
1193.54
1171.68
)


20
(
4513.73
4506.87
4486.18
4451.19
4401.16
4335.07
4251.59
4149.14
4025.86
3879.67
3708.24
3509.04
3279.34
3016.29
2716.85
2377.92
1231.29
1204.61
1178.85
1153.98
)


20
(
4826.73
4819.2
4796.47
4758.04
4703.08
4630.46
4538.71
4426.07
4290.51
4129.7
3941.09
3721.87
3469.07
3179.51
2849.89
2476.8
1214.66
1185.22
1156.77
1129.3
)


20
(
5073.67
5065.59
5041.17
4999.89
4940.84
4862.8
4764.2
4643.14
4497.42
4324.54
4121.74
3886.02
3614.17
3302.8
2948.36
2547.21
1190.27
1158.54
1127.89
1098.27
)


20
(
5250.68
5242.16
5216.43
5172.93
5110.71
5028.47
4924.56
4796.97
4643.38
4461.17
4247.42
3998.99
3712.48
3384.34
3010.86
2588.22
1158.71
1125.23
1092.88
1061.61
)


20
(
5354.97
5346.15
5319.51
5274.46
5210.03
5124.87
5017.27
4885.17
4726.14
4537.5
4316.22
4059.06
3762.52
3422.95
3036.51
2599.3
1120.68
1086
1052.48
1020.09
)


20
(
5384.91
5375.92
5348.78
5302.88
5237.25
5150.5
5040.91
4906.36
4744.43
4552.35
4327.1
4065.35
3763.59
3418.1
3025.02
2580.41
1076.94
1041.64
1007.52
974.531
)


20
(
5340.01
5331
5303.77
5257.74
5191.93
5104.95
4995.08
4860.23
4697.95
4505.52
4279.89
4017.79
3715.69
3369.91
2976.62
2531.9
1028.31
992.968
958.807
925.779
)


20
(
5220.96
5212.06
5185.18
5139.73
5074.76
4988.92
4880.5
4747.47
4587.43
4397.71
4175.34
3917.1
3619.57
3279.14
2892.08
2454.55
975.58
940.789
907.159
874.639
)


20
(
5029.6
5020.95
4994.83
4950.67
4887.55
4804.18
4698.92
4569.8
4414.54
4230.56
4015.01
3764.81
3476.67
3147.13
2772.63
2349.49
919.49
885.829
853.289
821.821
)


20
(
4768.88
4760.61
4735.65
4693.45
4633.16
4553.55
4453.09
4329.92
4181.88
4006.56
3801.27
3563.13
3289.04
2975.76
2619.93
2218.12
860.618
828.647
797.739
767.848
)


20
(
4442.8
4435.04
4411.61
4372.03
4315.48
4240.86
4146.74
4031.42
3892.92
3729.01
3537.24
3314.95
3059.3
2767.33
2435.96
2062.05
799.274
769.523
740.761
712.944
)


20
(
4056.35
4049.22
4027.67
3991.28
3939.33
3870.81
3784.45
3678.74
3551.89
3401.93
3226.66
3023.7
2790.54
2524.53
2222.93
1882.95
735.352
708.309
682.165
656.879
)


20
(
3615.49
3609.07
3589.72
3557.05
3510.43
3449
3371.66
3277.1
3163.78
3029.99
2873.85
2693.31
2486.21
2250.27
1983.14
1682.44
668.153
644.249
621.141
598.79
)


20
(
3126.87
3121.26
3104.36
3075.83
3035.17
2981.67
2914.4
2832.28
2734.06
2618.33
2483.53
2327.99
2149.94
1947.53
1718.83
1461.91
596.184
575.782
556.059
536.982
)


20
(
2597.95
2593.22
2578.97
2554.93
2520.72
2475.78
2419.39
2350.73
2268.83
2172.59
2060.84
1932.29
1785.61
1619.38
1432.17
1222.49
517.104
500.479
484.406
468.861
)


20
(
2036.76
2032.95
2021.48
2002.17
1974.74
1938.8
1893.86
1839.34
1774.58
1698.82
1611.28
1511.07
1397.31
1269.06
1125.37
965.258
428.093
415.422
403.172
391.323
)


20
(
1451.97
1449.11
1440.5
1426.04
1405.58
1378.89
1345.71
1305.71
1258.54
1203.8
1141.07
1069.92
989.906
900.567
801.452
692.113
327.227
318.592
310.242
302.162
)


20
(
853.439
851.538
845.828
836.285
822.87
805.538
784.233
758.901
729.49
695.96
658.281
616.442
570.455
520.349
466.178
408.015
216.778
212.199
207.767
203.472
)


20
(
998.803
998.768
998.679
998.596
998.617
998.874
999.538
1000.81
1002.93
1006.14
1010.71
1016.92
1025.03
1035.28
1047.9
1063.01
1115.27
1117.16
1119.03
1120.92
)


20
(
1596.27
1595.14
1591.73
1586.04
1578.01
1567.59
1554.7
1539.25
1521.14
1500.22
1476.34
1449.3
1418.88
1384.78
1346.68
1304.18
1161.15
1158.4
1155.79
1153.34
)


20
(
2178.45
2176.23
2169.54
2158.28
2142.27
2121.27
2094.95
2062.94
2024.79
1979.99
1927.94
1868.01
1799.47
1721.53
1633.32
1533.91
1198.08
1190.75
1183.71
1176.97
)


20
(
2736.18
2732.9
2723.01
2706.33
2682.54
2651.22
2611.81
2563.67
2506.01
2437.95
2358.5
2266.57
2160.96
2040.41
1903.52
1748.85
1225.85
1214.07
1202.72
1191.81
)


20
(
3260.7
3256.41
3243.45
3221.57
3190.33
3149.13
3097.2
3033.62
2957.29
2866.99
2761.34
2638.82
2497.82
2336.57
2153.23
1945.86
1244.37
1228.34
1212.88
1197.99
)


20
(
3743.77
3738.52
3722.68
3695.92
3657.68
3607.21
3543.52
3465.44
3371.6
3260.44
3130.22
2979.05
2804.89
2605.54
2378.73
2122.06
1253.69
1233.68
1214.36
1195.74
)


20
(
4177.78
4171.66
4153.17
4121.93
4077.26
4018.26
3943.78
3852.39
3742.48
3612.18
3459.44
3282.01
3077.46
2843.24
2576.65
2274.89
1253.95
1230.3
1207.46
1185.42
)


20
(
4555.94
4549.03
4528.17
4492.91
4442.48
4375.86
4291.71
4188.43
4064.15
3916.76
3743.9
3543.03
3311.39
3046.08
2744.05
2402.15
1245.43
1218.53
1192.54
1167.46
)


20
(
4872.29
4864.7
4841.79
4803.04
4747.64
4674.41
4581.9
4468.32
4331.62
4169.45
3979.23
3758.12
3503.11
3211.01
2878.46
2502.02
1228.52
1198.81
1170.12
1142.4
)


20
(
5121.87
5113.72
5089.1
5047.47
4987.93
4909.24
4809.8
4687.7
4540.73
4366.35
4161.78
3923.99
3649.72
3335.55
2977.91
2573.1
1203.71
1171.7
1140.77
1110.89
)


20
(
5300.77
5292.18
5266.24
5222.36
5159.61
5076.67
4971.85
4843.16
4688.23
4504.41
4288.76
4038.1
3749.01
3417.88
3040.97
2614.42
1171.62
1137.84
1105.19
1073.64
)


20
(
5406.18
5397.28
5370.41
5324.97
5259.98
5174.09
5065.55
4932.27
4771.84
4581.51
4358.25
4098.75
3799.51
3456.81
3066.78
2625.48
1132.96
1097.96
1064.14
1031.44
)


20
(
5436.43
5427.37
5399.99
5353.69
5287.48
5199.98
5089.41
4953.67
4790.29
4596.48
4369.18
4105.04
3800.49
3451.79
3055.04
2606.22
1088.51
1052.87
1018.43
985.137
)


20
(
5391.05
5381.96
5354.5
5308.07
5241.67
5153.92
5043.08
4907.02
4743.28
4549.1
4321.41
4056.89
3751.99
3402.97
3005.97
2557.02
1039.08
1003.41
968.925
935.585
)


20
(
5270.73
5261.75
5234.64
5188.79
5123.24
5036.64
4927.25
4793.02
4631.54
4440.09
4215.68
3955.05
3654.75
3311.11
2920.38
2478.67
985.513
950.391
916.441
883.613
)


20
(
5077.33
5068.6
5042.25
4997.7
4934.03
4849.91
4743.71
4613.44
4456.77
4271.11
4053.58
3801.06
3510.22
3177.58
2799.51
2372.32
928.555
894.572
861.722
829.954
)


20
(
4813.83
4805.49
4780.3
4737.74
4676.92
4596.61
4495.25
4370.98
4221.6
4044.69
3837.52
3597.16
3320.51
3004.27
2645.06
2239.39
868.808
836.53
805.328
775.151
)


20
(
4484.27
4476.45
4452.82
4412.89
4355.85
4280.58
4185.63
4069.28
3929.54
3764.15
3570.63
3346.28
3088.26
2793.54
2459.03
2081.53
806.6
776.564
747.527
719.444
)


20
(
4093.71
4086.51
4064.79
4028.09
3975.69
3906.58
3819.47
3712.83
3584.86
3433.56
3256.7
3051.89
2816.58
2548.08
2243.64
1900.42
741.835
714.534
688.141
662.614
)


20
(
3648.15
3641.68
3622.17
3589.22
3542.22
3480.27
3402.28
3306.9
3192.6
3057.64
2900.12
2717.95
2508.97
2270.86
2001.25
1697.71
673.809
649.68
626.354
603.793
)


20
(
3154.33
3148.68
3131.64
3102.89
3061.9
3007.96
2940.14
2857.35
2758.31
2641.59
2505.63
2348.73
2169.1
1964.87
1734.09
1474.79
601.01
580.419
560.514
541.261
)


20
(
2619.78
2615.02
2600.65
2576.44
2541.97
2496.68
2439.87
2370.67
2288.11
2191.1
2078.43
1948.81
1800.88
1633.22
1444.35
1232.8
521.053
504.279
488.063
472.379
)


20
(
2052.6
2048.77
2037.22
2017.78
1990.17
1953.98
1908.73
1853.83
1788.59
1712.28
1624.07
1523.09
1408.44
1279.15
1134.27
972.809
431.063
418.285
405.931
393.982
)


20
(
1461.58
1458.7
1450.05
1435.52
1414.94
1388.11
1354.74
1314.5
1267.05
1211.97
1148.84
1077.23
996.669
906.705
806.876
696.723
329.077
320.377
311.965
303.825
)


20
(
856.662
854.756
849.03
839.461
826.009
808.627
787.259
761.848
732.344
698.7
660.888
618.894
572.725
522.411
468.001
409.567
217.407
212.806
208.353
204.038
)


20
(
998.803
998.768
998.679
998.596
998.617
998.874
999.538
1000.81
1002.93
1006.14
1010.71
1016.92
1025.03
1035.28
1047.9
1063.01
1115.27
1117.16
1119.03
1120.92
)


20
(
1596.27
1595.14
1591.73
1586.04
1578.01
1567.59
1554.7
1539.25
1521.14
1500.22
1476.34
1449.3
1418.88
1384.78
1346.68
1304.18
1161.15
1158.4
1155.79
1153.34
)


20
(
2178.45
2176.23
2169.54
2158.28
2142.27
2121.27
2094.95
2062.94
2024.79
1979.99
1927.94
1868.01
1799.47
1721.53
1633.32
1533.91
1198.08
1190.75
1183.71
1176.97
)


20
(
2736.18
2732.9
2723.01
2706.33
2682.54
2651.22
2611.81
2563.67
2506.01
2437.95
2358.5
2266.57
2160.96
2040.41
1903.52
1748.85
1225.85
1214.07
1202.72
1191.81
)


20
(
3260.7
3256.41
3243.45
3221.57
3190.33
3149.13
3097.2
3033.62
2957.29
2866.99
2761.34
2638.82
2497.82
2336.57
2153.23
1945.86
1244.37
1228.34
1212.88
1197.99
)


20
(
3743.76
3738.52
3722.68
3695.92
3657.68
3607.21
3543.52
3465.44
3371.6
3260.44
3130.22
2979.05
2804.89
2605.54
2378.73
2122.06
1253.69
1233.68
1214.36
1195.74
)


20
(
4177.78
4171.66
4153.17
4121.93
4077.26
4018.26
3943.78
3852.39
3742.48
3612.18
3459.44
3282.01
3077.46
2843.24
2576.65
2274.89
1253.95
1230.3
1207.46
1185.42
)


20
(
4555.94
4549.03
4528.17
4492.91
4442.48
4375.86
4291.71
4188.43
4064.15
3916.76
3743.9
3543.03
3311.39
3046.08
2744.05
2402.15
1245.43
1218.53
1192.54
1167.46
)


20
(
4872.29
4864.7
4841.79
4803.04
4747.64
4674.41
4581.9
4468.32
4331.62
4169.45
3979.22
3758.12
3503.11
3211.01
2878.46
2502.02
1228.52
1198.81
1170.12
1142.4
)


20
(
5121.87
5113.72
5089.1
5047.47
4987.93
4909.24
4809.8
4687.7
4540.73
4366.35
4161.78
3923.99
3649.72
3335.55
2977.91
2573.1
1203.71
1171.7
1140.77
1110.89
)


20
(
5300.77
5292.18
5266.24
5222.36
5159.61
5076.67
4971.85
4843.16
4688.23
4504.41
4288.76
4038.1
3749.01
3417.88
3040.97
2614.42
1171.62
1137.84
1105.19
1073.64
)


20
(
5406.18
5397.28
5370.41
5324.97
5259.98
5174.09
5065.55
4932.27
4771.84
4581.51
4358.25
4098.75
3799.51
3456.81
3066.78
2625.48
1132.96
1097.96
1064.14
1031.44
)


20
(
5436.43
5427.37
5399.99
5353.69
5287.48
5199.98
5089.41
4953.67
4790.29
4596.48
4369.18
4105.04
3800.49
3451.79
3055.03
2606.22
1088.51
1052.87
1018.43
985.137
)


20
(
5391.05
5381.96
5354.5
5308.07
5241.67
5153.92
5043.08
4907.02
4743.28
4549.1
4321.41
4056.89
3751.99
3402.97
3005.97
2557.02
1039.08
1003.41
968.925
935.585
)


20
(
5270.73
5261.75
5234.64
5188.79
5123.24
5036.64
4927.25
4793.02
4631.54
4440.09
4215.68
3955.05
3654.75
3311.11
2920.38
2478.67
985.513
950.391
916.441
883.613
)


20
(
5077.33
5068.6
5042.25
4997.7
4934.03
4849.91
4743.71
4613.44
4456.77
4271.11
4053.58
3801.06
3510.22
3177.58
2799.51
2372.32
928.555
894.572
861.722
829.954
)


20
(
4813.83
4805.49
4780.3
4737.74
4676.92
4596.61
4495.25
4370.98
4221.6
4044.69
3837.52
3597.16
3320.51
3004.27
2645.06
2239.39
868.808
836.53
805.328
775.151
)


20
(
4484.27
4476.45
4452.82
4412.89
4355.85
4280.58
4185.63
4069.28
3929.54
3764.15
3570.63
3346.28
3088.26
2793.54
2459.03
2081.53
806.6
776.564
747.527
719.444
)


20
(
4093.71
4086.51
4064.79
4028.09
3975.69
3906.58
3819.47
3712.83
3584.86
3433.56
3256.7
3051.89
2816.58
2548.08
2243.64
1900.42
741.835
714.534
688.141
662.614
)


20
(
3648.15
3641.68
3622.17
3589.22
3542.22
3480.27
3402.28
3306.9
3192.6
3057.64
2900.12
2717.95
2508.97
2270.86
2001.25
1697.71
673.809
649.68
626.354
603.793
)


20
(
3154.33
3148.68
3131.64
3102.89
3061.9
3007.96
2940.14
2857.35
2758.31
2641.59
2505.63
2348.73
2169.1
1964.87
1734.09
1474.79
601.01
580.419
560.514
541.261
)


20
(
2619.78
2615.02
2600.65
2576.44
2541.97
2496.68
2439.87
2370.67
2288.11
2191.1
2078.43
1948.81
1800.88
1633.22
1444.35
1232.8
521.053
504.279
488.063
472.379
)


20
(
2052.61
2048.77
2037.22
2017.78
1990.17
1953.98
1908.73
1853.83
1788.59
1712.28
1624.07
1523.09
1408.44
1279.15
1134.27
972.809
431.063
418.285
405.931
393.982
)


20
(
1461.58
1458.7
1450.05
1435.52
1414.94
1388.11
1354.74
1314.5
1267.05
1211.97
1148.84
1077.23
996.669
906.705
806.876
696.723
329.077
320.377
311.965
303.825
)


20
(
856.662
854.756
849.03
839.461
826.009
808.627
787.259
761.848
732.344
698.7
660.888
618.894
572.725
522.411
468.001
409.567
217.407
212.806
208.353
204.038
)


20
(
994.34
994.288
994.148
993.979
993.875
993.967
994.423
995.441
997.247
1000.09
1004.24
1009.95
1017.5
1027.12
1039.02
1053.35
1102.97
1104.79
1106.59
1108.41
)


20
(
1585.46
1584.32
1580.9
1575.17
1567.1
1556.62
1543.66
1528.13
1509.92
1488.88
1464.86
1437.67
1407.08
1372.8
1334.51
1291.82
1148.18
1145.4
1142.76
1140.29
)


20
(
2161.45
2159.24
2152.57
2141.34
2125.36
2104.41
2078.16
2046.23
2008.19
1963.51
1911.62
1851.87
1783.56
1705.89
1618.02
1519
1184.56
1177.26
1170.23
1163.51
)


20
(
2713.27
2710
2700.16
2683.56
2659.89
2628.72
2589.52
2541.63
2484.27
2416.58
2337.56
2246.15
2141.16
2021.32
1885.27
1731.58
1211.93
1200.22
1188.93
1178.08
)


20
(
3232.22
3227.95
3215.08
3193.33
3162.29
3121.35
3069.75
3006.57
2930.75
2841.04
2736.1
2614.43
2474.4
2314.3
2132.29
1926.44
1230.19
1214.27
1198.91
1184.12
)


20
(
3710.16
3704.95
3689.22
3662.65
3624.68
3574.56
3511.32
3433.81
3340.65
3230.3
3101.05
2951.03
2778.19
2580.4
2355.37
2100.75
1239.38
1219.52
1200.36
1181.88
)


20
(
4139.58
4133.5
4115.15
4084.14
4039.81
3981.26
3907.34
3816.65
3707.59
3578.31
3426.78
3250.77
3047.88
2815.58
2551.19
2251.97
1239.65
1216.2
1193.54
1171.68
)


20
(
4513.73
4506.87
4486.18
4451.19
4401.16
4335.07
4251.59
4149.14
4025.86
3879.67
3708.24
3509.03
3279.34
3016.28
2716.85
2377.92
1231.29
1204.61
1178.85
1153.98
)


20
(
4826.73
4819.2
4796.47
4758.04
4703.08
4630.46
4538.71
4426.07
4290.51
4129.7
3941.09
3721.87
3469.07
3179.51
2849.89
2476.8
1214.66
1185.22
1156.77
1129.3
)


20
(
5073.67
5065.59
5041.17
4999.89
4940.84
4862.8
4764.2
4643.14
4497.42
4324.54
4121.74
3886.02
3614.17
3302.8
2948.36
2547.21
1190.27
1158.54
1127.89
1098.27
)


20
(
5250.68
5242.16
5216.43
5172.93
5110.71
5028.47
4924.56
4796.97
4643.38
4461.17
4247.42
3998.99
3712.48
3384.34
3010.86
2588.22
1158.71
1125.23
1092.88
1061.61
)


20
(
5354.97
5346.15
5319.51
5274.46
5210.03
5124.87
5017.27
4885.16
4726.14
4537.5
4316.22
4059.06
3762.52
3422.95
3036.51
2599.3
1120.68
1086
1052.48
1020.09
)


20
(
5384.91
5375.92
5348.78
5302.88
5237.25
5150.5
5040.91
4906.36
4744.43
4552.35
4327.1
4065.35
3763.59
3418.1
3025.02
2580.41
1076.94
1041.64
1007.52
974.532
)


20
(
5340.01
5331
5303.77
5257.74
5191.93
5104.95
4995.08
4860.23
4697.95
4505.52
4279.89
4017.79
3715.69
3369.91
2976.62
2531.9
1028.31
992.968
958.808
925.779
)


20
(
5220.96
5212.06
5185.18
5139.73
5074.76
4988.91
4880.5
4747.47
4587.43
4397.71
4175.34
3917.1
3619.57
3279.14
2892.08
2454.55
975.581
940.79
907.159
874.639
)


20
(
5029.6
5020.95
4994.83
4950.67
4887.55
4804.18
4698.92
4569.8
4414.54
4230.56
4015.01
3764.81
3476.67
3147.13
2772.63
2349.49
919.491
885.829
853.289
821.821
)


20
(
4768.88
4760.61
4735.65
4693.45
4633.16
4553.55
4453.09
4329.92
4181.88
4006.56
3801.27
3563.13
3289.04
2975.76
2619.93
2218.12
860.619
828.647
797.74
767.849
)


20
(
4442.8
4435.04
4411.61
4372.03
4315.48
4240.86
4146.74
4031.42
3892.92
3729.01
3537.24
3314.95
3059.3
2767.33
2435.96
2062.05
799.274
769.523
740.761
712.944
)


20
(
4056.35
4049.22
4027.67
3991.28
3939.33
3870.81
3784.45
3678.74
3551.89
3401.93
3226.66
3023.7
2790.54
2524.53
2222.93
1882.95
735.353
708.309
682.165
656.879
)


20
(
3615.49
3609.07
3589.72
3557.05
3510.43
3449
3371.66
3277.1
3163.78
3029.99
2873.85
2693.31
2486.21
2250.27
1983.14
1682.44
668.153
644.25
621.141
598.79
)


20
(
3126.87
3121.26
3104.35
3075.83
3035.17
2981.67
2914.4
2832.28
2734.06
2618.33
2483.53
2327.99
2149.94
1947.53
1718.83
1461.91
596.184
575.783
556.059
536.983
)


20
(
2597.95
2593.22
2578.97
2554.93
2520.72
2475.78
2419.39
2350.73
2268.83
2172.59
2060.84
1932.3
1785.61
1619.39
1432.17
1222.49
517.104
500.479
484.406
468.862
)


20
(
2036.76
2032.95
2021.48
2002.17
1974.74
1938.8
1893.86
1839.34
1774.58
1698.82
1611.28
1511.07
1397.31
1269.06
1125.37
965.258
428.094
415.423
403.172
391.323
)


20
(
1451.97
1449.11
1440.5
1426.04
1405.58
1378.89
1345.71
1305.71
1258.54
1203.8
1141.07
1069.92
989.906
900.567
801.452
692.113
327.227
318.592
310.242
302.162
)


20
(
853.44
851.538
845.828
836.285
822.87
805.538
784.233
758.901
729.49
695.96
658.281
616.442
570.455
520.349
466.178
408.015
216.778
212.199
207.767
203.472
)


20
(
999.897
999.865
999.789
999.727
999.776
1000.07
1000.79
1002.12
1004.31
1007.6
1012.28
1018.6
1026.84
1037.25
1050.03
1065.33
1118.21
1120.11
1122
1123.91
)


20
(
1598.93
1597.8
1594.41
1588.72
1580.7
1570.29
1557.42
1541.99
1523.9
1503.01
1479.15
1452.15
1421.75
1387.7
1349.63
1307.17
1164.26
1161.52
1158.92
1156.47
)


20
(
2182.65
2180.43
2173.74
2162.47
2146.45
2125.43
2099.09
2067.06
2028.88
1984.04
1931.96
1871.97
1803.37
1725.36
1637.06
1537.55
1201.34
1194.01
1186.96
1180.21
)


20
(
2741.85
2738.57
2728.67
2711.96
2688.14
2656.78
2617.32
2569.12
2511.38
2443.22
2363.66
2271.59
2165.83
2045.09
1907.99
1753.08
1229.22
1217.42
1206.06
1195.13
)


20
(
3267.75
3263.45
3250.47
3228.56
3197.27
3156
3103.99
3040.3
2963.85
2873.4
2767.57
2644.84
2503.59
2342.06
2158.38
1950.62
1247.82
1231.76
1216.27
1201.35
)


20
(
3752.08
3746.83
3730.96
3704.15
3665.85
3615.29
3551.48
3473.27
3379.25
3267.89
3137.43
2985.97
2811.47
2611.74
2384.48
2127.3
1257.18
1237.13
1217.78
1199.12
)


20
(
4187.24
4181.11
4162.59
4131.28
4086.53
4027.42
3952.79
3861.24
3751.11
3620.56
3467.51
3289.73
3084.77
2850.07
2582.93
2280.54
1257.44
1233.74
1210.86
1188.77
)


20
(
4566.39
4559.47
4538.57
4503.24
4452.72
4385.96
4301.65
4198.16
4073.63
3925.94
3752.73
3551.44
3319.31
3053.44
2750.77
2408.13
1248.9
1221.94
1195.9
1170.76
)


20
(
4883.57
4875.97
4853.01
4814.19
4758.67
4685.3
4592.6
4478.79
4341.8
4179.29
3988.66
3767.09
3511.53
3218.79
2885.52
2508.25
1231.92
1202.15
1173.39
1145.62
)


20
(
5133.81
5125.64
5100.97
5059.26
4999.6
4920.74
4821.09
4698.74
4551.45
4376.7
4171.69
3933.38
3658.52
3343.66
2985.22
2579.5
1207.02
1174.94
1143.94
1113.99
)


20
(
5313.18
5304.57
5278.57
5234.61
5171.72
5088.6
4983.57
4854.6
4699.33
4515.12
4299
4047.79
3758.05
3426.19
3048.43
2620.91
1174.81
1140.95
1108.23
1076.61
)


20
(
5418.86
5409.95
5383.02
5337.49
5272.36
5186.28
5077.5
4943.94
4783.16
4592.42
4368.66
4108.58
3808.67
3465.19
3074.28
2631.96
1136
1100.92
1067.02
1034.25
)


20
(
5449.2
5440.11
5412.68
5366.28
5299.93
5212.23
5101.43
4965.39
4801.65
4607.42
4379.61
4114.87
3809.64
3460.14
3062.47
2612.62
1091.37
1055.65
1021.13
987.764
)


20
(
5403.7
5394.59
5367.07
5320.53
5253.99
5166.06
5054.97
4918.61
4754.51
4559.9
4331.7
4066.58
3760.98
3411.16
3013.25
2563.25
1041.75
1006
971.434
938.018
)


20
(
5283.07
5274.07
5246.89
5200.95
5135.25
5048.46
4938.84
4804.31
4642.47
4450.6
4225.68
3964.46
3663.46
3319.04
2927.39
2484.65
987.98
952.776
918.747
885.843
)


20
(
5089.16
5080.41
5054
5009.36
4945.54
4861.25
4754.81
4624.25
4467.24
4281.16
4063.14
3810.04
3518.54
3185.13
2806.18
2377.98
930.809
896.746
863.819
831.977
)


20
(
4824.96
4816.61
4791.37
4748.72
4687.76
4607.28
4505.7
4381.15
4231.45
4054.13
3846.5
3605.6
3328.31
3011.34
2651.29
2244.67
870.847
838.493
807.217
776.97
)


20
(
4494.55
4486.71
4463.03
4423.01
4365.85
4290.42
4195.26
4078.66
3938.61
3772.86
3578.9
3354.05
3095.43
2800.04
2464.74
2086.36
808.425
778.319
749.214
721.066
)


20
(
4102.97
4095.75
4073.98
4037.21
3984.7
3915.44
3828.15
3721.28
3593.03
3441.4
3264.15
3058.88
2823.03
2553.92
2248.78
1904.76
743.451
716.087
689.632
664.046
)


20
(
3656.24
3649.76
3630.21
3597.2
3550.1
3488.02
3409.87
3314.29
3199.75
3064.5
2906.63
2724.06
2514.61
2275.96
2005.74
1701.5
675.221
651.037
627.656
605.043
)


20
(
3161.13
3155.47
3138.4
3109.59
3068.53
3014.48
2946.52
2863.56
2764.32
2647.35
2511.1
2353.87
2173.85
1969.17
1737.87
1477.99
602.216
581.579
561.628
542.332
)


20
(
2625.19
2620.42
2606.03
2581.77
2547.24
2501.87
2444.94
2375.61
2292.89
2195.69
2082.79
1952.91
1804.67
1636.65
1447.38
1235.36
522.042
505.231
488.98
473.261
)


20
(
2056.53
2052.69
2041.13
2021.66
1993.99
1957.75
1912.42
1857.42
1792.07
1715.62
1627.24
1526.08
1411.2
1281.65
1136.48
974.686
431.808
419.004
406.624
394.651
)


20
(
1463.96
1461.08
1452.42
1437.86
1417.26
1390.39
1356.97
1316.68
1269.15