/*--------------------------------*- C++ -*----------------------------------*\
| =========                 |                                                 |
| \\      /  F ield         | OpenFOAM: The Open Source CFD Toolbox           |
|  \\    /   O peration     | Version:  2212                                  |
|   \\  /    A nd           | Website:  www.openfoam.com                      |
|    \\/     M anipulation  |                                                 |
\*---------------------------------------------------------------------------*/
FoamFile
{
    version     2.0;
    format      ascii;
    arch        "LSB;label=32;scalar=64";
    class       volVectorField;
    location    "14/fluidRegion";
    object      U;
}
// * * * * * * * * * * * * * * * * * * * * * * * * * * * * * * * * * * * * * //

dimensions      [0 1 -1 0 0 0 0];

internalField   nonuniform List<vector> 
350
(
(6.60686e-11 3.81446e-11 -14.9235)
(1.03531e-10 5.97736e-11 -14.9222)
(1.33239e-10 7.69253e-11 -14.921)
(1.83344e-10 1.05853e-10 -14.9198)
(2.57952e-10 1.48928e-10 -14.9186)
(3.71593e-10 2.14538e-10 -14.9174)
(5.37256e-10 3.10184e-10 -14.9162)
(7.73906e-10 4.46813e-10 -14.9149)
(1.11629e-09 6.4449e-10 -14.9137)
(1.60186e-09 9.2483e-10 -14.9125)
(2.28498e-09 1.31923e-09 -14.9113)
(3.23545e-09 1.86798e-09 -14.9101)
(4.54004e-09 2.62118e-09 -14.9089)
(6.30293e-09 3.63899e-09 -14.9077)
(8.63709e-09 4.98661e-09 -14.9065)
(1.16462e-08 6.72391e-09 -14.9053)
(1.54076e-08 8.89555e-09 -14.904)
(1.99224e-08 1.15021e-08 -14.9029)
(2.51248e-08 1.45058e-08 -14.9017)
(3.10029e-08 1.78995e-08 -14.9005)
(3.79628e-08 2.19178e-08 -14.8993)
(4.61091e-08 2.6621e-08 -14.8981)
(4.84629e-08 2.798e-08 -14.8969)
(6.32331e-09 3.65076e-09 -14.8958)
(-1.39012e-07 -8.02585e-08 -14.9476)
(6.60686e-11 3.81446e-11 -14.9235)
(1.03531e-10 5.97736e-11 -14.9222)
(1.33239e-10 7.69253e-11 -14.921)
(1.83344e-10 1.05853e-10 -14.9198)
(2.57952e-10 1.48928e-10 -14.9186)
(3.71593e-10 2.14538e-10 -14.9174)
(5.37256e-10 3.10184e-10 -14.9162)
(7.73906e-10 4.46813e-10 -14.9149)
(1.11629e-09 6.4449e-10 -14.9137)
(1.60186e-09 9.2483e-10 -14.9125)
(2.28498e-09 1.31923e-09 -14.9113)
(3.23545e-09 1.86798e-09 -14.9101)
(4.54004e-09 2.62118e-09 -14.9089)
(6.30293e-09 3.63899e-09 -14.9077)
(8.63709e-09 4.98661e-09 -14.9065)
(1.16462e-08 6.72391e-09 -14.9053)
(1.54076e-08 8.89555e-09 -14.904)
(1.99224e-08 1.15021e-08 -14.9029)
(2.51248e-08 1.45058e-08 -14.9017)
(3.10029e-08 1.78995e-08 -14.9005)
(3.79628e-08 2.19178e-08 -14.8993)
(4.61091e-08 2.6621e-08 -14.8981)
(4.84629e-08 2.798e-08 -14.8969)
(6.32331e-09 3.65076e-09 -14.8958)
(-1.39012e-07 -8.02585e-08 -14.9476)
(-0.000813835 -0.000469868 -239.842)
(-0.000818895 -0.000472789 -238.236)
(-0.000890921 -0.000514373 -235.555)
(-0.000760854 -0.000439279 -231.181)
(-0.000639528 -0.000369231 -225.203)
(-0.000514545 -0.000297072 -217.726)
(-0.000384959 -0.000222256 -208.874)
(-0.000247771 -0.00014305 -198.786)
(-0.000103014 -5.94749e-05 -187.618)
(5.06477e-05 2.92414e-05 -175.538)
(0.000205669 0.000118743 -162.733)
(0.000358819 0.000207164 -149.398)
(0.000500506 0.000288967 -135.743)
(0.000622566 0.000359438 -121.98)
(0.000717215 0.000414084 -108.324)
(0.000782226 0.000451618 -94.9811)
(0.000818356 0.000472478 -82.148)
(0.00083137 0.000479991 -70.0052)
(0.00082648 0.000477168 -58.718)
(0.000808566 0.000466825 -48.4387)
(0.000777003 0.000448603 -39.3089)
(0.000727277 0.000419893 -31.4601)
(0.000650809 0.000375744 -25.0113)
(0.000536404 0.000309693 -20.0611)
(0.000394334 0.000227669 -16.4858)
(-0.000700067 -0.000394573 -241.07)
(-0.000556308 -0.000302664 -239.473)
(-0.000661543 -0.000375214 -236.804)
(-0.000567682 -0.000328381 -232.427)
(-0.000480084 -0.000284974 -226.432)
(-0.000391077 -0.00023424 -218.928)
(-0.000298947 -0.000181836 -210.037)
(-0.000201761 -0.000123543 -199.899)
(-9.955e-05 -6.39577e-05 -188.67)
(1.01745e-05 1.78406e-06 -176.52)
(0.000118635 6.47218e-05 -163.636)
(0.000225459 0.000128601 -150.217)
(0.000323737 0.000185258 -136.472)
(0.000407248 0.000235534 -122.617)
(0.000471329 0.000272482 -108.868)
(0.000514192 0.000299276 -95.4347)
(0.000537226 0.000312387 -82.5152)
(0.000544037 0.000318025 -70.2923)
(0.000539135 0.000314361 -58.9326)
(0.000525629 0.000307104 -48.59)
(0.000504492 0.000292374 -39.4072)
(0.000473301 0.000272948 -31.5168)
(0.000428897 0.000245318 -25.038)
(0.000368686 0.00021121 -20.0697)
(0.000266392 0.000153478 -16.487)
(-0.00046312 -0.000580316 -239.641)
(-0.000484162 -0.000999367 -238.032)
(-0.000475494 -0.000897026 -235.352)
(-0.000403112 -0.00075278 -230.979)
(-0.000330139 -0.000614999 -225.003)
(-0.000256766 -0.000475268 -217.531)
(-0.000180752 -0.000329942 -208.686)
(-0.000100842 -0.000177481 -198.607)
(-1.70677e-05 -1.48646e-05 -187.449)
(7.20103e-05 0.000153349 -175.381)
(0.000158838 0.000328714 -162.588)
(0.000243219 0.000500779 -149.267)
(0.000319233 0.000661679 -135.626)
(0.000381659 0.00080021 -121.878)
(0.000427432 0.000909029 -108.236)
(0.000455425 0.000983498 -94.9081)
(0.000467564 0.00102592 -82.0885)
(0.000466777 0.00104104 -69.9582)
(0.000457119 0.00103605 -58.6822)
(0.000440494 0.00101421 -48.4127)
(0.000417402 0.000974477 -39.291)
(0.000384986 0.000906766 -31.4486)
(0.000338503 0.000794869 -25.0044)
(0.000274518 0.000611475 -20.0575)
(0.000192239 0.000455917 -16.4847)
(-0.000657449 -0.000379577 -240.797)
(-0.000928901 -0.0005363 -239.197)
(-0.000860733 -0.000496943 -236.525)
(-0.000724842 -0.000418486 -232.148)
(-0.000592736 -0.000342216 -226.156)
(-0.000459111 -0.000265067 -218.657)
(-0.000320323 -0.000184938 -209.775)
(-0.00017466 -0.00010084 -199.648)
(-2.02543e-05 -1.16938e-05 -188.432)
(0.000141119 8.14746e-05 -176.298)
(0.000305363 0.000176301 -163.432)
(0.000465996 0.000269042 -150.031)
(0.000614328 0.000354681 -136.306)
(0.000740139 0.000427318 -122.472)
(0.000836875 0.000483169 -108.744)
(0.000900988 0.000520184 -95.3315)
(0.000935028 0.000539837 -82.4316)
(0.000943846 0.000544928 -70.227)
(0.000934524 0.000539546 -58.8838)
(0.000910341 0.000525584 -48.5557)
(0.000870881 0.000502802 -39.385)
(0.000808274 0.000466656 -31.5041)
(0.000709332 0.000409532 -25.0322)
(0.000554937 0.000320392 -20.068)
(0.000405873 0.00023433 -16.4869)
(0.00065462 0.000377944 -240.797)
(0.000931082 0.000537559 -239.197)
(0.00085987 0.000496445 -236.525)
(0.000724534 0.000418309 -232.148)
(0.00059237 0.000342004 -226.156)
(0.000458908 0.00026495 -218.657)
(0.000320212 0.000184874 -209.775)
(0.000174485 0.000100738 -199.648)
(1.99294e-05 1.15062e-05 -188.432)
(-0.000141267 -8.15602e-05 -176.298)
(-0.000305732 -0.000176514 -163.432)
(-0.000466565 -0.000269371 -150.031)
(-0.000615141 -0.000355151 -136.306)
(-0.000741002 -0.000427817 -122.472)
(-0.000837745 -0.000483671 -108.744)
(-0.000901674 -0.00052058 -95.3315)
(-0.000935742 -0.000540249 -82.4316)
(-0.000944673 -0.000545406 -70.227)
(-0.00093546 -0.000540087 -58.8838)
(-0.000911243 -0.000526105 -48.5557)
(-0.000871911 -0.000503397 -39.385)
(-0.000808866 -0.000466998 -31.5041)
(-0.000709287 -0.000409506 -25.0322)
(-0.000554088 -0.000319902 -20.068)
(-0.00040482 -0.000233723 -16.4869)
(0.000730711 0.000117392 -239.641)
(0.00110708 -7.43148e-05 -238.032)
(0.00101307 -3.35906e-05 -235.352)
(0.000852985 -2.65124e-05 -230.979)
(0.000698139 -2.40993e-05 -225.004)
(0.000540327 -1.68888e-05 -217.531)
(0.000376842 -1.11905e-05 -208.686)
(0.0002043 -2.35864e-06 -198.607)
(2.17432e-05 5.57505e-06 -187.449)
(-0.000168994 1.46252e-05 -175.381)
(-0.000364135 2.61494e-05 -162.588)
(-0.000555879 4.05747e-05 -149.267)
(-0.000733065 5.41627e-05 -135.626)
(-0.000884683 7.07806e-05 -121.878)
(-0.00100157 8.47137e-05 -108.236)
(-0.00108039 9.9197e-05 -94.9081)
(-0.00112298 0.00010904 -82.0885)
(-0.00113606 0.00011839 -69.9582)
(-0.00112667 0.000123204 -58.6822)
(-0.00109965 0.000127443 -48.4126)
(-0.00105329 0.000125948 -39.2909)
(-0.000978223 0.000120213 -31.4486)
(-0.000857298 0.000103121 -25.0044)
(-0.000666165 6.75002e-05 -20.0575)
(-0.000490383 6.16056e-05 -16.4847)
(0.000693737 0.000418803 -241.07)
(0.00054667 0.000335323 -239.473)
(0.000655091 0.000389686 -236.804)
(0.000566182 0.000328627 -232.427)
(0.000482579 0.000270921 -226.432)
(0.000395087 0.000220027 -218.928)
(0.000303064 0.000165171 -210.037)
(0.000205334 0.000112221 -199.899)
(0.000102207 5.27159e-05 -188.67)
(-8.11009e-06 -7.21782e-06 -176.52)
(-0.000117388 -7.05612e-05 -163.636)
(-0.000224955 -0.000129386 -150.217)
(-0.000323753 -0.00018712 -136.472)
(-0.00040784 -0.000232733 -122.617)
(-0.000472326 -0.000270672 -108.868)
(-0.000515685 -0.000292907 -95.4347)
(-0.000539094 -0.000307229 -82.5152)
(-0.000546445 -0.000309063 -70.2923)
(-0.000541651 -0.000307768 -58.9326)
(-0.000528049 -0.000298973 -48.59)
(-0.000506025 -0.000289784 -39.4072)
(-0.000473479 -0.000272752 -31.5168)
(-0.000428128 -0.000250043 -25.038)
(-0.000367784 -0.000214599 -20.0697)
(-0.000265974 -0.000154241 -16.487)
(0.000818051 0.000472302 -239.842)
(0.000823672 0.000475547 -238.236)
(0.00089174 0.000514846 -235.555)
(0.000759882 0.000438718 -231.181)
(0.000636364 0.000367405 -225.203)
(0.000512143 0.000295686 -217.726)
(0.000381905 0.000220493 -208.874)
(0.000246073 0.00014207 -198.786)
(0.000100904 5.82568e-05 -187.618)
(-5.13196e-05 -2.96294e-05 -175.538)
(-0.000206846 -0.000119423 -162.733)
(-0.000358828 -0.000207169 -149.398)
(-0.000501065 -0.00028929 -135.743)
(-0.000621995 -0.000359109 -121.98)
(-0.000717137 -0.000414039 -108.324)
(-0.000781031 -0.000450928 -94.9811)
(-0.000817717 -0.000472109 -82.148)
(-0.000829852 -0.000479115 -70.0052)
(-0.000825743 -0.000476742 -58.718)
(-0.000807343 -0.000466119 -48.4387)
(-0.000777011 -0.000448607 -39.3089)
(-0.000727338 -0.000419928 -31.4601)
(-0.000651879 -0.000376362 -25.0113)
(-0.000536984 -0.000310028 -20.0611)
(-0.000394343 -0.000227674 -16.4858)
(0.000658246 0.000380037 -240.797)
(0.000928634 0.000536145 -239.197)
(0.000860458 0.000496784 -236.525)
(0.000724297 0.000418172 -232.148)
(0.000592037 0.000341812 -226.156)
(0.000458553 0.000264745 -218.657)
(0.000319868 0.000184675 -209.775)
(0.000174411 0.000100696 -199.648)
(1.99696e-05 1.15294e-05 -188.432)
(-0.000140895 -8.13453e-05 -176.298)
(-0.000305213 -0.000176214 -163.432)
(-0.000465825 -0.000268943 -150.031)
(-0.000614185 -0.000354599 -136.306)
(-0.000739892 -0.000427176 -122.472)
(-0.000836468 -0.000482934 -108.744)
(-0.000900319 -0.000519798 -95.3315)
(-0.000934249 -0.000539387 -82.4316)
(-0.000943139 -0.00054452 -70.227)
(-0.000933859 -0.000539162 -58.8838)
(-0.000909747 -0.000525241 -48.5557)
(-0.000870506 -0.000502585 -39.385)
(-0.000807767 -0.000466363 -31.5041)
(-0.00070864 -0.000409132 -25.0322)
(-0.000553817 -0.000319745 -20.068)
(-0.000404861 -0.000233746 -16.4869)
(0.000457572 0.000586937 -239.641)
(0.000476072 0.00100805 -238.032)
(0.000470537 0.000901621 -235.352)
(0.000402297 0.000752991 -230.979)
(0.000332508 0.000611446 -225.003)
(0.000260332 0.000471072 -217.531)
(0.000184391 0.000325416 -208.686)
(0.000104022 0.000174039 -198.607)
(1.94552e-05 1.19179e-05 -187.449)
(-6.99884e-05 -0.000155137 -175.381)
(-0.000157553 -0.000330133 -162.588)
(-0.000242609 -0.00050109 -149.267)
(-0.000319097 -0.000661829 -135.626)
(-0.000382026 -0.000799381 -121.878)
(-0.000428077 -0.000908093 -108.236)
(-0.000456423 -0.000981653 -94.9081)
(-0.000468806 -0.00102404 -82.0885)
(-0.000468518 -0.00103837 -69.9582)
(-0.000458903 -0.00103368 -58.6822)
(-0.000442215 -0.00101174 -48.4127)
(-0.000418389 -0.000973254 -39.2909)
(-0.000384802 -0.000906544 -31.4486)
(-0.000337372 -0.000795726 -25.0044)
(-0.000273148 -0.000612072 -20.0575)
(-0.00019135 -0.000455884 -16.4847)
(-0.000729991 -9.89161e-05 -239.641)
(-0.00110693 9.92717e-05 -238.032)
(-0.00101378 4.39246e-05 -235.352)
(-0.000853417 2.66939e-05 -230.979)
(-0.000698895 1.30884e-05 -225.004)
(-0.000540307 6.62749e-06 -217.531)
(-0.000377257 -1.46351e-06 -208.686)
(-0.000204052 -5.60541e-06 -198.607)
(-2.20503e-05 -1.42029e-05 -187.449)
(0.000169352 -1.80888e-05 -175.381)
(0.00036394 -3.06609e-05 -162.588)
(0.000556236 -4.07821e-05 -149.267)
(0.000732869 -5.59001e-05 -135.626)
(0.00088506 -6.84609e-05 -121.878)
(0.00100146 -8.36982e-05 -108.236)
(0.00108088 -9.41046e-05 -94.9081)
(0.00112298 -0.0001054 -82.0885)
(0.00113652 -0.00011145 -69.9582)
(0.00112662 -0.000118586 -58.6822)
(0.00110002 -0.000121167 -48.4126)
(0.00105316 -0.000124343 -39.2909)
(0.000978519 -0.00011986 -31.4486)
(0.00085727 -0.000106796 -25.0044)
(0.000666548 -6.98023e-05 -20.0575)
(0.000490812 -6.18814e-05 -16.4847)
(-0.000649164 -0.000374794 -240.797)
(-0.000925215 -0.000534172 -239.197)
(-0.000857847 -0.000495277 -236.525)
(-0.000725011 -0.000418584 -232.148)
(-0.000595767 -0.000343965 -226.156)
(-0.000461684 -0.000266553 -218.657)
(-0.000323693 -0.000186884 -209.775)
(-0.000176407 -0.000101849 -199.648)
(-2.23242e-05 -1.28889e-05 -188.432)
(0.000140747 8.126e-05 -176.298)
(0.00030465 0.000175889 -163.432)
(0.00046679 0.000269501 -150.031)
(0.000614692 0.000354892 -136.306)
(0.000741869 0.000428317 -122.472)
(0.000838147 0.000483903 -108.744)
(0.000903523 0.000521648 -95.3315)
(0.000937058 0.000541009 -82.4316)
(0.000946956 0.000546724 -70.227)
(0.000936906 0.000540921 -58.8838)
(0.000913282 0.000527283 -48.5557)
(0.000872445 0.000503705 -39.385)
(0.000809458 0.00046734 -31.5041)
(0.000708848 0.000409253 -25.0322)
(0.000554456 0.000320114 -20.068)
(0.00040554 0.000234138 -16.4869)
)
;

boundaryField
{
    outletCentralUnloaded
    {
        type            zeroGradient;
    }
    inletCentralUnloaded
    {
        type            fixedValue;
        value           uniform (0 0 -15);
    }
    outletFuelElement
    {
        type            zeroGradient;
    }
    inletFuelElement
    {
        type            fixedValue;
        value           uniform (0 0 -15);
    }
    defaultFaces
    {
        type            slip;
    }
    baffle_master
    {
        type            slip;
    }
    baffle_slave
    {
        type            slip;
    }
}


// ************************************************************************* //
