/*--------------------------------*- C++ -*----------------------------------*\
| =========                 |                                                 |
| \\      /  F ield         | OpenFOAM: The Open Source CFD Toolbox           |
|  \\    /   O peration     | Version:  2212                                  |
|   \\  /    A nd           | Website:  www.openfoam.com                      |
|    \\/     M anipulation  |                                                 |
\*---------------------------------------------------------------------------*/
FoamFile
{
    version     2.0;
    format      ascii;
    arch        "LSB;label=32;scalar=64";
    class       volScalarField;
    location    "13/neutroRegion";
    object      TCool;
}
// * * * * * * * * * * * * * * * * * * * * * * * * * * * * * * * * * * * * * //

dimensions      [0 0 0 1 0 0 0];

internalField   nonuniform List<scalar> 
350
(
83.288
83.2885
83.289
83.2895
83.29
83.2905
83.291
83.2915
83.292
83.2926
83.2931
83.2936
83.2941
83.2946
83.2952
83.2957
83.2962
83.2967
83.2972
83.2977
83.2982
83.2987
83.2992
83.2997
83.3001
83.288
83.2885
83.289
83.2895
83.29
83.2905
83.291
83.2915
83.292
83.2926
83.2931
83.2936
83.2941
83.2946
83.2952
83.2957
83.2962
83.2967
83.2972
83.2977
83.2982
83.2987
83.2992
83.2997
83.3001
983.411
987.778
984.815
974.574
957.205
932.961
902.201
865.389
823.094
775.987
724.835
670.493
613.884
555.979
497.767
440.232
384.326
330.958
280.983
235.205
194.37
159.165
130.166
107.762
92.0904
994.458
999.153
996.399
986.245
968.84
944.436
913.394
876.182
833.374
785.651
733.792
678.667
621.218
562.437
503.336
444.924
388.174
334.013
283.316
236.898
195.519
159.874
130.545
107.919
92.1245
981.585
985.906
982.917
972.669
955.314
931.103
900.396
863.655
821.448
774.445
723.412
669.199
612.728
554.964
496.895
439.5
383.729
330.486
280.625
234.946
194.195
159.058
130.109
107.738
92.0849
991.977
996.592
993.785
983.606
966.204
941.831
910.849
873.724
831.03
783.444
731.743
676.795
619.536
560.954
502.057
443.845
387.288
333.31
282.778
236.507
195.254
159.711
130.457
107.883
92.1167
991.977
996.592
993.785
983.606
966.204
941.831
910.849
873.724
831.029
783.443
731.743
676.795
619.536
560.954
502.057
443.845
387.288
333.31
282.778
236.507
195.254
159.711
130.457
107.883
92.1167
981.585
985.907
982.917
972.67
955.314
931.103
900.396
863.655
821.449
774.446
723.412
669.199
612.728
554.965
496.896
439.501
383.73
330.487
280.625
234.946
194.195
159.058
130.109
107.738
92.0849
994.458
999.153
996.399
986.245
968.84
944.436
913.394
876.182
833.374
785.651
733.792
678.667
621.218
562.436
503.336
444.924
388.174
334.013
283.316
236.898
195.519
159.874
130.545
107.919
92.1245
983.411
987.778
984.815
974.574
957.205
932.961
902.201
865.389
823.094
775.987
724.835
670.493
613.884
555.979
497.767
440.232
384.326
330.958
280.983
235.205
194.37
159.165
130.166
107.762
92.0904
991.977
996.592
993.785
983.606
966.204
941.831
910.849
873.724
831.029
783.443
731.743
676.795
619.536
560.954
502.057
443.845
387.288
333.31
282.778
236.507
195.254
159.711
130.457
107.882
92.1167
981.585
985.906
982.917
972.669
955.314
931.103
900.396
863.655
821.448
774.445
723.412
669.199
612.728
554.964
496.895
439.5
383.729
330.486
280.625
234.946
194.195
159.058
130.109
107.738
92.0849
981.585
985.907
982.917
972.67
955.314
931.103
900.396
863.655
821.449
774.446
723.412
669.199
612.728
554.964
496.896
439.501
383.73
330.487
280.625
234.946
194.195
159.058
130.109
107.738
92.0849
991.977
996.591
993.785
983.606
966.204
941.831
910.849
873.724
831.029
783.443
731.743
676.795
619.536
560.954
502.057
443.845
387.288
333.31
282.778
236.507
195.254
159.711
130.457
107.882
92.1167
)
;

boundaryField
{
    outletCentralUnloaded
    {
        type            zeroGradient;
    }
    inletCentralUnloaded
    {
        type            zeroGradient;
    }
    outletFuelElement
    {
        type            zeroGradient;
    }
    inletFuelElement
    {
        type            zeroGradient;
    }
    defaultFaces
    {
        type            zeroGradient;
    }
}


// ************************************************************************* //
