/*--------------------------------*- C++ -*----------------------------------*\
| =========                 |                                                 |
| \\      /  F ield         | OpenFOAM: The Open Source CFD Toolbox           |
|  \\    /   O peration     | Version:  2212                                  |
|   \\  /    A nd           | Website:  www.openfoam.com                      |
|    \\/     M anipulation  |                                                 |
\*---------------------------------------------------------------------------*/
FoamFile
{
    version     2.0;
    format      ascii;
    arch        "LSB;label=32;scalar=64";
    class       surfaceScalarField;
    location    "38/fluidRegion";
    object      alphaPhi;
}
// * * * * * * * * * * * * * * * * * * * * * * * * * * * * * * * * * * * * * //

dimensions      [0 3 -1 0 0 0 0];

oriented        oriented;

internalField   nonuniform List<scalar> 
661
(
-0.000538948
-8.60839e-12
-0.000538905
-9.70044e-12
-0.000538862
-7.02103e-12
-0.00053882
-3.04156e-12
-0.000538779
1.08871e-12
-0.000538736
4.90376e-12
-0.000538694
8.32985e-12
-0.000538651
1.13201e-11
-0.000538606
1.36323e-11
-0.000538561
1.4787e-11
-0.000538514
1.43022e-11
-0.000538466
1.20204e-11
-0.000538416
8.24414e-12
-0.000538366
3.60952e-12
-0.000538315
-1.21807e-12
-0.000538265
-5.82819e-12
-0.000538216
-1.01461e-11
-0.000538168
-1.42484e-11
-0.000538122
-1.80518e-11
-0.000538078
-2.11418e-11
-0.000538036
-2.2974e-11
-0.000537996
-2.31912e-11
-0.000537957
-2.03841e-11
-0.00053792
-1.56047e-12
4.25042e-11
-0.000538948
-0.000538905
-0.000538862
-0.00053882
-0.000538779
-0.000538736
-0.000538694
-0.000538651
-0.000538606
-0.000538561
-0.000538514
-0.000538466
-0.000538416
-0.000538366
-0.000538315
-0.000538265
-0.000538216
-0.000538168
-0.000538122
-0.000538078
-0.000538036
-0.000537996
-0.000537957
-0.00053792
-0.02008
1.39592e-06
-0.0196631
6.77727e-07
-0.0191293
7.3754e-07
-0.0184877
6.6357e-07
-0.0177479
6.00563e-07
-0.0169197
5.41991e-07
-0.0160133
4.87578e-07
-0.0150393
4.34561e-07
-0.0140085
3.77233e-07
-0.0129319
3.06147e-07
-0.0118216
2.09723e-07
-0.0106903
7.65383e-08
-0.00955231
-9.61467e-08
-0.00842339
-2.94539e-07
-0.00732035
-4.96042e-07
-0.00626031
-6.67089e-07
-0.00525942
-7.8168e-07
-0.00433176
-8.33172e-07
-0.00348891
-8.35363e-07
-0.00274061
-8.12229e-07
-0.00209559
-7.85342e-07
-0.00156324
-7.59489e-07
-0.00115419
-7.23565e-07
-0.000879292
-6.27553e-07
-5.96036e-07
-0.0202085
-4.28181e-08
-3.96072e-08
-0.0197907
-1.78844e-07
-1.80532e-07
-0.0192549
-1.69028e-07
-1.6993e-07
-0.0186103
-1.46294e-07
-1.46912e-07
-0.0178668
-1.26685e-07
-1.27016e-07
-0.0170341
-1.08552e-07
-1.08905e-07
-0.0161226
-9.18474e-08
-9.22946e-08
-0.0151428
-7.59612e-08
-7.65212e-08
-0.0141055
-5.92883e-08
-5.99656e-08
-0.0130219
-3.92398e-08
-4.00664e-08
-0.011904
-1.20653e-08
-1.30799e-08
-0.0107647
2.53985e-08
2.41979e-08
-0.00961826
7.37094e-08
7.23669e-08
-0.00848062
1.33701e-07
1.32136e-07
-0.0073688
1.95411e-07
1.93582e-07
-0.00630018
2.49082e-07
2.47058e-07
-0.00529115
2.85953e-07
2.8378e-07
-0.00435604
3.03135e-07
3.00959e-07
-0.00350658
3.0455e-07
3.02449e-07
-0.00275262
2.97525e-07
2.95648e-07
-0.00210297
2.88698e-07
2.86889e-07
-0.00156706
2.78064e-07
2.7629e-07
-0.00115562
2.58825e-07
2.56765e-07
-0.000879485
2.04685e-07
2.02726e-07
1.55969e-07
1.54711e-07
-0.020059
6.94185e-07
-0.0196424
6.66376e-07
-0.019109
6.4163e-07
-0.0184679
5.70926e-07
-0.0177287
5.07589e-07
-0.0169013
4.49283e-07
-0.0159959
3.95016e-07
-0.0150229
3.41743e-07
-0.0139931
2.82887e-07
-0.0129177
2.08346e-07
-0.0118085
1.05525e-07
-0.0106785
-3.56811e-08
-0.00954193
-2.17665e-07
-0.00841438
-4.26676e-07
-0.00731272
-6.36054e-07
-0.00625402
-8.10386e-07
-0.00525438
-9.23219e-07
-0.00432788
-9.69162e-07
-0.00348604
-9.64196e-07
-0.00273859
-9.33796e-07
-0.00209427
-8.98937e-07
-0.00156244
-8.62734e-07
-0.00115375
-8.023e-07
-0.000879076
-6.64419e-07
-5.40461e-07
-0.0201799
3.82291e-09
-0.0197622
6.30383e-10
-0.0192268
9.05466e-10
-0.0185828
8.28056e-10
-0.01784
8.57678e-10
-0.0170083
8.43092e-10
-0.0160979
7.36482e-10
-0.0151194
6.74281e-10
-0.0140835
5.60729e-10
-0.0130015
3.86547e-10
-0.0118853
2.43422e-10
-0.0107478
1.24765e-10
-0.00960325
-3.48411e-11
-0.00846758
-1.93507e-10
-0.00735775
-3.97644e-10
-0.00629108
-6.09561e-10
-0.0052839
-7.51628e-10
-0.00435049
-7.67985e-10
-0.00350255
-7.7014e-10
-0.00274988
-7.10476e-10
-0.00210129
-6.01718e-10
-0.00156621
-5.92241e-10
-0.00115532
-6.78968e-10
-0.000879467
-5.95023e-10
-6.88224e-10
-0.0201799
-6.86344e-07
-0.0197622
-6.65484e-07
-0.0192268
-6.39901e-07
-0.0185829
-5.69297e-07
-0.0178401
-5.05879e-07
-0.0170083
-4.47578e-07
-0.016098
-3.93415e-07
-0.0151194
-3.40183e-07
-0.0140836
-2.81446e-07
-0.0130015
-2.07089e-07
-0.0118853
-1.04398e-07
-0.0107478
3.67174e-08
-0.00960326
2.18494e-07
-0.00846759
4.27287e-07
-0.00735776
6.36334e-07
-0.00629108
8.10294e-07
-0.00528391
9.2283e-07
-0.0043505
9.68612e-07
-0.00350255
9.63466e-07
-0.00274989
9.32956e-07
-0.0021013
8.98045e-07
-0.00156621
8.61685e-07
-0.00115532
8.00904e-07
-0.000879468
6.63089e-07
5.38855e-07
-0.020059
3.88653e-08
-0.0196424
1.79574e-07
-0.019109
1.69667e-07
-0.018468
1.47183e-07
-0.0177287
1.27877e-07
-0.0169013
1.09823e-07
-0.0159959
9.32532e-08
-0.0150229
7.74088e-08
-0.0139931
6.08271e-08
-0.0129177
4.07513e-08
-0.0118085
1.36642e-08
-0.0106786
-2.37838e-08
-0.00954194
-7.212e-08
-0.00841439
-1.32174e-07
-0.00731273
-1.94023e-07
-0.00625403
-2.47902e-07
-0.00525439
-2.84965e-07
-0.00432788
-3.02316e-07
-0.00348604
-3.03913e-07
-0.00273859
-2.97105e-07
-0.00209427
-2.88405e-07
-0.00156244
-2.77984e-07
-0.00115375
-2.58945e-07
-0.000879074
-2.04714e-07
-1.55119e-07
-0.0202085
-1.39619e-06
-4.39722e-08
-0.0197907
-6.77767e-07
-1.80577e-07
-0.0192549
-7.36977e-07
-1.70558e-07
-0.0186103
-6.62696e-07
-1.47512e-07
-0.0178668
-5.99316e-07
-1.27701e-07
-0.0170341
-5.40744e-07
-1.09549e-07
-0.0161226
-4.86255e-07
-9.28528e-08
-0.0151428
-4.33318e-07
-7.69993e-08
-0.0141055
-3.76012e-07
-6.03239e-08
-0.0130219
-3.05096e-07
-4.02472e-08
-0.011904
-2.08726e-07
-1.31144e-08
-0.0107647
-7.56741e-08
2.42508e-08
-0.00961826
9.68183e-08
7.2643e-08
-0.00848062
2.94982e-07
1.32625e-07
-0.0073688
4.96163e-07
1.94383e-07
-0.00630018
6.6686e-07
2.482e-07
-0.00529115
7.81142e-07
2.85261e-07
-0.00435604
8.32382e-07
3.02706e-07
-0.00350659
8.34273e-07
3.04542e-07
-0.00275262
8.10749e-07
2.98095e-07
-0.00210297
7.83341e-07
2.89767e-07
-0.00156706
7.56907e-07
2.79509e-07
-0.00115562
7.20133e-07
2.6048e-07
-0.000879485
6.24195e-07
2.06104e-07
5.92912e-07
1.5839e-07
-0.02008
-0.0196631
-0.0191293
-0.0184877
-0.0177479
-0.0169197
-0.0160133
-0.0150393
-0.0140085
-0.0129319
-0.0118216
-0.0106903
-0.00955231
-0.00842339
-0.00732035
-0.00626031
-0.00525942
-0.00433176
-0.00348891
-0.00274061
-0.00209559
-0.00156324
-0.00115419
-0.000879292
-0.0201799
-6.92813e-07
2.39487e-09
-0.0197622
-6.64376e-07
-1.32247e-09
-0.0192268
-6.39374e-07
-1.04856e-09
-0.0185828
-5.6853e-07
-1.15347e-09
-0.01784
-5.04961e-07
-1.27996e-09
-0.0170083
-4.46565e-07
-1.42423e-09
-0.0160979
-3.92245e-07
-1.51156e-09
-0.0151194
-3.38967e-07
-1.65444e-09
-0.0140835
-2.80125e-07
-1.77324e-09
-0.0130015
-2.0572e-07
-1.86077e-09
-0.0118853
-1.02908e-07
-2.01204e-09
-0.0107478
3.82039e-08
-2.13637e-09
-0.00960325
2.20034e-07
-2.2925e-09
-0.00846758
4.28895e-07
-2.45718e-09
-0.00735775
6.38077e-07
-2.59713e-09
-0.00629108
8.12193e-07
-2.70618e-09
-0.0052839
9.24971e-07
-2.88523e-09
-0.00435049
9.71026e-07
-3.1194e-09
-0.00350255
9.66315e-07
-3.37103e-09
-0.00274988
9.36273e-07
-3.56659e-09
-0.00210129
9.02066e-07
-3.91577e-09
-0.00156621
8.6624e-07
-3.94618e-09
-0.00115532
8.06116e-07
-3.90841e-09
-0.000879467
6.68134e-07
-3.42622e-09
5.44224e-07
-3.49721e-09
-0.020059
-0.0196424
-0.019109
-0.0184679
-0.0177287
-0.0169013
-0.0159959
-0.0150229
-0.0139931
-0.0129177
-0.0118085
-0.0106785
-0.00954193
-0.00841438
-0.00731272
-0.00625402
-0.00525438
-0.00432788
-0.00348604
-0.00273859
-0.00209427
-0.00156244
-0.00115375
-0.000879076
-0.020059
6.86867e-07
-0.0196424
6.66199e-07
-0.019109
6.41232e-07
-0.018468
5.7098e-07
-0.0177287
5.08075e-07
-0.0169013
4.49783e-07
-0.0159959
3.95693e-07
-0.0150229
3.42379e-07
-0.0139931
2.83653e-07
-0.0129177
2.09076e-07
-0.0118085
1.06357e-07
-0.0106786
-3.48884e-08
-0.00954194
-2.16788e-07
-0.00841439
-4.25838e-07
-0.00731273
-6.35232e-07
-0.00625403
-8.09603e-07
-0.00525439
-9.22453e-07
-0.00432788
-9.68433e-07
-0.00348604
-9.63511e-07
-0.00273859
-9.33249e-07
-0.00209427
-8.98777e-07
-0.00156244
-8.63216e-07
-0.00115375
-8.03467e-07
-0.000879074
-6.65952e-07
-5.40485e-07
-0.0201799
-0.0197622
-0.0192268
-0.0185829
-0.0178401
-0.0170083
-0.016098
-0.0151194
-0.0140836
-0.0130015
-0.0118853
-0.0107478
-0.00960326
-0.00846759
-0.00735776
-0.00629108
-0.00528391
-0.0043505
-0.00350255
-0.00274989
-0.0021013
-0.00156621
-0.00115532
-0.000879469
)
;

boundaryField
{
    outletCentralUnloaded
    {
        type            calculated;
        value           nonuniform List<scalar> 2(0.000538993 0.000538993);
    }
    inletCentralUnloaded
    {
        type            calculated;
        value           uniform -0.000540134;
    }
    outletFuelElement
    {
        type            calculated;
        value           nonuniform List<scalar> 
12
(
0.0204125
0.020544
0.0203919
0.0205146
0.0205146
0.0203919
0.020544
0.0204125
0.0205146
0.0203919
0.0203919
0.0205146
)
;
    }
    inletFuelElement
    {
        type            calculated;
        value           nonuniform List<scalar> 
12
(
-0.000722059
-0.00072206
-0.000722059
-0.000722059
-0.00072206
-0.000722059
-0.00072206
-0.000722059
-0.000722059
-0.000722059
-0.000722059
-0.00072206
)
;
    }
    defaultFaces
    {
        type            calculated;
        value           nonuniform List<scalar> 
450
(
2.48725e-23
-4.80858e-23
0
1.62766e-23
-1.31804e-24
0
2.20564e-23
-1.32012e-24
0
-4.86049e-23
-1.20118e-23
0
-1.65809e-23
-3.88698e-23
0
-4.34334e-23
-2.60216e-23
0
-2.85918e-23
-1.84523e-23
0
-3.30584e-23
-1.01199e-23
0
-1.829e-23
-8.10184e-24
0
-2.53681e-23
-3.58639e-24
0
-1.22286e-23
-5.90988e-24
0
-5.20504e-24
-2.29998e-24
0
6.01622e-24
5.58112e-25
0
2.00844e-23
1.30104e-23
0
3.00616e-23
1.51715e-23
0
4.97725e-23
7.64909e-24
0
3.44503e-23
-1.67269e-23
0
6.86965e-23
1.50801e-23
0
5.39926e-23
-2.47933e-23
0
-2.99589e-23
-6.67973e-24
0
-2.21803e-23
-2.45617e-23
0
2.32531e-23
-2.99418e-23
0
-2.05269e-23
1.9685e-23
0
-1.50122e-23
-1.71367e-24
0
-1.89681e-23
-2.78961e-23
0
2.80794e-23
0
2.40681e-23
0
0
0
2.40681e-23
0
-4.01135e-24
0
2.00567e-23
0
1.2034e-23
0
1.2034e-23
0
-6.01702e-24
0
8.0227e-24
0
4.51277e-24
0
-1.00284e-24
0
-8.0227e-24
0
-1.2034e-23
0
-8.0227e-24
0
-2.40681e-23
0
4.81362e-23
0
-3.20908e-23
0
1.60454e-23
0
-3.20908e-23
0
-3.20908e-23
0
5.61589e-23
0
8.0227e-24
0
-8.0227e-24
0
-1.60454e-23
0
0
0
-8.0227e-24
0
8.0227e-24
-8.0227e-24
-8.0227e-24
-8.0227e-24
1.2034e-23
-4.01135e-24
-2.00567e-24
5.01419e-25
4.01135e-24
0
8.0227e-24
1.60454e-23
-3.20908e-23
3.20908e-23
-3.20908e-23
1.60454e-23
0
-3.20908e-23
-3.20908e-23
-8.0227e-24
-8.0227e-24
0
0
0
0
0
0
0
0
0
0
0
0
0
0
0
0
0
0
0
0
0
0
0
0
0
-2.00567e-23
2.40681e-23
0
2.40681e-23
2.40681e-23
4.01135e-23
-1.60454e-23
-1.2034e-23
2.00567e-23
-8.0227e-24
-1.2034e-23
-1.2034e-23
-1.2034e-23
0
-4.01135e-24
-8.0227e-24
1.60454e-23
-8.0227e-24
-8.0227e-24
-4.01135e-24
-2.00567e-24
-2.00567e-24
0
1.75497e-24
8.0227e-24
8.0227e-24
1.60454e-23
1.2034e-23
1.60454e-23
8.0227e-24
1.60454e-23
2.40681e-23
-8.0227e-24
4.81362e-23
4.81362e-23
3.20908e-23
-8.0227e-23
4.81362e-23
-4.81362e-23
-3.20908e-23
-8.0227e-24
-2.40681e-23
-4.81362e-23
4.01135e-23
-1.60454e-23
-3.20908e-23
0
-2.80794e-23
-2.40681e-23
-2.00567e-23
2.20459e-23
0
-3.20908e-23
8.06857e-24
0
0
8.21411e-24
0
-6.41816e-23
-5.51548e-23
0
0
2.0873e-23
0
-8.0227e-24
-4.37504e-23
0
1.60454e-23
-4.32636e-23
0
1.60454e-23
-4.26857e-23
0
8.0227e-24
-2.01262e-23
0
-1.60454e-23
-2.71503e-23
0
8.0227e-24
-1.72472e-23
0
4.01135e-24
-6.52133e-24
0
3.00851e-24
8.01231e-24
-0
-2.00567e-24
2.6223e-23
-0
-8.0227e-24
4.22209e-23
-0
-1.60454e-23
5.17773e-23
-0
-8.0227e-24
4.00836e-23
-0
0
8.1543e-23
-0
0
4.93252e-23
-0
-4.81362e-23
-3.38792e-23
-0
3.20908e-23
7.54504e-26
-0
1.60454e-23
2.94642e-23
-0
1.60454e-23
-1.75727e-23
-0
1.60454e-23
-1.58967e-24
-0
2.40681e-23
-1.22378e-23
-0
1.60454e-23
0
8.0227e-24
0
-1.60454e-23
8.0227e-24
-8.0227e-24
0
0
0
0
-2.00567e-24
5.01419e-25
8.0227e-24
0
8.0227e-24
0
-4.81362e-23
3.20908e-23
-3.20908e-23
-1.60454e-23
0
-4.81362e-23
-3.20908e-23
1.60454e-23
0
3.81078e-23
0
1.60454e-23
0
0
0
2.40681e-23
0
-4.01135e-24
0
1.2034e-23
0
8.0227e-24
0
1.60454e-23
0
2.00567e-24
0
6.01702e-24
0
2.50709e-24
0
-2.00567e-24
0
-4.01135e-24
-0
-1.60454e-23
-0
0
-0
-2.40681e-23
-0
4.01135e-23
-0
-3.20908e-23
-0
4.81362e-23
-0
-3.20908e-23
-0
-4.81362e-23
-0
4.81362e-23
-0
0
-0
-3.20908e-23
-0
-1.60454e-23
-0
-2.00567e-23
-8.0227e-24
-1.60454e-23
2.40681e-23
-1.60454e-23
2.40681e-23
-8.0227e-24
-4.41248e-23
0
2.00567e-23
-1.60454e-23
-2.80794e-23
-1.2034e-23
-2.40681e-23
-1.2034e-23
-2.00567e-23
0
-1.2034e-23
-6.01702e-24
-1.40397e-23
-3.50993e-24
-4.01135e-24
1.00284e-24
4.88883e-24
4.01135e-24
2.00567e-23
8.0227e-24
3.61021e-23
1.60454e-23
5.61589e-23
2.40681e-23
7.22043e-23
0
4.81362e-23
1.60454e-23
9.62724e-23
-1.60454e-23
4.01135e-23
-1.60454e-23
-2.40681e-23
0
-3.20908e-23
-8.0227e-24
4.01135e-23
1.60454e-23
-2.40681e-23
0
-2.80794e-23
-8.0227e-24
-2.00567e-23
-0
-0
-0
-0
-0
-0
-0
-0
-0
-0
-0
0
0
0
0
0
0
0
0
0
0
0
0
0
0
)
;
    }
    baffle_master
    {
        type            calculated;
        value           nonuniform List<scalar> 
150
(
-4.72347e-29
0
0
-5.46596e-29
0
-1.83147e-28
6.7928e-29
0
-9.15735e-29
3.88336e-29
0
0
6.00215e-29
0
4.57867e-29
-4.44653e-29
0
-9.15735e-29
4.37879e-30
0
1.83147e-28
4.56652e-29
0
0
-3.25557e-29
0
0
3.90294e-29
0
0
1.3496e-28
0
0
5.85106e-29
0
-1.83147e-28
1.29139e-28
0
-1.83147e-28
-4.48167e-30
0
-4.57867e-29
-1.45467e-29
0
-2.28934e-29
1.8095e-30
0
0
1.13348e-27
0
3.66294e-28
3.47648e-30
0
-1.83147e-28
1.18074e-27
0
7.32588e-28
-1.5028e-29
0
3.66294e-28
-1.93915e-28
0
0
-1.38621e-27
0
-3.66294e-28
1.6055e-28
0
0
8.84028e-30
0
0
-6.20368e-28
0
0
0
-4.56224e-28
0
1.83147e-28
-3.00738e-28
0
9.15735e-29
-2.89617e-28
0
1.3736e-28
-9.11165e-29
0
0
-2.34153e-29
-0
-1.83147e-28
1.89943e-28
-0
0
2.36873e-28
-0
-3.66294e-28
2.18521e-28
-0
3.66294e-28
3.9037e-28
-0
-1.83147e-28
6.72683e-28
-0
-1.83147e-28
4.75639e-28
-0
0
3.98005e-28
-0
-1.83147e-28
2.37649e-28
-0
-4.57867e-29
1.35304e-28
-0
0
-1.92946e-29
0
0
-2.35778e-28
0
-3.66294e-28
-4.11063e-28
0
1.83147e-28
-5.75851e-28
0
-7.32588e-28
1.10894e-28
0
0
4.71636e-28
0
0
5.49748e-28
0
-7.32588e-28
1.29577e-27
0
0
-7.47446e-28
0
0
4.39885e-29
0
7.32588e-28
-8.51937e-28
-0
)
;
    }
    baffle_slave
    {
        type            calculated;
        value           nonuniform List<scalar> 
150
(
-5.01419e-24
-0
0
-4.88883e-24
-0
8.0227e-24
1.00911e-23
-0
-8.0227e-24
-7.75632e-25
-0
-8.0227e-24
-3.08216e-23
-0
-1.60454e-23
1.88032e-24
-0
-8.0227e-24
2.97717e-24
-0
8.0227e-24
6.87884e-24
-0
0
8.42227e-25
-0
-4.01135e-24
-2.78131e-25
-0
-4.01135e-24
0
-0
2.00567e-24
-2.82048e-25
0
0
-6.26773e-26
0
-4.01135e-24
-1.62961e-24
0
-8.0227e-24
-3.13387e-24
0
-8.0227e-24
-3.3219e-24
0
0
-5.68483e-23
0
-4.81362e-23
-2.13103e-24
0
0
-3.72303e-23
0
-4.81362e-23
6.58112e-24
0
0
2.69513e-24
0
0
2.9521e-23
0
1.60454e-23
1.25355e-25
0
0
1.00284e-24
0
0
-3.07119e-24
0
-1.60454e-23
2.41659e-24
6.01702e-23
0
1.02958e-24
1.39457e-23
0
-3.95358e-24
2.3739e-23
0
-1.179e-23
2.3786e-23
0
-2.48506e-24
-2.22191e-23
0
-8.012e-24
2.11223e-23
0
-8.7213e-24
1.30682e-23
0
-6.16867e-24
1.27235e-23
0
8.98973e-24
1.30369e-23
0
-6.26249e-24
1.05298e-23
0
-8.00631e-25
9.58963e-24
0
3.88299e-25
3.55694e-24
0
5.22256e-24
-6.42443e-25
0
1.49467e-23
-7.36459e-24
0
9.08497e-24
-1.12976e-23
0
1.01897e-23
-1.77063e-23
0
-2.69075e-23
-2.30261e-23
0
4.92283e-24
-2.27832e-23
0
-2.86173e-23
-2.64812e-24
0
-1.28195e-23
1.5732e-23
0
7.18828e-24
1.39144e-23
0
-1.5796e-23
2.9521e-23
0
-2.26443e-23
-2.21251e-23
0
-2.77371e-24
6.0797e-24
0
-2.89084e-24
1.3789e-23
0
)
;
    }
}


// ************************************************************************* //
