/*--------------------------------*- C++ -*----------------------------------*\
| =========                 |                                                 |
| \\      /  F ield         | OpenFOAM: The Open Source CFD Toolbox           |
|  \\    /   O peration     | Version:  2212                                  |
|   \\  /    A nd           | Website:  www.openfoam.com                      |
|    \\/     M anipulation  |                                                 |
\*---------------------------------------------------------------------------*/
FoamFile
{
    version     2.0;
    format      ascii;
    arch        "LSB;label=32;scalar=64";
    class       volScalarField;
    location    "38/fluidRegion";
    object      heatFlux.structure;
}
// * * * * * * * * * * * * * * * * * * * * * * * * * * * * * * * * * * * * * //

dimensions      [1 0 -3 0 0 0 0];

internalField   nonuniform List<scalar> 
350
(
-258302
-258306
-258309
-258313
-258317
-258321
-258325
-258328
-258331
-258334
-258336
-258337
-258338
-258339
-258339
-258340
-258341
-258342
-258344
-258347
-258350
-258355
-258359
-258365
-258802
-258302
-258306
-258309
-258313
-258317
-258321
-258325
-258328
-258331
-258334
-258336
-258337
-258338
-258339
-258339
-258340
-258341
-258342
-258344
-258347
-258350
-258355
-258359
-258365
-258802
406320
1.29752e+06
2.16777e+06
3.00335e+06
3.79111e+06
4.51863e+06
5.17445e+06
5.74823e+06
6.23095e+06
6.61499e+06
6.89433e+06
7.06457e+06
7.12304e+06
7.06883e+06
6.90279e+06
6.62756e+06
6.24746e+06
5.76847e+06
5.19813e+06
4.5455e+06
3.82088e+06
3.03597e+06
2.20355e+06
1.33763e+06
452152
410492
1.31191e+06
2.19214e+06
3.03731e+06
3.8341e+06
4.56997e+06
5.23332e+06
5.81369e+06
6.30196e+06
6.69043e+06
6.97299e+06
7.1452e+06
7.20436e+06
7.14954e+06
6.98163e+06
6.70327e+06
6.31885e+06
5.8344e+06
5.25755e+06
4.59747e+06
3.86456e+06
3.07066e+06
2.22871e+06
1.35287e+06
457259
405655
1.29523e+06
2.16389e+06
2.99794e+06
3.78426e+06
4.51045e+06
5.16507e+06
5.7378e+06
6.21963e+06
6.60298e+06
6.8818e+06
7.05173e+06
7.11009e+06
7.05597e+06
6.89023e+06
6.6155e+06
6.23609e+06
5.75797e+06
5.18866e+06
4.53722e+06
3.81393e+06
3.03044e+06
2.19955e+06
1.3352e+06
451339
409527
1.30859e+06
2.18652e+06
3.02949e+06
3.8242e+06
4.55815e+06
5.21976e+06
5.79862e+06
6.28561e+06
6.67306e+06
6.95488e+06
7.12664e+06
7.18564e+06
7.13096e+06
6.96348e+06
6.68584e+06
6.30241e+06
5.81923e+06
5.24387e+06
4.58551e+06
3.85451e+06
3.06268e+06
2.22292e+06
1.34936e+06
456084
409527
1.30859e+06
2.18652e+06
3.02949e+06
3.8242e+06
4.55815e+06
5.21976e+06
5.79862e+06
6.28561e+06
6.67306e+06
6.95488e+06
7.12664e+06
7.18564e+06
7.13096e+06
6.96348e+06
6.68584e+06
6.30241e+06
5.81923e+06
5.24387e+06
4.58551e+06
3.85451e+06
3.06268e+06
2.22292e+06
1.34936e+06
456084
405654
1.29523e+06
2.16389e+06
2.99795e+06
3.78426e+06
4.51045e+06
5.16507e+06
5.7378e+06
6.21963e+06
6.60298e+06
6.8818e+06
7.05173e+06
7.11009e+06
7.05597e+06
6.89023e+06
6.6155e+06
6.23609e+06
5.75797e+06
5.18866e+06
4.53722e+06
3.81392e+06
3.03044e+06
2.19955e+06
1.3352e+06
451339
410492
1.31191e+06
2.19214e+06
3.03731e+06
3.8341e+06
4.56997e+06
5.23332e+06
5.81369e+06
6.30196e+06
6.69043e+06
6.97299e+06
7.1452e+06
7.20436e+06
7.14954e+06
6.98163e+06
6.70327e+06
6.31885e+06
5.8344e+06
5.25755e+06
4.59747e+06
3.86456e+06
3.07066e+06
2.22871e+06
1.35287e+06
457259
406319
1.29752e+06
2.16777e+06
3.00335e+06
3.79111e+06
4.51863e+06
5.17445e+06
5.74823e+06
6.23095e+06
6.61499e+06
6.89433e+06
7.06457e+06
7.12304e+06
7.06882e+06
6.90279e+06
6.62756e+06
6.24746e+06
5.76847e+06
5.19813e+06
4.5455e+06
3.82088e+06
3.03597e+06
2.20356e+06
1.33763e+06
452152
409526
1.30859e+06
2.18652e+06
3.02949e+06
3.8242e+06
4.55815e+06
5.21976e+06
5.79862e+06
6.28561e+06
6.67306e+06
6.95488e+06
7.12664e+06
7.18564e+06
7.13096e+06
6.96348e+06
6.68584e+06
6.30241e+06
5.81923e+06
5.24387e+06
4.58551e+06
3.85451e+06
3.06268e+06
2.22292e+06
1.34936e+06
456084
405654
1.29523e+06
2.16389e+06
2.99794e+06
3.78426e+06
4.51045e+06
5.16507e+06
5.7378e+06
6.21963e+06
6.60298e+06
6.8818e+06
7.05173e+06
7.11009e+06
7.05597e+06
6.89023e+06
6.6155e+06
6.23609e+06
5.75797e+06
5.18866e+06
4.53722e+06
3.81392e+06
3.03044e+06
2.19955e+06
1.3352e+06
451339
405654
1.29523e+06
2.16389e+06
2.99794e+06
3.78426e+06
4.51045e+06
5.16507e+06
5.7378e+06
6.21963e+06
6.60298e+06
6.8818e+06
7.05173e+06
7.11009e+06
7.05597e+06
6.89023e+06
6.6155e+06
6.23609e+06
5.75797e+06
5.18866e+06
4.53722e+06
3.81392e+06
3.03044e+06
2.19955e+06
1.3352e+06
451339
409526
1.30859e+06
2.18652e+06
3.02949e+06
3.8242e+06
4.55815e+06
5.21976e+06
5.79862e+06
6.28561e+06
6.67306e+06
6.95488e+06
7.12664e+06
7.18564e+06
7.13096e+06
6.96348e+06
6.68584e+06
6.30241e+06
5.81923e+06
5.24387e+06
4.58551e+06
3.85451e+06
3.06268e+06
2.22292e+06
1.34936e+06
456084
)
;

boundaryField
{
    outletCentralUnloaded
    {
        type            zeroGradient;
    }
    inletCentralUnloaded
    {
        type            zeroGradient;
    }
    outletFuelElement
    {
        type            zeroGradient;
    }
    inletFuelElement
    {
        type            zeroGradient;
    }
    defaultFaces
    {
        type            zeroGradient;
    }
    baffle_master
    {
        type            zeroGradient;
    }
    baffle_slave
    {
        type            zeroGradient;
    }
}


// ************************************************************************* //
