/*--------------------------------*- C++ -*----------------------------------*\
| =========                 |                                                 |
| \\      /  F ield         | OpenFOAM: The Open Source CFD Toolbox           |
|  \\    /   O peration     | Version:  2212                                  |
|   \\  /    A nd           | Website:  www.openfoam.com                      |
|    \\/     M anipulation  |                                                 |
\*---------------------------------------------------------------------------*/
FoamFile
{
    version     2.0;
    format      ascii;
    arch        "LSB;label=32;scalar=64";
    class       volScalarField;
    location    "38/fluidRegion";
    object      htc;
}
// * * * * * * * * * * * * * * * * * * * * * * * * * * * * * * * * * * * * * //

dimensions      [1 0 -3 -1 0 0 0];

internalField   nonuniform List<scalar> 
350
(
3101.28
3101.3
3101.33
3101.36
3101.38
3101.41
3101.44
3101.46
3101.48
3101.49
3101.5
3101.5
3101.5
3101.49
3101.48
3101.48
3101.47
3101.47
3101.48
3101.49
3101.51
3101.54
3101.58
3101.63
3106.87
3101.28
3101.3
3101.33
3101.36
3101.38
3101.41
3101.44
3101.46
3101.48
3101.49
3101.5
3101.5
3101.5
3101.49
3101.48
3101.48
3101.47
3101.47
3101.48
3101.49
3101.51
3101.54
3101.58
3101.63
3106.87
27111.7
27034.3
26852.7
26546.1
26115.9
25564.3
24894.3
24109.6
23215.5
22219.2
21130.3
19961.3
18727.1
17444.6
16130.1
14797.3
13456.5
12115.7
10784.3
9478.41
8226.26
7074.33
6093.41
5376.28
4937.88
27199.8
27122.1
26941.2
26634.6
26204
25651.4
24979.7
24192.7
23295.4
22294.7
21200.2
20024.2
18782
17490.9
16167.9
14827.5
13480.3
12134.2
10798.2
9487.88
8231.18
7074.81
6090.38
5372.07
4935.93
27097.8
27019.9
26838.3
26531.8
26101.7
25550.3
24880.5
24096.2
23202.8
22207.2
21119.2
19951.3
18718.4
17437.3
16124
14792.3
13452.4
12112.4
10781.7
9476.41
8224.87
7073.51
6093
5376.01
4937.73
27180.3
27102.6
26921.5
26614.9
26184.3
25631.9
24960.6
24174
23277.4
22277.7
21184.4
20009.9
18769.6
17480.4
16159.3
14820.7
13474.9
12130
10795.1
9485.8
8230.15
7074.8
6091.18
5373.16
4936.44
27180.3
27102.6
26921.5
26614.9
26184.3
25631.9
24960.6
24174
23277.4
22277.7
21184.4
20009.9
18769.6
17480.4
16159.3
14820.7
13474.9
12130
10795.1
9485.8
8230.15
7074.8
6091.18
5373.16
4936.44
27097.8
27019.9
26838.4
26531.8
26101.7
25550.3
24880.5
24096.3
23202.8
22207.2
21119.2
19951.3
18718.4
17437.3
16124
14792.3
13452.4
12112.4
10781.7
9476.41
8224.87
7073.5
6092.99
5376
4937.73
27199.8
27122.1
26941.2
26634.6
26204
25651.4
24979.7
24192.7
23295.4
22294.7
21200.2
20024.2
18782
17490.9
16167.9
14827.5
13480.3
12134.2
10798.2
9487.88
8231.18
7074.81
6090.38
5372.07
4935.93
27111.7
27034.3
26852.7
26546.1
26115.9
25564.3
24894.3
24109.6
23215.5
22219.2
21130.3
19961.3
18727.1
17444.6
16130.1
14797.3
13456.5
12115.7
10784.3
9478.41
8226.26
7074.33
6093.41
5376.28
4937.88
27180.3
27102.6
26921.5
26614.9
26184.3
25631.9
24960.6
24174
23277.4
22277.7
21184.4
20009.9
18769.6
17480.4
16159.3
14820.7
13474.9
12130
10795.1
9485.8
8230.15
7074.8
6091.18
5373.16
4936.44
27097.8
27019.9
26838.3
26531.8
26101.7
25550.3
24880.5
24096.2
23202.8
22207.2
21119.2
19951.3
18718.4
17437.3
16124
14792.3
13452.4
12112.4
10781.7
9476.41
8224.87
7073.5
6093
5376.02
4937.73
27097.8
27019.9
26838.4
26531.8
26101.7
25550.3
24880.5
24096.3
23202.8
22207.2
21119.2
19951.3
18718.4
17437.3
16124
14792.3
13452.4
12112.4
10781.7
9476.41
8224.87
7073.5
6092.99
5376
4937.73
27180.3
27102.6
26921.5
26614.9
26184.3
25631.9
24960.6
24174
23277.4
22277.7
21184.4
20009.9
18769.6
17480.4
16159.3
14820.7
13474.9
12130
10795.1
9485.8
8230.15
7074.8
6091.18
5373.16
4936.45
)
;

boundaryField
{
    outletCentralUnloaded
    {
        type            zeroGradient;
    }
    inletCentralUnloaded
    {
        type            zeroGradient;
    }
    outletFuelElement
    {
        type            zeroGradient;
    }
    inletFuelElement
    {
        type            zeroGradient;
    }
    defaultFaces
    {
        type            zeroGradient;
    }
    baffle_master
    {
        type            zeroGradient;
    }
    baffle_slave
    {
        type            zeroGradient;
    }
}


// ************************************************************************* //
