/*--------------------------------*- C++ -*----------------------------------*\
| =========                 |                                                 |
| \\      /  F ield         | OpenFOAM: The Open Source CFD Toolbox           |
|  \\    /   O peration     | Version:  2212                                  |
|   \\  /    A nd           | Website:  www.openfoam.com                      |
|    \\/     M anipulation  |                                                 |
\*---------------------------------------------------------------------------*/
FoamFile
{
    version     2.0;
    format      ascii;
    arch        "LSB;label=32;scalar=64";
    class       volScalarField;
    location    "38/fluidRegion";
    object      k;
}
// * * * * * * * * * * * * * * * * * * * * * * * * * * * * * * * * * * * * * //

dimensions      [0 2 -2 0 0 0 0];

internalField   nonuniform List<scalar> 
350
(
0.421075
0.421004
0.420931
0.420858
0.420786
0.420716
0.420648
0.420582
0.420517
0.420454
0.420391
0.42033
0.420271
0.420218
0.420173
0.420141
0.420129
0.420148
0.420214
0.420351
0.420598
0.421012
0.42168
0.422738
0.424392
0.421075
0.421004
0.420931
0.420858
0.420786
0.420716
0.420648
0.420582
0.420517
0.420454
0.420391
0.42033
0.420271
0.420218
0.420173
0.420141
0.420129
0.420148
0.420214
0.420351
0.420598
0.421012
0.42168
0.422738
0.424392
401.293
379.249
354.108
326.352
296.761
266.108
235.137
204.548
174.976
146.985
121.052
97.5587
76.7789
58.8706
43.8678
31.6806
22.1072
14.858
9.58822
5.9322
3.53358
2.06598
1.24819
0.853257
0.713709
406.913
384.614
359.178
331.077
301.103
270.039
238.642
207.62
177.621
149.215
122.891
99.0347
77.9293
59.7375
44.4965
32.1172
22.3958
15.0382
9.69324
5.98838
3.56046
2.07705
1.25192
0.854276
0.714094
400.362
378.358
353.27
325.575
296.049
265.466
234.567
204.05
174.549
146.626
120.758
97.3227
76.5954
58.7326
43.7678
31.6111
22.0612
14.8291
9.57119
5.92287
3.5289
2.06385
1.24732
0.852915
0.713575
405.679
383.433
358.059
330.032
300.14
269.165
237.861
206.934
177.029
148.715
122.477
98.702
77.6694
59.5412
44.3539
32.018
22.3302
14.9972
9.6693
5.97558
3.55435
2.07455
1.2511
0.854065
0.71402
405.679
383.433
358.059
330.032
300.14
269.165
237.861
206.934
177.029
148.715
122.477
98.7021
77.6694
59.5413
44.3539
32.018
22.3302
14.9972
9.66931
5.97559
3.55435
2.07455
1.2511
0.854064
0.714019
400.362
378.359
353.271
325.575
296.05
265.466
234.567
204.05
174.549
146.627
120.758
97.3228
76.5955
58.7327
43.7679
31.6112
22.0612
14.8292
9.5712
5.92288
3.52891
2.06386
1.24732
0.852918
0.713577
406.913
384.614
359.178
331.077
301.103
270.039
238.642
207.62
177.621
149.215
122.891
99.0347
77.9293
59.7375
44.4965
32.1172
22.3958
15.0382
9.69324
5.98838
3.56046
2.07705
1.25192
0.854275
0.714093
401.293
379.249
354.108
326.352
296.761
266.108
235.137
204.548
174.976
146.985
121.052
97.5587
76.7789
58.8706
43.8678
31.6806
22.1072
14.858
9.58823
5.93221
3.53359
2.06599
1.2482
0.853269
0.71372
405.679
383.433
358.059
330.032
300.14
269.165
237.861
206.934
177.029
148.715
122.477
98.702
77.6694
59.5412
44.3539
32.018
22.3302
14.9972
9.66931
5.97559
3.55436
2.07455
1.2511
0.854068
0.714023
400.362
378.358
353.27
325.575
296.049
265.466
234.567
204.05
174.549
146.626
120.758
97.3227
76.5954
58.7326
43.7678
31.6111
22.0612
14.8291
9.57117
5.92285
3.52888
2.06383
1.24729
0.852895
0.713555
400.362
378.359
353.271
325.575
296.05
265.466
234.567
204.05
174.549
146.627
120.758
97.3228
76.5955
58.7327
43.7679
31.6112
22.0612
14.8292
9.57121
5.92289
3.52891
2.06386
1.24732
0.852914
0.713573
405.679
383.434
358.059
330.032
300.14
269.165
237.861
206.934
177.029
148.715
122.477
98.7021
77.6694
59.5413
44.3539
32.018
22.3302
14.9972
9.66932
5.9756
3.55437
2.07457
1.25112
0.854082
0.714037
)
;

boundaryField
{
    outletCentralUnloaded
    {
        type            zeroGradient;
    }
    inletCentralUnloaded
    {
        type            zeroGradient;
    }
    outletFuelElement
    {
        type            zeroGradient;
    }
    inletFuelElement
    {
        type            zeroGradient;
    }
    defaultFaces
    {
        type            zeroGradient;
    }
    baffle_master
    {
        type            zeroGradient;
    }
    baffle_slave
    {
        type            zeroGradient;
    }
}


// ************************************************************************* //
