/*--------------------------------*- C++ -*----------------------------------*\
| =========                 |                                                 |
| \\      /  F ield         | OpenFOAM: The Open Source CFD Toolbox           |
|  \\    /   O peration     | Version:  2212                                  |
|   \\  /    A nd           | Website:  www.openfoam.com                      |
|    \\/     M anipulation  |                                                 |
\*---------------------------------------------------------------------------*/
FoamFile
{
    version     2.0;
    format      ascii;
    arch        "LSB;label=32;scalar=64";
    class       volScalarField;
    location    "38/fluidRegion";
    object      p_rgh;
}
// * * * * * * * * * * * * * * * * * * * * * * * * * * * * * * * * * * * * * //

dimensions      [1 -1 -2 0 0 0 0];

internalField   nonuniform List<scalar> 
350
(
3.44743e+06
3.44773e+06
3.44802e+06
3.44832e+06
3.44862e+06
3.44891e+06
3.44921e+06
3.4495e+06
3.44979e+06
3.45009e+06
3.45038e+06
3.45068e+06
3.45097e+06
3.45127e+06
3.45156e+06
3.45186e+06
3.45215e+06
3.45245e+06
3.45275e+06
3.45304e+06
3.45334e+06
3.45364e+06
3.45393e+06
3.45423e+06
3.45451e+06
3.44743e+06
3.44773e+06
3.44802e+06
3.44832e+06
3.44862e+06
3.44891e+06
3.44921e+06
3.4495e+06
3.44979e+06
3.45009e+06
3.45038e+06
3.45068e+06
3.45097e+06
3.45127e+06
3.45156e+06
3.45186e+06
3.45215e+06
3.45245e+06
3.45275e+06
3.45304e+06
3.45334e+06
3.45364e+06
3.45393e+06
3.45423e+06
3.45451e+06
3.4736e+06
3.52497e+06
3.57577e+06
3.62567e+06
3.67438e+06
3.7216e+06
3.76709e+06
3.8106e+06
3.85192e+06
3.89087e+06
3.92728e+06
3.96102e+06
3.99197e+06
4.02006e+06
4.04523e+06
4.06749e+06
4.08688e+06
4.10349e+06
4.11745e+06
4.12895e+06
4.13817e+06
4.14534e+06
4.1507e+06
4.15454e+06
4.15721e+06
3.4736e+06
3.52497e+06
3.57577e+06
3.62567e+06
3.67437e+06
3.7216e+06
3.76709e+06
3.8106e+06
3.85192e+06
3.89087e+06
3.92728e+06
3.96102e+06
3.99197e+06
4.02006e+06
4.04523e+06
4.06749e+06
4.08688e+06
4.10349e+06
4.11745e+06
4.12895e+06
4.13817e+06
4.14534e+06
4.1507e+06
4.15454e+06
4.15721e+06
3.4736e+06
3.52497e+06
3.57577e+06
3.62567e+06
3.67438e+06
3.7216e+06
3.76709e+06
3.8106e+06
3.85192e+06
3.89087e+06
3.92728e+06
3.96102e+06
3.99197e+06
4.02006e+06
4.04523e+06
4.06749e+06
4.08688e+06
4.10349e+06
4.11745e+06
4.12895e+06
4.13817e+06
4.14534e+06
4.1507e+06
4.15454e+06
4.15721e+06
3.4736e+06
3.52497e+06
3.57577e+06
3.62567e+06
3.67437e+06
3.7216e+06
3.76709e+06
3.8106e+06
3.85192e+06
3.89087e+06
3.92728e+06
3.96102e+06
3.99197e+06
4.02006e+06
4.04523e+06
4.06749e+06
4.08688e+06
4.10349e+06
4.11745e+06
4.12895e+06
4.13817e+06
4.14534e+06
4.1507e+06
4.15454e+06
4.15721e+06
3.4736e+06
3.52497e+06
3.57577e+06
3.62567e+06
3.67437e+06
3.7216e+06
3.76709e+06
3.8106e+06
3.85192e+06
3.89087e+06
3.92728e+06
3.96102e+06
3.99197e+06
4.02006e+06
4.04523e+06
4.06749e+06
4.08688e+06
4.10349e+06
4.11745e+06
4.12895e+06
4.13817e+06
4.14534e+06
4.1507e+06
4.15454e+06
4.15721e+06
3.4736e+06
3.52497e+06
3.57577e+06
3.62567e+06
3.67438e+06
3.7216e+06
3.76709e+06
3.8106e+06
3.85192e+06
3.89087e+06
3.92728e+06
3.96102e+06
3.99197e+06
4.02006e+06
4.04523e+06
4.06749e+06
4.08688e+06
4.10349e+06
4.11745e+06
4.12895e+06
4.13817e+06
4.14534e+06
4.1507e+06
4.15454e+06
4.15721e+06
3.4736e+06
3.52497e+06
3.57577e+06
3.62567e+06
3.67437e+06
3.7216e+06
3.76709e+06
3.8106e+06
3.85192e+06
3.89087e+06
3.92728e+06
3.96102e+06
3.99197e+06
4.02006e+06
4.04523e+06
4.06749e+06
4.08688e+06
4.10349e+06
4.11745e+06
4.12895e+06
4.13817e+06
4.14534e+06
4.1507e+06
4.15454e+06
4.15721e+06
3.4736e+06
3.52497e+06
3.57577e+06
3.62567e+06
3.67438e+06
3.7216e+06
3.76709e+06
3.8106e+06
3.85192e+06
3.89087e+06
3.92728e+06
3.96102e+06
3.99197e+06
4.02006e+06
4.04523e+06
4.06749e+06
4.08688e+06
4.10349e+06
4.11745e+06
4.12895e+06
4.13817e+06
4.14534e+06
4.1507e+06
4.15454e+06
4.15721e+06
3.4736e+06
3.52497e+06
3.57577e+06
3.62567e+06
3.67437e+06
3.7216e+06
3.76709e+06
3.8106e+06
3.85192e+06
3.89087e+06
3.92728e+06
3.96102e+06
3.99197e+06
4.02006e+06
4.04523e+06
4.06749e+06
4.08688e+06
4.10349e+06
4.11745e+06
4.12895e+06
4.13817e+06
4.14534e+06
4.1507e+06
4.15454e+06
4.15721e+06
3.4736e+06
3.52497e+06
3.57577e+06
3.62567e+06
3.67438e+06
3.7216e+06
3.76709e+06
3.8106e+06
3.85192e+06
3.89087e+06
3.92728e+06
3.96102e+06
3.99197e+06
4.02006e+06
4.04523e+06
4.06749e+06
4.08688e+06
4.10349e+06
4.11745e+06
4.12895e+06
4.13817e+06
4.14534e+06
4.1507e+06
4.15454e+06
4.15721e+06
3.4736e+06
3.52497e+06
3.57577e+06
3.62567e+06
3.67438e+06
3.7216e+06
3.76709e+06
3.8106e+06
3.85192e+06
3.89087e+06
3.92728e+06
3.96102e+06
3.99197e+06
4.02006e+06
4.04523e+06
4.06749e+06
4.08688e+06
4.10349e+06
4.11745e+06
4.12895e+06
4.13817e+06
4.14534e+06
4.1507e+06
4.15454e+06
4.15721e+06
3.4736e+06
3.52497e+06
3.57577e+06
3.62567e+06
3.67437e+06
3.7216e+06
3.76709e+06
3.8106e+06
3.85192e+06
3.89087e+06
3.92728e+06
3.96102e+06
3.99197e+06
4.02006e+06
4.04523e+06
4.06749e+06
4.08688e+06
4.10349e+06
4.11745e+06
4.12895e+06
4.13817e+06
4.14534e+06
4.1507e+06
4.15454e+06
4.15721e+06
)
;

boundaryField
{
    outletCentralUnloaded
    {
        type            fixedValue;
        value           uniform 3.44728e+06;
    }
    inletCentralUnloaded
    {
        type            zeroGradient;
    }
    outletFuelElement
    {
        type            fixedValue;
        value           uniform 3.44728e+06;
    }
    inletFuelElement
    {
        type            zeroGradient;
    }
    defaultFaces
    {
        type            zeroGradient;
    }
    baffle_master
    {
        type            zeroGradient;
    }
    baffle_slave
    {
        type            zeroGradient;
    }
}


// ************************************************************************* //
