/*--------------------------------*- C++ -*----------------------------------*\
| =========                 |                                                 |
| \\      /  F ield         | OpenFOAM: The Open Source CFD Toolbox           |
|  \\    /   O peration     | Version:  2212                                  |
|   \\  /    A nd           | Website:  www.openfoam.com                      |
|    \\/     M anipulation  |                                                 |
\*---------------------------------------------------------------------------*/
FoamFile
{
    version     2.0;
    format      ascii;
    arch        "LSB;label=32;scalar=64";
    class       volScalarField;
    location    "38/fluidRegion";
    object      Tco.nuclearFuelPin;
}
// * * * * * * * * * * * * * * * * * * * * * * * * * * * * * * * * * * * * * //

dimensions      [0 0 0 1 0 0 0];

internalField   nonuniform List<scalar> 
350
(
0
0
0
0
0
0
0
0
0
0
0
0
0
0
0
0
0
0
0
0
0
0
0
0
0
0
0
0
0
0
0
0
0
0
0
0
0
0
0
0
0
0
0
0
0
0
0
0
0
0
1826.99
1854.4
1869.13
1871.36
1861.37
1839.59
1806.6
1763.09
1709.89
1647.94
1578.28
1502.08
1420.59
1335.15
1247.2
1158.14
1069.32
981.696
895.568
809.982
721.891
624.892
508.235
359.975
181.688
1855.04
1882.95
1897.96
1900.24
1890.08
1867.92
1834.34
1790.05
1735.88
1672.79
1601.85
1524.23
1441.2
1354.13
1264.45
1173.65
1083.07
993.757
906.052
819.041
729.674
631.463
513.441
363.367
182.835
1822.43
1849.78
1864.49
1866.72
1856.78
1835.08
1802.2
1758.83
1705.8
1644.04
1574.6
1498.63
1417.39
1332.22
1244.54
1155.76
1067.21
979.857
893.975
808.612
720.721
623.915
507.472
359.482
181.513
1848.73
1876.51
1891.44
1893.69
1883.56
1861.48
1828.02
1783.89
1729.94
1667.1
1596.44
1519.14
1436.46
1349.76
1260.48
1170.07
1079.89
990.968
903.627
816.945
727.873
629.941
512.234
362.579
182.57
1848.73
1876.51
1891.44
1893.69
1883.56
1861.48
1828.02
1783.89
1729.94
1667.1
1596.44
1519.14
1436.46
1349.76
1260.48
1170.07
1079.89
990.968
903.627
816.945
727.873
629.941
512.234
362.579
182.57
1822.43
1849.78
1864.49
1866.73
1856.78
1835.08
1802.2
1758.83
1705.8
1644.04
1574.6
1498.63
1417.39
1332.22
1244.54
1155.76
1067.21
979.858
893.976
808.612
720.722
623.916
507.473
359.483
181.513
1855.04
1882.95
1897.96
1900.24
1890.08
1867.92
1834.34
1790.05
1735.88
1672.79
1601.85
1524.23
1441.2
1354.13
1264.45
1173.65
1083.07
993.757
906.052
819.041
729.674
631.463
513.441
363.367
182.835
1826.99
1854.4
1869.13
1871.36
1861.37
1839.59
1806.6
1763.09
1709.89
1647.94
1578.28
1502.08
1420.59
1335.15
1247.2
1158.14
1069.32
981.696
895.568
809.982
721.891
624.892
508.235
359.975
181.688
1848.73
1876.51
1891.44
1893.69
1883.56
1861.48
1828.02
1783.89
1729.94
1667.1
1596.44
1519.14
1436.46
1349.76
1260.48
1170.07
1079.89
990.968
903.627
816.945
727.873
629.941
512.234
362.579
182.57
1822.43
1849.78
1864.49
1866.72
1856.78
1835.08
1802.2
1758.83
1705.8
1644.04
1574.6
1498.63
1417.39
1332.22
1244.54
1155.76
1067.21
979.857
893.975
808.612
720.721
623.916
507.472
359.482
181.513
1822.43
1849.78
1864.49
1866.73
1856.78
1835.08
1802.2
1758.83
1705.8
1644.04
1574.6
1498.63
1417.39
1332.22
1244.54
1155.76
1067.21
979.858
893.976
808.613
720.722
623.916
507.473
359.483
181.513
1848.73
1876.51
1891.44
1893.69
1883.56
1861.48
1828.02
1783.89
1729.94
1667.1
1596.44
1519.14
1436.46
1349.76
1260.48
1170.07
1079.89
990.968
903.627
816.945
727.873
629.941
512.234
362.579
182.57
)
;

boundaryField
{
    outletCentralUnloaded
    {
        type            zeroGradient;
    }
    inletCentralUnloaded
    {
        type            zeroGradient;
    }
    outletFuelElement
    {
        type            zeroGradient;
    }
    inletFuelElement
    {
        type            zeroGradient;
    }
    defaultFaces
    {
        type            zeroGradient;
    }
    baffle_master
    {
        type            zeroGradient;
    }
    baffle_slave
    {
        type            zeroGradient;
    }
}


// ************************************************************************* //
