/*--------------------------------*- C++ -*----------------------------------*\
| =========                 |                                                 |
| \\      /  F ield         | OpenFOAM: The Open Source CFD Toolbox           |
|  \\    /   O peration     | Version:  2212                                  |
|   \\  /    A nd           | Website:  www.openfoam.com                      |
|    \\/     M anipulation  |                                                 |
\*---------------------------------------------------------------------------*/
FoamFile
{
    version     2.0;
    format      ascii;
    arch        "LSB;label=32;scalar=64";
    class       volScalarField;
    location    "38/fluidRegion";
    object      Tfi.nuclearFuelPin;
}
// * * * * * * * * * * * * * * * * * * * * * * * * * * * * * * * * * * * * * //

dimensions      [0 0 0 1 0 0 0];

internalField   nonuniform List<scalar> 
350
(
0
0
0
0
0
0
0
0
0
0
0
0
0
0
0
0
0
0
0
0
0
0
0
0
0
0
0
0
0
0
0
0
0
0
0
0
0
0
0
0
0
0
0
0
0
0
0
0
0
0
2349.91
3534.57
4679.38
5766.72
6779.76
7702.84
8521.61
9223.38
9797.22
10234.2
10527.5
10672.7
10667.4
10511.8
10208.5
9762.37
9180.23
8470.88
7644.36
6711.52
5682.69
4566.68
3369.41
2097.15
769.58
2383.28
3581.7
4739.75
5839.59
6864.2
7797.74
8625.71
9335.26
9915.34
10356.9
10653.2
10799.4
10793.5
10635.6
10328.1
9876.15
9286.64
8568.51
7731.97
6788.04
5747.17
4618.29
3407.27
2120.32
777.355
2344.5
3526.99
4669.71
5755.07
6766.3
7687.72
8505.05
9205.59
9778.46
10214.7
10507.6
10652.6
10647.4
10492.2
10189.6
9744.34
9163.37
8455.41
7630.48
6699.41
5672.49
4558.53
3363.44
2093.5
768.35
2375.74
3570.98
4725.97
5822.91
6844.85
7775.97
8601.81
9309.55
9888.19
10328.7
10624.3
10770.3
10764.5
10607.1
10300.6
9849.95
9262.14
8546.03
7711.8
6770.41
5732.32
4606.4
3398.54
2114.98
775.564
2375.74
3570.98
4725.97
5822.91
6844.85
7775.97
8601.81
9309.55
9888.19
10328.7
10624.3
10770.3
10764.5
10607.1
10300.6
9849.95
9262.14
8546.03
7711.8
6770.41
5732.32
4606.4
3398.54
2114.98
775.564
2344.5
3526.99
4669.71
5755.07
6766.3
7687.72
8505.05
9205.59
9778.46
10214.7
10507.6
10652.6
10647.4
10492.2
10189.6
9744.34
9163.37
8455.41
7630.48
6699.41
5672.49
4558.53
3363.44
2093.5
768.35
2383.28
3581.7
4739.75
5839.59
6864.2
7797.74
8625.71
9335.25
9915.34
10356.9
10653.2
10799.4
10793.5
10635.6
10328.1
9876.15
9286.64
8568.51
7731.98
6788.04
5747.17
4618.29
3407.27
2120.32
777.355
2349.91
3534.57
4679.38
5766.72
6779.76
7702.84
8521.61
9223.38
9797.22
10234.2
10527.5
10672.7
10667.4
10511.8
10208.5
9762.37
9180.23
8470.88
7644.36
6711.52
5682.69
4566.68
3369.41
2097.15
769.58
2375.74
3570.98
4725.97
5822.91
6844.85
7775.97
8601.81
9309.55
9888.19
10328.7
10624.3
10770.3
10764.5
10607.1
10300.6
9849.95
9262.14
8546.03
7711.8
6770.41
5732.32
4606.4
3398.54
2114.98
775.564
2344.5
3526.99
4669.71
5755.07
6766.3
7687.72
8505.05
9205.59
9778.46
10214.7
10507.6
10652.6
10647.4
10492.2
10189.6
9744.34
9163.37
8455.41
7630.48
6699.41
5672.49
4558.53
3363.44
2093.5
768.35
2344.5
3526.99
4669.71
5755.07
6766.3
7687.72
8505.05
9205.59
9778.46
10214.7
10507.6
10652.6
10647.4
10492.2
10189.6
9744.34
9163.37
8455.41
7630.48
6699.41
5672.49
4558.53
3363.44
2093.5
768.35
2375.74
3570.98
4725.97
5822.91
6844.85
7775.97
8601.81
9309.55
9888.19
10328.7
10624.3
10770.3
10764.5
10607.1
10300.6
9849.95
9262.14
8546.03
7711.8
6770.41
5732.32
4606.4
3398.54
2114.98
775.564
)
;

boundaryField
{
    outletCentralUnloaded
    {
        type            zeroGradient;
    }
    inletCentralUnloaded
    {
        type            zeroGradient;
    }
    outletFuelElement
    {
        type            zeroGradient;
    }
    inletFuelElement
    {
        type            zeroGradient;
    }
    defaultFaces
    {
        type            zeroGradient;
    }
    baffle_master
    {
        type            zeroGradient;
    }
    baffle_slave
    {
        type            zeroGradient;
    }
}


// ************************************************************************* //
