/*--------------------------------*- C++ -*----------------------------------*\
| =========                 |                                                 |
| \\      /  F ield         | OpenFOAM: The Open Source CFD Toolbox           |
|  \\    /   O peration     | Version:  2212                                  |
|   \\  /    A nd           | Website:  www.openfoam.com                      |
|    \\/     M anipulation  |                                                 |
\*---------------------------------------------------------------------------*/
FoamFile
{
    version     2.0;
    format      ascii;
    arch        "LSB;label=32;scalar=64";
    class       volScalarField;
    location    "38/fluidRegion";
    object      Tfo.nuclearFuelPin;
}
// * * * * * * * * * * * * * * * * * * * * * * * * * * * * * * * * * * * * * //

dimensions      [0 0 0 1 0 0 0];

internalField   nonuniform List<scalar> 
350
(
0
0
0
0
0
0
0
0
0
0
0
0
0
0
0
0
0
0
0
0
0
0
0
0
0
0
0
0
0
0
0
0
0
0
0
0
0
0
0
0
0
0
0
0
0
0
0
0
0
0
1992.65
2381.44
2749.04
3090.09
3399.52
3672.74
3905.66
4094.8
4237.31
4331.06
4374.64
4367.44
4309.62
4202.16
4046.83
3846.12
3603.12
3321.22
3003.78
2653.51
2271.54
1856.22
1401.96
902.487
365.017
2022.41
2415.84
2787.77
3132.75
3445.68
3721.9
3957.29
4148.31
4292.11
4386.52
4430.12
4422.29
4363.21
4253.87
4096.07
3892.34
3645.83
3360.03
3038.36
2683.64
2297.04
1876.86
1417.37
912.061
368.236
1987.82
2375.88
2742.82
3083.26
3392.15
3664.91
3897.45
4086.3
4228.63
4322.28
4365.88
4358.78
4301.16
4194.01
4039.07
3838.85
3596.4
3315.13
2998.34
2648.78
2267.55
1853
1399.57
901.009
364.513
2015.71
2408.05
2778.98
3123.04
3435.15
3710.66
3945.47
4136.04
4279.53
4373.78
4417.37
4409.68
4350.88
4241.97
4084.73
3881.69
3635.99
3351.08
3030.39
2676.7
2291.16
1872.1
1413.82
909.851
367.494
2015.71
2408.05
2778.98
3123.04
3435.14
3710.66
3945.47
4136.04
4279.53
4373.78
4417.37
4409.68
4350.88
4241.97
4084.73
3881.69
3635.99
3351.08
3030.39
2676.7
2291.16
1872.1
1413.82
909.851
367.494
1987.82
2375.88
2742.83
3083.26
3392.15
3664.91
3897.45
4086.31
4228.63
4322.29
4365.88
4358.78
4301.17
4194.01
4039.08
3838.85
3596.4
3315.13
2998.34
2648.78
2267.55
1853
1399.57
901.009
364.513
2022.41
2415.84
2787.77
3132.75
3445.68
3721.9
3957.29
4148.31
4292.11
4386.52
4430.12
4422.29
4363.21
4253.87
4096.07
3892.34
3645.83
3360.03
3038.36
2683.64
2297.04
1876.86
1417.37
912.061
368.236
1992.65
2381.44
2749.05
3090.09
3399.52
3672.74
3905.66
4094.8
4237.31
4331.06
4374.64
4367.44
4309.62
4202.16
4046.83
3846.12
3603.12
3321.22
3003.78
2653.51
2271.54
1856.22
1401.96
902.486
365.017
2015.71
2408.05
2778.98
3123.04
3435.14
3710.66
3945.47
4136.04
4279.53
4373.78
4417.37
4409.68
4350.88
4241.97
4084.73
3881.69
3635.99
3351.08
3030.39
2676.7
2291.16
1872.1
1413.82
909.851
367.494
1987.82
2375.88
2742.82
3083.26
3392.15
3664.91
3897.45
4086.3
4228.63
4322.28
4365.88
4358.78
4301.16
4194.01
4039.07
3838.85
3596.4
3315.13
2998.34
2648.78
2267.55
1853
1399.57
901.009
364.513
1987.82
2375.89
2742.83
3083.26
3392.15
3664.91
3897.45
4086.31
4228.63
4322.29
4365.88
4358.78
4301.17
4194.01
4039.08
3838.85
3596.4
3315.13
2998.34
2648.78
2267.55
1853
1399.57
901.009
364.513
2015.71
2408.05
2778.98
3123.04
3435.14
3710.66
3945.47
4136.04
4279.53
4373.78
4417.37
4409.68
4350.88
4241.97
4084.73
3881.69
3635.99
3351.08
3030.39
2676.7
2291.16
1872.1
1413.82
909.85
367.494
)
;

boundaryField
{
    outletCentralUnloaded
    {
        type            zeroGradient;
    }
    inletCentralUnloaded
    {
        type            zeroGradient;
    }
    outletFuelElement
    {
        type            zeroGradient;
    }
    inletFuelElement
    {
        type            zeroGradient;
    }
    defaultFaces
    {
        type            zeroGradient;
    }
    baffle_master
    {
        type            zeroGradient;
    }
    baffle_slave
    {
        type            zeroGradient;
    }
}


// ************************************************************************* //
