/*--------------------------------*- C++ -*----------------------------------*\
| =========                 |                                                 |
| \\      /  F ield         | OpenFOAM: The Open Source CFD Toolbox           |
|  \\    /   O peration     | Version:  2212                                  |
|   \\  /    A nd           | Website:  www.openfoam.com                      |
|    \\/     M anipulation  |                                                 |
\*---------------------------------------------------------------------------*/
FoamFile
{
    version     2.0;
    format      ascii;
    arch        "LSB;label=32;scalar=64";
    class       volVectorField;
    location    "38/fluidRegion";
    object      U;
}
// * * * * * * * * * * * * * * * * * * * * * * * * * * * * * * * * * * * * * //

dimensions      [0 1 -1 0 0 0 0];

internalField   nonuniform List<vector> 
350
(
(-9.04476e-08 -5.22198e-08 -14.968)
(-1.0196e-07 -5.88666e-08 -14.9668)
(-7.43812e-08 -4.29439e-08 -14.9655)
(-3.81078e-08 -2.20015e-08 -14.9642)
(2.2577e-12 1.30348e-12 -14.9629)
(3.56579e-08 2.05871e-08 -14.9617)
(6.40456e-08 3.69766e-08 -14.9604)
(8.18798e-08 4.72732e-08 -14.9591)
(8.84273e-08 5.10534e-08 -14.9579)
(8.51465e-08 4.91592e-08 -14.9566)
(7.46502e-08 4.30992e-08 -14.9553)
(5.94799e-08 3.43406e-08 -14.9541)
(4.13963e-08 2.39001e-08 -14.9528)
(2.13633e-08 1.23341e-08 -14.9515)
(2.13685e-10 1.23371e-10 -14.9502)
(-2.05471e-08 -1.18628e-08 -14.9489)
(-3.84454e-08 -2.21964e-08 -14.9476)
(-5.0423e-08 -2.91117e-08 -14.9463)
(-5.39934e-08 -3.1173e-08 -14.945)
(-4.86452e-08 -2.80852e-08 -14.9438)
(-3.68196e-08 -2.12578e-08 -14.9426)
(-2.30768e-08 -1.33234e-08 -14.9414)
(-6.28498e-09 -3.62862e-09 -14.9402)
(1.8904e-08 1.09142e-08 -14.9391)
(2.88123e-08 1.66347e-08 -14.9693)
(-9.04476e-08 -5.22198e-08 -14.968)
(-1.0196e-07 -5.88666e-08 -14.9668)
(-7.43812e-08 -4.29439e-08 -14.9655)
(-3.81078e-08 -2.20015e-08 -14.9642)
(2.25769e-12 1.30347e-12 -14.9629)
(3.56579e-08 2.05871e-08 -14.9617)
(6.40456e-08 3.69766e-08 -14.9604)
(8.18798e-08 4.72732e-08 -14.9591)
(8.84273e-08 5.10534e-08 -14.9579)
(8.51465e-08 4.91592e-08 -14.9566)
(7.46502e-08 4.30992e-08 -14.9553)
(5.94799e-08 3.43406e-08 -14.9541)
(4.13963e-08 2.39001e-08 -14.9528)
(2.13633e-08 1.23341e-08 -14.9515)
(2.13685e-10 1.23371e-10 -14.9502)
(-2.05471e-08 -1.18628e-08 -14.9489)
(-3.84454e-08 -2.21964e-08 -14.9476)
(-5.0423e-08 -2.91117e-08 -14.9463)
(-5.39934e-08 -3.1173e-08 -14.945)
(-4.86452e-08 -2.80852e-08 -14.9438)
(-3.68196e-08 -2.12578e-08 -14.9426)
(-2.30768e-08 -1.33234e-08 -14.9414)
(-6.28498e-09 -3.62862e-09 -14.9402)
(1.8904e-08 1.09142e-08 -14.9391)
(2.88123e-08 1.66347e-08 -14.9693)
(-0.00195122 -0.00112653 -420.594)
(-0.000947684 -0.000547145 -412.81)
(-0.00103127 -0.000595401 -402.935)
(-0.000927871 -0.000535706 -390.727)
(-0.000839798 -0.000484857 -376.377)
(-0.000757917 -0.000437583 -360.09)
(-0.000681833 -0.000393656 -342.073)
(-0.00060769 -0.00035085 -322.543)
(-0.000527503 -0.000304554 -301.719)
(-0.000428073 -0.000247148 -279.829)
(-0.000293194 -0.000169276 -257.114)
(-0.000106901 -6.17192e-05 -233.83)
(0.000134655 7.77432e-05 -210.259)
(0.000412245 0.00023801 -186.713)
(0.00069428 0.000400842 -163.53)
(0.000933881 0.000539176 -141.062)
(0.00109468 0.000632014 -119.655)
(0.00116739 0.000673992 -99.6231)
(0.00117112 0.000676149 -81.233)
(0.00113947 0.000657873 -64.7057)
(0.00110207 0.000636283 -50.2334)
(0.00106557 0.000615209 -38.0042)
(0.00101431 0.000585615 -28.2258)
(0.000878651 0.000507289 -21.1217)
(0.000833988 0.000481503 -16.6332)
(-0.00189207 -0.00109755 -423.294)
(-0.000704616 -0.000390209 -415.47)
(-0.000802622 -0.00044648 -405.564)
(-0.00073213 -0.000403627 -393.304)
(-0.00067254 -0.000367203 -378.886)
(-0.000617368 -0.000332168 -362.513)
(-0.000566081 -0.000299036 -344.397)
(-0.000515651 -0.000266211 -324.752)
(-0.000460332 -0.000230393 -303.8)
(-0.000390577 -0.000185963 -281.771)
(-0.000295491 -0.000126406 -258.904)
(-0.000163465 -4.52139e-05 -235.458)
(8.48349e-06 5.95384e-05 -211.716)
(0.000199871 0.000176497 -187.992)
(0.000393036 0.00029546 -164.627)
(0.000554876 0.000396951 -141.979)
(0.000661212 0.000467215 -120.399)
(0.000707073 0.000502716 -100.205)
(0.000705936 0.000511619 -81.6687)
(0.000681881 0.000505677 -65.0141)
(0.000654808 0.000497254 -50.4348)
(0.000633532 0.000485236 -38.1204)
(0.000610963 0.000467446 -28.2804)
(0.000558236 0.000415525 -21.1386)
(0.000594522 0.000397901 -16.6352)
(-0.000876758 -0.000662121 -420.162)
(-0.000522985 -0.000967911 -412.377)
(-0.000512618 -0.000923271 -402.509)
(-0.000467987 -0.000810289 -390.31)
(-0.000426277 -0.000710811 -375.973)
(-0.000388084 -0.000618922 -359.701)
(-0.000352129 -0.000533701 -341.702)
(-0.000315577 -0.000451178 -322.19)
(-0.000272957 -0.000362157 -301.387)
(-0.000216184 -0.000252196 -279.521)
(-0.000136369 -0.000102007 -256.83)
(-2.67281e-05 0.000104195 -233.572)
(0.000114809 0.000369803 -210.029)
(0.000267049 0.000685646 -186.512)
(0.000415978 0.00100611 -163.357)
(0.00053486 0.00127889 -140.917)
(0.000607094 0.00146142 -119.537)
(0.000631947 0.00154209 -99.5306)
(0.000622395 0.00154333 -81.1628)
(0.000597371 0.00150311 -64.655)
(0.000570155 0.00145478 -50.1987)
(0.000546114 0.0013997 -37.9822)
(0.000508155 0.00130366 -28.213)
(0.000444307 0.00105766 -21.1149)
(0.000388542 0.000833082 -16.6309)
(-0.000980541 -0.000566114 -422.692)
(-0.000938154 -0.000541642 -414.877)
(-0.00090431 -0.000522102 -404.977)
(-0.000805602 -0.000465113 -392.727)
(-0.000717233 -0.000414094 -378.323)
(-0.000635702 -0.000367022 -361.969)
(-0.000559535 -0.000323047 -343.874)
(-0.00048463 -0.0002798 -324.254)
(-0.000401629 -0.00023188 -303.33)
(-0.00029637 -0.000171109 -281.332)
(-0.0001513 -8.73526e-05 -258.498)
(4.77355e-05 2.756e-05 -235.089)
(0.000304261 0.000175665 -211.385)
(0.000598941 0.000345798 -187.701)
(0.000894591 0.000516491 -164.377)
(0.00114157 0.000659084 -141.77)
(0.00130269 0.000752105 -120.229)
(0.00137009 0.000791021 -100.072)
(0.00136601 0.000788664 -81.5693)
(0.00132583 0.000765464 -64.9438)
(0.00127859 0.000738194 -50.389)
(0.00122856 0.000709307 -38.0942)
(0.0011437 0.000660312 -28.2684)
(0.000948133 0.000547403 -21.1352)
(0.00077091 0.000445084 -16.635)
(0.000949931 0.000548442 -422.692)
(0.000924823 0.000533946 -414.877)
(0.00088881 0.000513154 -404.977)
(0.000790475 0.00045638 -392.727)
(0.000702074 0.000405341 -378.323)
(0.000620954 0.000358507 -361.969)
(0.00054584 0.00031514 -343.874)
(0.000472083 0.000272556 -324.254)
(0.000390844 0.000225653 -303.33)
(0.000288027 0.000166292 -281.332)
(0.000145788 8.41703e-05 -258.498)
(-4.99367e-05 -2.88309e-05 -235.089)
(-0.000302173 -0.00017446 -211.385)
(-0.000591854 -0.000341706 -187.701)
(-0.000881547 -0.00050896 -164.377)
(-0.00112195 -0.000647754 -141.77)
(-0.00127645 -0.000736955 -120.229)
(-0.0013378 -0.000772379 -100.072)
(-0.00132811 -0.000766783 -81.5693)
(-0.0012837 -0.00074114 -64.9438)
(-0.00123393 -0.000712406 -50.389)
(-0.00118357 -0.000683335 -38.0942)
(-0.00110013 -0.000635156 -28.2684)
(-0.000912143 -0.000526625 -21.1352)
(-0.000743603 -0.000429318 -16.635)
(0.000993301 0.000427822 -420.162)
(0.00109498 -4.25333e-05 -412.377)
(0.00104993 -3.02563e-05 -402.509)
(0.000930307 -1.37998e-05 -390.311)
(0.000823748 -2.01715e-06 -375.974)
(0.000725583 9.64234e-06 -359.701)
(0.000634669 1.96498e-05 -341.702)
(0.000545837 2.78312e-05 -322.19)
(0.000448744 3.36901e-05 -301.388)
(0.000326713 3.78873e-05 -279.521)
(0.000158729 4.14934e-05 -256.83)
(-7.24241e-05 4.71936e-05 -233.573)
(-0.000370358 5.48763e-05 -210.029)
(-0.000716771 7.83536e-05 -186.512)
(-0.00106504 0.000107265 -163.357)
(-0.00135673 0.000138806 -140.917)
(-0.00154687 0.000165896 -119.537)
(-0.00162544 0.000183943 -99.5306)
(-0.00161839 0.000193477 -81.1628)
(-0.00156877 0.000197936 -64.655)
(-0.00151206 0.000201967 -50.1987)
(-0.00145288 0.000202516 -37.9821)
(-0.00135246 0.000196146 -28.2129)
(-0.00111291 0.000135507 -21.1148)
(-0.000896912 7.83326e-05 -16.6309)
(0.00188181 0.0011105 -423.294)
(0.000689294 0.000409067 -415.47)
(0.000785127 0.000466222 -405.564)
(0.00071322 0.000424491 -393.304)
(0.000652158 0.000388765 -378.886)
(0.000595311 0.000356534 -362.513)
(0.000542347 0.000325989 -344.397)
(0.000490484 0.000295979 -324.752)
(0.000433995 0.00026237 -303.8)
(0.000363462 0.000220247 -281.771)
(0.000267687 0.000162449 -258.904)
(0.000135236 8.30834e-05 -235.458)
(-3.61473e-05 -2.04503e-05 -211.716)
(-0.000226677 -0.00013558 -187.992)
(-0.000417996 -0.000252347 -164.627)
(-0.000576463 -0.000351591 -141.979)
(-0.00067756 -0.000419615 -120.399)
(-0.000715269 -0.000453111 -100.205)
(-0.000701876 -0.000459822 -81.6687)
(-0.000659907 -0.000452765 -65.0141)
(-0.000608715 -0.000443704 -50.4348)
(-0.000559622 -0.00043527 -38.1204)
(-0.00050909 -0.000422083 -28.2804)
(-0.000443646 -0.000385069 -21.1386)
(-0.000479068 -0.000394067 -16.6352)
(0.00195074 0.00112626 -420.594)
(0.000946588 0.000546512 -412.81)
(0.00102934 0.000594289 -402.935)
(0.000925557 0.00053437 -390.727)
(0.000836997 0.00048324 -376.377)
(0.000755152 0.000435987 -360.09)
(0.000679012 0.000392028 -342.073)
(0.000605036 0.000349318 -322.543)
(0.000524952 0.000303081 -301.719)
(0.000425845 0.000245861 -279.829)
(0.000291187 0.000168117 -257.114)
(0.000105296 6.07928e-05 -233.83)
(-0.000135618 -7.8299e-05 -210.259)
(-0.000412264 -0.000238021 -186.713)
(-0.000692846 -0.000400015 -163.53)
(-0.000930321 -0.000537121 -141.062)
(-0.00108819 -0.000628265 -119.655)
(-0.00115669 -0.000667812 -99.6231)
(-0.00115425 -0.000666409 -81.233)
(-0.00111393 -0.000643128 -64.7058)
(-0.00106476 -0.00061474 -50.2334)
(-0.00101551 -0.000586302 -38.0042)
(-0.000950982 -0.000549049 -28.2258)
(-0.000812174 -0.000468909 -21.1217)
(-0.000773007 -0.000446296 -16.6332)
(0.000965448 0.0005574 -422.692)
(0.000919112 0.000530648 -414.877)
(0.00088358 0.000510133 -404.977)
(0.00078342 0.000452306 -392.727)
(0.000693306 0.000400279 -378.323)
(0.000610262 0.000352334 -361.969)
(0.00053285 0.00030764 -343.874)
(0.000456619 0.000263628 -324.254)
(0.000372411 0.000215011 -303.33)
(0.000266205 0.000153693 -281.332)
(0.000119754 6.91397e-05 -258.498)
(-8.05692e-05 -4.65166e-05 -235.089)
(-0.00033859 -0.000195484 -211.385)
(-0.000635158 -0.000366708 -187.701)
(-0.000933203 -0.000538783 -164.377)
(-0.00118355 -0.000683323 -141.77)
(-0.00135027 -0.000779575 -120.229)
(-0.00142619 -0.00082341 -100.072)
(-0.00143467 -0.000828307 -81.5693)
(-0.00141118 -0.000814745 -64.9438)
(-0.00138697 -0.000800766 -50.389)
(-0.00135951 -0.00078491 -38.0942)
(-0.00129425 -0.000747232 -28.2684)
(-0.0010991 -0.000634561 -21.1352)
(-0.000895002 -0.000516729 -16.635)
(0.00085971 0.000666049 -420.162)
(0.000499882 0.000974432 -412.377)
(0.000486881 0.000930462 -402.509)
(0.00044028 0.000817821 -390.31)
(0.000396415 0.00071872 -375.973)
(0.000356001 0.00062764 -359.701)
(0.000317967 0.00054322 -341.702)
(0.000279501 0.000461476 -322.19)
(0.000235259 0.000373021 -301.387)
(0.000177259 0.000263483 -279.521)
(9.61091e-05 0.000113537 -256.83)
(-1.46518e-05 -9.24615e-05 -233.572)
(-0.000156529 -0.000358655 -210.029)
(-0.000309122 -0.00067536 -186.512)
(-0.000457943 -0.000997578 -163.357)
(-0.000576122 -0.00127351 -140.917)
(-0.000647504 -0.00146124 -119.537)
(-0.000671085 -0.00154999 -99.5306)
(-0.000659849 -0.00156341 -81.1628)
(-0.000632051 -0.00154035 -64.655)
(-0.000602413 -0.00151502 -50.1987)
(-0.000574602 -0.00148525 -37.9821)
(-0.000532878 -0.0014128 -28.213)
(-0.000464675 -0.00117525 -21.1149)
(-0.000394896 -0.000941635 -16.6309)
(-0.000999763 -0.000426459 -420.162)
(-0.00110269 4.59263e-05 -412.377)
(-0.00105831 3.32129e-05 -402.509)
(-0.000939101 1.69751e-05 -390.311)
(-0.000833138 4.77663e-06 -375.974)
(-0.000735374 -5.43579e-06 -359.701)
(-0.000644975 -1.41865e-05 -341.702)
(-0.000556569 -2.08541e-05 -322.19)
(-0.000460004 -2.56382e-05 -301.388)
(-0.000338336 -2.84186e-05 -279.521)
(-0.000170978 -3.1244e-05 -256.83)
(5.95962e-05 -3.60562e-05 -233.573)
(0.000356771 -4.28961e-05 -210.029)
(0.000702486 -6.47838e-05 -186.512)
(0.00104995 -9.12194e-05 -163.357)
(0.0013409 -0.000119326 -140.917)
(0.00153023 -0.000141975 -119.537)
(0.00160841 -0.000154132 -99.5306)
(0.00160184 -0.000155128 -81.1628)
(0.00155464 -0.000148658 -64.655)
(0.00150283 -0.000138746 -50.1987)
(0.00145239 -0.000126403 -37.9821)
(0.00136352 -0.000108347 -28.213)
(0.00113441 -5.29634e-05 -21.1148)
(0.000926613 -1.91246e-05 -16.6309)
(-0.000961696 -0.000555234 -422.692)
(-0.000938819 -0.000542026 -414.877)
(-0.000903893 -0.000521862 -404.977)
(-0.000806257 -0.000465492 -392.727)
(-0.000719062 -0.00041515 -378.323)
(-0.000638514 -0.000368645 -361.969)
(-0.000563935 -0.000325587 -343.874)
(-0.000490744 -0.00028333 -324.254)
(-0.000410207 -0.000236833 -303.33)
(-0.000307769 -0.00017769 -281.332)
(-0.000166548 -9.61561e-05 -258.498)
(2.82064e-05 1.62849e-05 -235.089)
(0.000279085 0.00016113 -211.385)
(0.000567436 0.000327608 -187.701)
(0.000855667 0.000494019 -164.377)
(0.00109441 0.000631857 -141.77)
(0.00124639 0.000719603 -120.229)
(0.00130453 0.00075317 -100.072)
(0.00129124 0.000745498 -81.5693)
(0.00124374 0.000718074 -64.9438)
(0.00119128 0.000687783 -50.389)
(0.00114227 0.000659489 -38.0942)
(0.00106418 0.000614406 -28.2684)
(0.000885873 0.000511457 -21.1352)
(0.000730853 0.000421957 -16.635)
)
;

boundaryField
{
    outletCentralUnloaded
    {
        type            zeroGradient;
    }
    inletCentralUnloaded
    {
        type            fixedValue;
        value           uniform (0 0 -15);
    }
    outletFuelElement
    {
        type            zeroGradient;
    }
    inletFuelElement
    {
        type            fixedValue;
        value           uniform (0 0 -15);
    }
    defaultFaces
    {
        type            slip;
    }
    baffle_master
    {
        type            slip;
    }
    baffle_slave
    {
        type            slip;
    }
}


// ************************************************************************* //
