/*--------------------------------*- C++ -*----------------------------------*\
| =========                 |                                                 |
| \\      /  F ield         | OpenFOAM: The Open Source CFD Toolbox           |
|  \\    /   O peration     | Version:  2212                                  |
|   \\  /    A nd           | Website:  www.openfoam.com                      |
|    \\/     M anipulation  |                                                 |
\*---------------------------------------------------------------------------*/
FoamFile
{
    version     2.0;
    format      ascii;
    arch        "LSB;label=32;scalar=64";
    class       volTensorField;
    location    "160/fluidRegion";
    object      KdTotU;
}
// * * * * * * * * * * * * * * * * * * * * * * * * * * * * * * * * * * * * * //

dimensions      [1 -2 -2 0 0 0 0];

internalField   nonuniform List<tensor> 
17
(
(5252.12 0 0 0 5252.12 0 0 0 5252.12)
(5252.12 0 0 0 5252.12 0 0 0 5252.12)
(5582.8 0 0 0 5582.8 0 0 0 5582.8)
(5841.11 0 0 0 5841.11 0 0 0 5841.11)
(5943.37 0 0 0 5943.37 0 0 0 5943.37)
(5995.36 0 0 0 5995.36 0 0 0 5995.36)
(6024.24 0 0 0 6024.24 0 0 0 6024.24)
(6042.76 0 0 0 6042.76 0 0 0 6042.76)
(6056.14 0 0 0 6056.14 0 0 0 6056.14)
(6066.98 0 0 0 6066.98 0 0 0 6066.98)
(6076.58 0 0 0 6076.58 0 0 0 6076.58)
(6085.61 0 0 0 6085.61 0 0 0 6085.61)
(6094.41 0 0 0 6094.41 0 0 0 6094.41)
(6103.18 0 0 0 6103.18 0 0 0 6103.18)
(6112.01 0 0 0 6112.01 0 0 0 6112.01)
(6120.99 0 0 0 6120.99 0 0 0 6120.99)
(6129.74 0 0 0 6129.74 0 0 0 6129.74)
)
;

boundaryField
{
    inlet
    {
        type            zeroGradient;
    }
    outlet
    {
        type            zeroGradient;
    }
    fixedWalls
    {
        type            zeroGradient;
    }
}


// ************************************************************************* //
