/*--------------------------------*- C++ -*----------------------------------*\
| =========                 |                                                 |
| \\      /  F ield         | OpenFOAM: The Open Source CFD Toolbox           |
|  \\    /   O peration     | Version:  2212                                  |
|   \\  /    A nd           | Website:  www.openfoam.com                      |
|    \\/     M anipulation  |                                                 |
\*---------------------------------------------------------------------------*/
FoamFile
{
    version     2.0;
    format      ascii;
    arch        "LSB;label=32;scalar=64";
    class       volScalarField;
    location    "86/neutroRegion";
    object      prec0;
}
// * * * * * * * * * * * * * * * * * * * * * * * * * * * * * * * * * * * * * //

dimensions      [0 -3 0 0 0 0 0];

internalField   nonuniform List<scalar> 
350
(
0
0
0
0
0
0
0
0
0
0
0
0
0
0
0
0
0
0
0
0
0
0
0
0
0
0
0
0
0
0
0
0
0
0
0
0
0
0
0
0
0
0
0
0
0
0
0
0
0
0
1.51942e+17
4.53431e+17
7.47768e+17
1.03031e+18
1.29661e+18
1.54246e+18
1.76398e+18
1.95768e+18
2.12051e+18
2.24989e+18
2.3438e+18
2.40074e+18
2.41982e+18
2.40074e+18
2.3438e+18
2.24989e+18
2.12051e+18
1.95768e+18
1.76398e+18
1.54245e+18
1.29661e+18
1.03031e+18
7.47768e+17
4.53431e+17
1.51942e+17
1.5368e+17
4.58615e+17
7.56317e+17
1.04209e+18
1.31143e+18
1.56009e+18
1.78414e+18
1.98006e+18
2.14475e+18
2.27561e+18
2.37059e+18
2.42819e+18
2.44748e+18
2.42819e+18
2.37059e+18
2.27561e+18
2.14475e+18
1.98006e+18
1.78414e+18
1.56009e+18
1.31143e+18
1.04209e+18
7.56317e+17
4.58615e+17
1.5368e+17
1.51666e+17
4.52605e+17
7.46407e+17
1.02844e+18
1.29425e+18
1.53965e+18
1.76076e+18
1.95411e+18
2.11664e+18
2.2458e+18
2.33953e+18
2.39637e+18
2.41541e+18
2.39637e+18
2.33953e+18
2.2458e+18
2.11664e+18
1.95411e+18
1.76076e+18
1.53965e+18
1.29425e+18
1.02844e+18
7.46407e+17
4.52605e+17
1.51666e+17
1.5328e+17
4.57422e+17
7.54349e+17
1.03938e+18
1.30802e+18
1.55603e+18
1.7795e+18
1.97491e+18
2.13917e+18
2.26969e+18
2.36442e+18
2.42187e+18
2.44112e+18
2.42187e+18
2.36442e+18
2.26969e+18
2.13917e+18
1.97491e+18
1.7795e+18
1.55603e+18
1.30802e+18
1.03938e+18
7.54349e+17
4.57422e+17
1.5328e+17
1.5328e+17
4.57422e+17
7.5435e+17
1.03938e+18
1.30802e+18
1.55603e+18
1.7795e+18
1.97491e+18
2.13917e+18
2.26969e+18
2.36442e+18
2.42187e+18
2.44112e+18
2.42187e+18
2.36442e+18
2.26969e+18
2.13917e+18
1.97491e+18
1.7795e+18
1.55603e+18
1.30802e+18
1.03938e+18
7.5435e+17
4.57422e+17
1.5328e+17
1.51666e+17
4.52605e+17
7.46407e+17
1.02844e+18
1.29425e+18
1.53965e+18
1.76076e+18
1.95411e+18
2.11665e+18
2.2458e+18
2.33953e+18
2.39637e+18
2.41541e+18
2.39637e+18
2.33953e+18
2.2458e+18
2.11665e+18
1.95411e+18
1.76076e+18
1.53965e+18
1.29425e+18
1.02844e+18
7.46407e+17
4.52605e+17
1.51666e+17
1.5368e+17
4.58615e+17
7.56318e+17
1.04209e+18
1.31143e+18
1.56009e+18
1.78414e+18
1.98006e+18
2.14475e+18
2.27561e+18
2.37059e+18
2.42819e+18
2.44748e+18
2.42819e+18
2.37059e+18
2.27561e+18
2.14475e+18
1.98006e+18
1.78414e+18
1.56009e+18
1.31143e+18
1.04209e+18
7.56318e+17
4.58615e+17
1.5368e+17
1.51942e+17
4.53431e+17
7.47768e+17
1.03031e+18
1.29661e+18
1.54245e+18
1.76398e+18
1.95768e+18
2.12051e+18
2.24989e+18
2.3438e+18
2.40074e+18
2.41982e+18
2.40074e+18
2.3438e+18
2.24989e+18
2.12051e+18
1.95768e+18
1.76398e+18
1.54245e+18
1.29661e+18
1.03031e+18
7.47768e+17
4.53431e+17
1.51942e+17
1.5328e+17
4.57422e+17
7.5435e+17
1.03938e+18
1.30802e+18
1.55603e+18
1.7795e+18
1.97491e+18
2.13917e+18
2.26969e+18
2.36442e+18
2.42187e+18
2.44112e+18
2.42187e+18
2.36442e+18
2.26969e+18
2.13917e+18
1.97491e+18
1.7795e+18
1.55603e+18
1.30802e+18
1.03938e+18
7.5435e+17
4.57422e+17
1.5328e+17
1.51666e+17
4.52605e+17
7.46407e+17
1.02844e+18
1.29425e+18
1.53965e+18
1.76076e+18
1.95411e+18
2.11664e+18
2.2458e+18
2.33953e+18
2.39637e+18
2.41541e+18
2.39637e+18
2.33953e+18
2.2458e+18
2.11664e+18
1.95411e+18
1.76076e+18
1.53965e+18
1.29425e+18
1.02844e+18
7.46407e+17
4.52605e+17
1.51666e+17
1.51666e+17
4.52605e+17
7.46407e+17
1.02844e+18
1.29425e+18
1.53965e+18
1.76076e+18
1.95411e+18
2.11664e+18
2.2458e+18
2.33953e+18
2.39637e+18
2.41541e+18
2.39637e+18
2.33953e+18
2.2458e+18
2.11665e+18
1.95411e+18
1.76076e+18
1.53965e+18
1.29425e+18
1.02844e+18
7.46407e+17
4.52605e+17
1.51666e+17
1.5328e+17
4.57422e+17
7.5435e+17
1.03938e+18
1.30802e+18
1.55603e+18
1.7795e+18
1.97491e+18
2.13917e+18
2.26969e+18
2.36442e+18
2.42187e+18
2.44112e+18
2.42187e+18
2.36442e+18
2.26969e+18
2.13917e+18
1.97491e+18
1.7795e+18
1.55603e+18
1.30802e+18
1.03938e+18
7.5435e+17
4.57422e+17
1.5328e+17
)
;

boundaryField
{
    outletCentralUnloaded
    {
        type            zeroGradient;
    }
    inletCentralUnloaded
    {
        type            zeroGradient;
    }
    outletFuelElement
    {
        type            zeroGradient;
    }
    inletFuelElement
    {
        type            zeroGradient;
    }
    defaultFaces
    {
        type            zeroGradient;
    }
}


// ************************************************************************* //
