/*--------------------------------*- C++ -*----------------------------------*\
| =========                 |                                                 |
| \\      /  F ield         | OpenFOAM: The Open Source CFD Toolbox           |
|  \\    /   O peration     | Version:  2212                                  |
|   \\  /    A nd           | Website:  www.openfoam.com                      |
|    \\/     M anipulation  |                                                 |
\*---------------------------------------------------------------------------*/
FoamFile
{
    version     2.0;
    format      ascii;
    arch        "LSB;label=32;scalar=64";
    class       volScalarField;
    location    "13/fluidRegion";
    object      alphat;
}
// * * * * * * * * * * * * * * * * * * * * * * * * * * * * * * * * * * * * * //

dimensions      [1 -1 -1 0 0 0 0];

internalField   nonuniform List<scalar> 
350
(
0.00257638
0.00257639
0.00257639
0.00257639
0.00257639
0.0025764
0.00257641
0.00257642
0.00257644
0.00257647
0.00257652
0.00257659
0.00257669
0.00257686
0.00257711
0.00257749
0.00257808
0.00257897
0.00258034
0.00258243
0.00258563
0.00259051
0.00259797
0.00260938
0.00262681
0.00257638
0.00257639
0.00257639
0.00257639
0.00257639
0.0025764
0.00257641
0.00257642
0.00257644
0.00257647
0.00257652
0.00257659
0.00257669
0.00257686
0.00257711
0.00257749
0.00257808
0.00257897
0.00258034
0.00258243
0.00258563
0.00259051
0.00259797
0.00260938
0.00262681
0.000834364
0.000821812
0.000810109
0.000798425
0.000786703
0.000774895
0.000762956
0.000750853
0.000738558
0.000726053
0.000713329
0.000700385
0.000687237
0.00067393
0.000660566
0.000647356
0.000634722
0.000623471
0.000615117
0.00061244
0.000620375
0.000646987
0.000702838
0.000795653
0.000924751
0.00082911
0.000816485
0.000804731
0.000793011
0.000781271
0.000769459
0.000757534
0.000745462
0.000733217
0.000720781
0.000708149
0.00069532
0.000682314
0.000669175
0.000656003
0.00064301
0.000630614
0.000619622
0.000611545
0.00060917
0.000617451
0.0006445
0.000700963
0.000794618
0.000924674
0.000835212
0.000822669
0.000810972
0.00079929
0.000787567
0.000775755
0.000763811
0.000751699
0.000739392
0.000726873
0.00071413
0.000701164
0.00068799
0.000674653
0.000661254
0.000648005
0.00063533
0.000624034
0.000615632
0.000612904
0.000620786
0.00064734
0.000703124
0.000795864
0.00092491
0.000830324
0.000817716
0.000805975
0.000794263
0.000782527
0.000770716
0.000758788
0.000746709
0.000734452
0.000722
0.000709345
0.00069649
0.000683451
0.000670272
0.000657055
0.000644012
0.00063156
0.000620508
0.000612367
0.000609922
0.000618124
0.000645071
0.000701392
0.000794851
0.000924681
0.000830324
0.000817716
0.000805975
0.000794263
0.000782527
0.000770717
0.000758788
0.000746709
0.000734452
0.000722
0.000709345
0.00069649
0.000683451
0.000670272
0.000657055
0.000644012
0.00063156
0.000620508
0.000612367
0.000609922
0.000618124
0.000645071
0.000701392
0.000794851
0.000924681
0.000835213
0.00082267
0.000810972
0.00079929
0.000787567
0.000775755
0.000763811
0.000751699
0.000739392
0.000726873
0.00071413
0.000701164
0.00068799
0.000674652
0.000661253
0.000648005
0.000635329
0.000624034
0.000615632
0.000612904
0.000620786
0.00064734
0.000703125
0.000795866
0.000924913
0.00082911
0.000816485
0.000804731
0.000793011
0.00078127
0.000769459
0.000757534
0.000745462
0.000733216
0.000720781
0.000708149
0.00069532
0.000682314
0.000669175
0.000656003
0.00064301
0.000630614
0.000619622
0.000611545
0.00060917
0.000617451
0.0006445
0.000700963
0.000794618
0.000924674
0.000834364
0.000821812
0.000810109
0.000798425
0.000786704
0.000774895
0.000762956
0.000750853
0.000738558
0.000726053
0.000713329
0.000700385
0.000687237
0.00067393
0.000660566
0.000647356
0.000634722
0.000623471
0.000615117
0.000612439
0.000620374
0.000646986
0.000702837
0.000795651
0.000924748
0.000830324
0.000817716
0.000805975
0.000794263
0.000782527
0.000770716
0.000758788
0.000746709
0.000734452
0.000722
0.000709345
0.00069649
0.000683451
0.000670272
0.000657055
0.000644012
0.000631561
0.000620508
0.000612367
0.000609922
0.000618124
0.000645071
0.000701392
0.000794851
0.000924681
0.000835212
0.000822669
0.000810972
0.00079929
0.000787568
0.000775756
0.000763811
0.000751699
0.000739393
0.000726873
0.00071413
0.000701164
0.00068799
0.000674653
0.000661254
0.000648005
0.00063533
0.000624034
0.000615632
0.000612904
0.000620785
0.000647338
0.000703122
0.000795861
0.000924906
0.000835212
0.000822669
0.000810972
0.00079929
0.000787567
0.000775755
0.000763811
0.000751699
0.000739392
0.000726873
0.00071413
0.000701164
0.00068799
0.000674653
0.000661253
0.000648005
0.000635329
0.000624034
0.000615632
0.000612904
0.000620786
0.000647339
0.000703124
0.000795865
0.000924911
0.000830324
0.000817716
0.000805975
0.000794264
0.000782528
0.000770717
0.000758789
0.000746709
0.000734452
0.000722
0.000709346
0.00069649
0.000683451
0.000670272
0.000657055
0.000644012
0.00063156
0.000620508
0.000612367
0.000609922
0.000618123
0.00064507
0.000701391
0.000794849
0.000924677
)
;

boundaryField
{
    outletCentralUnloaded
    {
        type            zeroGradient;
    }
    inletCentralUnloaded
    {
        type            zeroGradient;
    }
    outletFuelElement
    {
        type            zeroGradient;
    }
    inletFuelElement
    {
        type            zeroGradient;
    }
    defaultFaces
    {
        type            zeroGradient;
    }
    baffle_master
    {
        type            calculated;
        value           nonuniform List<scalar> 
150
(
0.00257638
0.00257638
0.00257638
0.00257639
0.00257639
0.00257639
0.00257639
0.00257639
0.00257639
0.00257639
0.00257639
0.00257639
0.00257639
0.00257639
0.00257639
0.0025764
0.0025764
0.0025764
0.00257641
0.00257641
0.00257641
0.00257642
0.00257642
0.00257642
0.00257644
0.00257644
0.00257644
0.00257647
0.00257647
0.00257647
0.00257652
0.00257652
0.00257652
0.00257659
0.00257659
0.00257659
0.00257669
0.00257669
0.00257669
0.00257686
0.00257686
0.00257686
0.00257711
0.00257711
0.00257711
0.00257749
0.00257749
0.00257749
0.00257808
0.00257808
0.00257808
0.00257897
0.00257897
0.00257897
0.00258034
0.00258034
0.00258034
0.00258243
0.00258243
0.00258243
0.00258563
0.00258563
0.00258563
0.00259051
0.00259051
0.00259051
0.00259797
0.00259797
0.00259797
0.00260938
0.00260938
0.00260938
0.00262681
0.00262681
0.00262681
0.00257638
0.00257638
0.00257638
0.00257639
0.00257639
0.00257639
0.00257639
0.00257639
0.00257639
0.00257639
0.00257639
0.00257639
0.00257639
0.00257639
0.00257639
0.0025764
0.0025764
0.0025764
0.00257641
0.00257641
0.00257641
0.00257642
0.00257642
0.00257642
0.00257644
0.00257644
0.00257644
0.00257647
0.00257647
0.00257647
0.00257652
0.00257652
0.00257652
0.00257659
0.00257659
0.00257659
0.00257669
0.00257669
0.00257669
0.00257686
0.00257686
0.00257686
0.00257711
0.00257711
0.00257711
0.00257749
0.00257749
0.00257749
0.00257808
0.00257808
0.00257808
0.00257897
0.00257897
0.00257897
0.00258034
0.00258034
0.00258034
0.00258243
0.00258243
0.00258243
0.00258563
0.00258563
0.00258563
0.00259051
0.00259051
0.00259051
0.00259797
0.00259797
0.00259797
0.00260938
0.00260938
0.00260938
0.00262681
0.00262681
0.00262681
)
;
    }
    baffle_slave
    {
        type            calculated;
        value           nonuniform List<scalar> 
150
(
0.00082911
0.000830324
0.000830324
0.000816485
0.000817716
0.000817716
0.000804731
0.000805975
0.000805975
0.000793011
0.000794263
0.000794264
0.000781271
0.000782527
0.000782528
0.000769459
0.000770716
0.000770717
0.000757534
0.000758788
0.000758789
0.000745462
0.000746709
0.000746709
0.000733217
0.000734452
0.000734452
0.000720781
0.000722
0.000722
0.000708149
0.000709345
0.000709346
0.00069532
0.00069649
0.00069649
0.000682314
0.000683451
0.000683451
0.000669175
0.000670272
0.000670272
0.000656003
0.000657055
0.000657055
0.00064301
0.000644012
0.000644012
0.000630614
0.00063156
0.00063156
0.000619622
0.000620508
0.000620508
0.000611545
0.000612367
0.000612367
0.00060917
0.000609922
0.000609922
0.000617451
0.000618124
0.000618123
0.0006445
0.000645071
0.00064507
0.000700963
0.000701392
0.000701391
0.000794618
0.000794851
0.000794849
0.000924674
0.000924681
0.000924677
0.000830324
0.00082911
0.000830324
0.000817716
0.000816485
0.000817716
0.000805975
0.000804731
0.000805975
0.000794263
0.000793011
0.000794263
0.000782527
0.00078127
0.000782527
0.000770717
0.000769459
0.000770716
0.000758788
0.000757534
0.000758788
0.000746709
0.000745462
0.000746709
0.000734452
0.000733216
0.000734452
0.000722
0.000720781
0.000722
0.000709345
0.000708149
0.000709345
0.00069649
0.00069532
0.00069649
0.000683451
0.000682314
0.000683451
0.000670272
0.000669175
0.000670272
0.000657055
0.000656003
0.000657055
0.000644012
0.00064301
0.000644012
0.00063156
0.000630614
0.000631561
0.000620508
0.000619622
0.000620508
0.000612367
0.000611545
0.000612367
0.000609922
0.00060917
0.000609922
0.000618124
0.000617451
0.000618124
0.000645071
0.0006445
0.000645071
0.000701392
0.000700963
0.000701392
0.000794851
0.000794618
0.000794851
0.000924681
0.000924674
0.000924681
)
;
    }
}


// ************************************************************************* //
