/*--------------------------------*- C++ -*----------------------------------*\
| =========                 |                                                 |
| \\      /  F ield         | OpenFOAM: The Open Source CFD Toolbox           |
|  \\    /   O peration     | Version:  2212                                  |
|   \\  /    A nd           | Website:  www.openfoam.com                      |
|    \\/     M anipulation  |                                                 |
\*---------------------------------------------------------------------------*/
FoamFile
{
    version     2.0;
    format      ascii;
    arch        "LSB;label=32;scalar=64";
    class       volScalarField;
    location    "13/fluidRegion";
    object      deltaT;
}
// * * * * * * * * * * * * * * * * * * * * * * * * * * * * * * * * * * * * * //

dimensions      [0 0 0 1 0 0 0];

internalField   nonuniform List<scalar> 
350
(
0
0
0
0
0
0
0
0
0
0
0
0
0
0
0
0
0
0
0
0
0
0
0
0
0
0
0
0
0
0
0
0
0
0
0
0
0
0
0
0
0
0
0
0
0
0
0
0
0
0
0
10.3739
35.7596
60.9195
85.783
110.274
134.309
157.788
180.597
202.597
223.622
243.474
261.915
278.664
293.379
305.629
314.852
320.283
320.852
315.076
300.948
275.996
237.643
184.206
117.289
0
10.031
35.6479
61.0368
86.1276
110.845
135.106
158.812
181.847
204.073
225.322
245.392
264.044
280.99
295.884
308.291
317.642
323.164
323.777
317.974
303.719
278.492
239.67
185.546
117.763
0
10.4323
35.7806
60.9034
85.7302
110.185
134.183
157.626
180.398
202.362
223.351
243.168
261.576
278.294
292.98
305.207
314.411
319.828
320.393
314.623
300.519
275.612
237.335
184.004
117.216
0
10.1058
35.6696
61.0059
86.0445
110.71
134.919
158.573
181.556
203.731
224.928
244.948
263.552
280.453
295.306
307.676
316.998
322.5
323.102
317.305
303.079
277.915
239.202
185.236
117.653
0
10.1058
35.6696
61.0059
86.0445
110.71
134.919
158.573
181.556
203.731
224.928
244.948
263.552
280.453
295.306
307.676
316.998
322.5
323.102
317.305
303.079
277.915
239.202
185.236
117.653
0
10.4322
35.7806
60.9034
85.7302
110.185
134.183
157.626
180.398
202.362
223.351
243.167
261.576
278.294
292.98
305.207
314.411
319.828
320.393
314.623
300.519
275.613
237.335
184.004
117.216
0
10.031
35.648
61.0368
86.1276
110.845
135.106
158.811
181.847
204.073
225.322
245.392
264.043
280.99
295.884
308.291
317.642
323.164
323.777
317.974
303.719
278.492
239.67
185.546
117.763
0
10.3739
35.7597
60.9195
85.783
110.274
134.309
157.788
180.597
202.597
223.622
243.474
261.915
278.664
293.379
305.629
314.852
320.283
320.852
315.076
300.948
275.996
237.643
184.206
117.289
0
10.1058
35.6696
61.0059
86.0445
110.71
134.919
158.573
181.556
203.731
224.928
244.948
263.552
280.453
295.306
307.676
316.998
322.5
323.102
317.305
303.079
277.915
239.202
185.236
117.653
0
10.4323
35.7806
60.9035
85.7302
110.185
134.183
157.626
180.398
202.362
223.351
243.168
261.576
278.294
292.98
305.207
314.411
319.828
320.393
314.623
300.519
275.613
237.335
184.004
117.216
0
10.4322
35.7806
60.9034
85.7302
110.185
134.183
157.626
180.398
202.362
223.351
243.168
261.576
278.294
292.98
305.206
314.411
319.828
320.393
314.623
300.519
275.613
237.335
184.004
117.216
0
10.1058
35.6696
61.0059
86.0445
110.71
134.919
158.573
181.556
203.731
224.928
244.948
263.552
280.453
295.306
307.676
316.998
322.5
323.102
317.305
303.079
277.915
239.202
185.236
117.653
)
;

boundaryField
{
    outletCentralUnloaded
    {
        type            calculated;
        value           uniform 0;
    }
    inletCentralUnloaded
    {
        type            calculated;
        value           uniform 0;
    }
    outletFuelElement
    {
        type            calculated;
        value           uniform 0;
    }
    inletFuelElement
    {
        type            calculated;
        value           uniform 616.7;
    }
    defaultFaces
    {
        type            calculated;
        value           nonuniform List<scalar> 
450
(
0
0
0
0
0
0
0
0
0
0
0
0
0
0
0
0
0
0
0
0
0
0
0
0
0
0
0
0
0
0
0
0
0
29.5068
29.5068
29.5068
86.1157
86.1157
86.1157
144.021
144.021
144.021
202.233
202.233
202.233
259.769
259.769
259.769
315.674
315.674
315.674
369.042
369.042
369.042
419.017
419.017
419.017
464.797
464.797
464.797
505.629
505.629
505.629
540.833
540.833
540.833
569.834
569.834
569.834
592.239
592.239
592.239
607.91
607.91
607.91
0
0
0
0
0
0
0
0
0
0
0
0
0
0
0
0
0
0
0
0
0
0
30.8008
30.8008
87.2723
87.2723
145.036
145.036
203.105
203.105
260.5
260.5
316.271
316.271
369.514
369.514
419.375
419.375
465.056
465.056
505.804
505.804
540.94
540.94
569.891
569.891
592.263
592.263
607.916
607.916
0
0
0
0
0
0
0
0
0
0
0
23.2049
80.4635
139.046
197.943
256.155
312.712
366.69
417.222
463.494
504.745
540.287
569.543
592.119
607.884
0
0
0
0
0
0
0
0
0
0
0
23.205
80.4635
139.046
197.943
256.155
312.712
366.69
417.222
463.494
504.745
540.287
569.543
592.119
607.884
0
0
0
0
0
0
0
0
0
0
0
0
0
0
0
0
0
0
0
0
0
0
30.8006
30.8006
87.272
87.272
145.035
145.035
203.104
203.104
260.499
260.499
316.27
316.27
369.513
369.513
419.375
419.375
465.056
465.056
505.803
505.803
540.94
540.94
569.891
569.891
592.263
592.263
607.916
607.916
0
0
0
0
0
0
0
0
0
0
0
0
0
0
0
0
0
0
0
0
0
0
0
0
0
0
0
0
0
0
0
0
0
29.5068
29.5068
29.5068
86.1157
86.1157
86.1157
144.021
144.021
144.021
202.233
202.233
202.233
259.769
259.769
259.769
315.674
315.674
315.674
369.042
369.042
369.042
419.017
419.017
419.017
464.797
464.797
464.797
505.629
505.629
505.629
540.833
540.833
540.833
569.834
569.834
569.834
592.239
592.239
592.239
607.91
607.91
607.91
0
0
0
0
0
0
0
0
0
0
0
23.205
80.4636
139.046
197.943
256.155
312.712
366.69
417.222
463.494
504.745
540.287
569.543
592.119
607.884
0
0
0
0
0
0
0
0
0
0
0
0
0
0
0
0
0
0
0
0
0
0
30.8009
30.8009
87.2723
87.2723
145.036
145.036
203.105
203.105
260.5
260.5
316.271
316.271
369.514
369.514
419.375
419.375
465.056
465.056
505.804
505.804
540.94
540.94
569.891
569.891
592.263
592.263
607.916
607.916
0
0
0
0
0
0
0
0
0
0
0
0
0
0
0
0
0
0
0
0
0
0
30.8006
30.8006
87.272
87.272
145.036
145.036
203.104
203.104
260.499
260.499
316.27
316.27
369.513
369.513
419.375
419.375
465.056
465.056
505.803
505.803
540.94
540.94
569.891
569.891
592.263
592.263
607.916
607.916
0
0
0
0
0
0
0
0
0
0
0
23.205
80.4636
139.046
197.943
256.155
312.712
366.69
417.222
463.494
504.745
540.287
569.543
592.119
607.884
)
;
    }
    baffle_master
    {
        type            calculated;
        value           uniform 0;
    }
    baffle_slave
    {
        type            calculated;
        value           nonuniform List<scalar> 
150
(
0
0
0
0
0
0
0
0
0
0
0
0
0
0
0
0
0
0
0
0
0
0
0
0
0
0
0
0
0
0
0
0
0
21.3332
23.2049
23.205
78.7822
80.4635
80.4636
137.563
139.046
139.046
196.664
197.943
197.943
255.076
256.155
256.155
311.826
312.712
312.712
365.987
366.69
366.69
416.684
417.222
417.222
463.104
463.494
463.494
504.479
504.745
504.745
540.123
540.287
540.287
569.455
569.543
569.543
592.083
592.119
592.119
607.876
607.884
607.884
0
0
0
0
0
0
0
0
0
0
0
0
0
0
0
0
0
0
0
0
0
0
0
0
0
0
0
0
0
0
0
0
0
23.205
21.3332
23.205
80.4635
78.7822
80.4636
139.046
137.564
139.046
197.943
196.664
197.943
256.155
255.076
256.155
312.712
311.826
312.712
366.69
365.987
366.69
417.222
416.684
417.222
463.494
463.104
463.494
504.745
504.479
504.745
540.287
540.123
540.287
569.543
569.455
569.543
592.119
592.083
592.119
607.884
607.876
607.884
)
;
    }
}


// ************************************************************************* //
