/*--------------------------------*- C++ -*----------------------------------*\
| =========                 |                                                 |
| \\      /  F ield         | OpenFOAM: The Open Source CFD Toolbox           |
|  \\    /   O peration     | Version:  2212                                  |
|   \\  /    A nd           | Website:  www.openfoam.com                      |
|    \\/     M anipulation  |                                                 |
\*---------------------------------------------------------------------------*/
FoamFile
{
    version     2.0;
    format      ascii;
    arch        "LSB;label=32;scalar=64";
    class       volTensorField;
    location    "13/fluidRegion";
    object      Kd;
}
// * * * * * * * * * * * * * * * * * * * * * * * * * * * * * * * * * * * * * //

dimensions      [1 -3 -1 0 0 0 0];

internalField   nonuniform List<tensor> 
350
(
(84.4811 0 0 0 84.4811 0 0 0 84.4811)
(84.4811 0 0 0 84.4811 0 0 0 84.4811)
(84.4811 0 0 0 84.4811 0 0 0 84.4811)
(84.4811 0 0 0 84.4811 0 0 0 84.4811)
(84.4811 0 0 0 84.4811 0 0 0 84.4811)
(84.4811 0 0 0 84.4811 0 0 0 84.4811)
(84.4811 0 0 0 84.4811 0 0 0 84.4811)
(84.4811 0 0 0 84.4811 0 0 0 84.4811)
(84.4811 0 0 0 84.4811 0 0 0 84.4811)
(84.4811 0 0 0 84.4811 0 0 0 84.4811)
(84.4811 0 0 0 84.4811 0 0 0 84.4811)
(84.4811 0 0 0 84.4811 0 0 0 84.4811)
(84.4811 0 0 0 84.4811 0 0 0 84.4811)
(84.4811 0 0 0 84.4811 0 0 0 84.4811)
(84.4811 0 0 0 84.4811 0 0 0 84.4811)
(84.4811 0 0 0 84.4811 0 0 0 84.4811)
(84.4811 0 0 0 84.4811 0 0 0 84.4811)
(84.4811 0 0 0 84.4811 0 0 0 84.4811)
(84.4811 0 0 0 84.4811 0 0 0 84.4811)
(84.4811 0 0 0 84.4811 0 0 0 84.4811)
(84.4811 0 0 0 84.4811 0 0 0 84.4811)
(84.4811 0 0 0 84.4811 0 0 0 84.4811)
(84.4811 0 0 0 84.4811 0 0 0 84.4811)
(84.4811 0 0 0 84.4811 0 0 0 84.4811)
(84.7428 0 0 0 84.7428 0 0 0 84.7428)
(84.4811 0 0 0 84.4811 0 0 0 84.4811)
(84.4811 0 0 0 84.4811 0 0 0 84.4811)
(84.4811 0 0 0 84.4811 0 0 0 84.4811)
(84.4811 0 0 0 84.4811 0 0 0 84.4811)
(84.4811 0 0 0 84.4811 0 0 0 84.4811)
(84.4811 0 0 0 84.4811 0 0 0 84.4811)
(84.4811 0 0 0 84.4811 0 0 0 84.4811)
(84.4811 0 0 0 84.4811 0 0 0 84.4811)
(84.4811 0 0 0 84.4811 0 0 0 84.4811)
(84.4811 0 0 0 84.4811 0 0 0 84.4811)
(84.4811 0 0 0 84.4811 0 0 0 84.4811)
(84.4811 0 0 0 84.4811 0 0 0 84.4811)
(84.4811 0 0 0 84.4811 0 0 0 84.4811)
(84.4811 0 0 0 84.4811 0 0 0 84.4811)
(84.4811 0 0 0 84.4811 0 0 0 84.4811)
(84.4811 0 0 0 84.4811 0 0 0 84.4811)
(84.4811 0 0 0 84.4811 0 0 0 84.4811)
(84.4811 0 0 0 84.4811 0 0 0 84.4811)
(84.4811 0 0 0 84.4811 0 0 0 84.4811)
(84.4811 0 0 0 84.4811 0 0 0 84.4811)
(84.4811 0 0 0 84.4811 0 0 0 84.4811)
(84.4811 0 0 0 84.4811 0 0 0 84.4811)
(84.4811 0 0 0 84.4811 0 0 0 84.4811)
(84.4811 0 0 0 84.4811 0 0 0 84.4811)
(84.7428 0 0 0 84.7428 0 0 0 84.7428)
(627.806 0 0 0 627.806 0 0 0 627.806)
(626.428 0 0 0 626.428 0 0 0 626.428)
(626.453 0 0 0 626.453 0 0 0 626.453)
(626.47 0 0 0 626.47 0 0 0 626.47)
(626.478 0 0 0 626.478 0 0 0 626.478)
(626.475 0 0 0 626.475 0 0 0 626.475)
(626.462 0 0 0 626.462 0 0 0 626.462)
(626.438 0 0 0 626.438 0 0 0 626.438)
(626.403 0 0 0 626.403 0 0 0 626.403)
(626.356 0 0 0 626.356 0 0 0 626.356)
(626.298 0 0 0 626.298 0 0 0 626.298)
(626.227 0 0 0 626.227 0 0 0 626.227)
(626.141 0 0 0 626.141 0 0 0 626.141)
(626.04 0 0 0 626.04 0 0 0 626.04)
(625.921 0 0 0 625.921 0 0 0 625.921)
(625.784 0 0 0 625.784 0 0 0 625.784)
(625.632 0 0 0 625.632 0 0 0 625.632)
(625.478 0 0 0 625.478 0 0 0 625.478)
(625.348 0 0 0 625.348 0 0 0 625.348)
(625.304 0 0 0 625.304 0 0 0 625.304)
(625.453 0 0 0 625.453 0 0 0 625.453)
(625.994 0 0 0 625.994 0 0 0 625.994)
(627.216 0 0 0 627.216 0 0 0 627.216)
(629.477 0 0 0 629.477 0 0 0 629.477)
(627.991 0 0 0 627.991 0 0 0 627.991)
(624.781 0 0 0 624.781 0 0 0 624.781)
(623.319 0 0 0 623.319 0 0 0 623.319)
(623.282 0 0 0 623.282 0 0 0 623.282)
(623.241 0 0 0 623.241 0 0 0 623.241)
(623.2 0 0 0 623.2 0 0 0 623.2)
(623.157 0 0 0 623.157 0 0 0 623.157)
(623.113 0 0 0 623.113 0 0 0 623.113)
(623.069 0 0 0 623.069 0 0 0 623.069)
(623.026 0 0 0 623.026 0 0 0 623.026)
(622.986 0 0 0 622.986 0 0 0 622.986)
(622.948 0 0 0 622.948 0 0 0 622.948)
(622.915 0 0 0 622.915 0 0 0 622.915)
(622.887 0 0 0 622.887 0 0 0 622.887)
(622.864 0 0 0 622.864 0 0 0 622.864)
(622.847 0 0 0 622.847 0 0 0 622.847)
(622.837 0 0 0 622.837 0 0 0 622.837)
(622.839 0 0 0 622.839 0 0 0 622.839)
(622.869 0 0 0 622.869 0 0 0 622.869)
(622.956 0 0 0 622.956 0 0 0 622.956)
(623.17 0 0 0 623.17 0 0 0 623.17)
(623.623 0 0 0 623.623 0 0 0 623.623)
(624.522 0 0 0 624.522 0 0 0 624.522)
(626.158 0 0 0 626.158 0 0 0 626.158)
(628.869 0 0 0 628.869 0 0 0 628.869)
(627.81 0 0 0 627.81 0 0 0 627.81)
(628.313 0 0 0 628.313 0 0 0 628.313)
(626.945 0 0 0 626.945 0 0 0 626.945)
(626.981 0 0 0 626.981 0 0 0 626.981)
(627.006 0 0 0 627.006 0 0 0 627.006)
(627.019 0 0 0 627.019 0 0 0 627.019)
(627.02 0 0 0 627.02 0 0 0 627.02)
(627.009 0 0 0 627.009 0 0 0 627.009)
(626.985 0 0 0 626.985 0 0 0 626.985)
(626.949 0 0 0 626.949 0 0 0 626.949)
(626.899 0 0 0 626.899 0 0 0 626.899)
(626.834 0 0 0 626.834 0 0 0 626.834)
(626.753 0 0 0 626.753 0 0 0 626.753)
(626.655 0 0 0 626.655 0 0 0 626.655)
(626.537 0 0 0 626.537 0 0 0 626.537)
(626.398 0 0 0 626.398 0 0 0 626.398)
(626.236 0 0 0 626.236 0 0 0 626.236)
(626.056 0 0 0 626.056 0 0 0 626.056)
(625.867 0 0 0 625.867 0 0 0 625.867)
(625.697 0 0 0 625.697 0 0 0 625.697)
(625.606 0 0 0 625.606 0 0 0 625.606)
(625.7 0 0 0 625.7 0 0 0 625.7)
(626.178 0 0 0 626.178 0 0 0 626.178)
(627.331 0 0 0 627.331 0 0 0 627.331)
(629.525 0 0 0 629.525 0 0 0 629.525)
(627.997 0 0 0 627.997 0 0 0 627.997)
(625.46 0 0 0 625.46 0 0 0 625.46)
(624.018 0 0 0 624.018 0 0 0 624.018)
(623.996 0 0 0 623.996 0 0 0 623.996)
(623.97 0 0 0 623.97 0 0 0 623.97)
(623.941 0 0 0 623.941 0 0 0 623.941)
(623.908 0 0 0 623.908 0 0 0 623.908)
(623.873 0 0 0 623.873 0 0 0 623.873)
(623.835 0 0 0 623.835 0 0 0 623.835)
(623.795 0 0 0 623.795 0 0 0 623.795)
(623.754 0 0 0 623.754 0 0 0 623.754)
(623.713 0 0 0 623.713 0 0 0 623.713)
(623.672 0 0 0 623.672 0 0 0 623.672)
(623.632 0 0 0 623.632 0 0 0 623.632)
(623.592 0 0 0 623.592 0 0 0 623.592)
(623.553 0 0 0 623.553 0 0 0 623.553)
(623.514 0 0 0 623.514 0 0 0 623.514)
(623.482 0 0 0 623.482 0 0 0 623.482)
(623.471 0 0 0 623.471 0 0 0 623.471)
(623.509 0 0 0 623.509 0 0 0 623.509)
(623.665 0 0 0 623.665 0 0 0 623.665)
(624.049 0 0 0 624.049 0 0 0 624.049)
(624.866 0 0 0 624.866 0 0 0 624.866)
(626.407 0 0 0 626.407 0 0 0 626.407)
(629.015 0 0 0 629.015 0 0 0 629.015)
(627.854 0 0 0 627.854 0 0 0 627.854)
(625.46 0 0 0 625.46 0 0 0 625.46)
(624.018 0 0 0 624.018 0 0 0 624.018)
(623.996 0 0 0 623.996 0 0 0 623.996)
(623.97 0 0 0 623.97 0 0 0 623.97)
(623.941 0 0 0 623.941 0 0 0 623.941)
(623.908 0 0 0 623.908 0 0 0 623.908)
(623.873 0 0 0 623.873 0 0 0 623.873)
(623.835 0 0 0 623.835 0 0 0 623.835)
(623.795 0 0 0 623.795 0 0 0 623.795)
(623.754 0 0 0 623.754 0 0 0 623.754)
(623.713 0 0 0 623.713 0 0 0 623.713)
(623.672 0 0 0 623.672 0 0 0 623.672)
(623.632 0 0 0 623.632 0 0 0 623.632)
(623.592 0 0 0 623.592 0 0 0 623.592)
(623.553 0 0 0 623.553 0 0 0 623.553)
(623.514 0 0 0 623.514 0 0 0 623.514)
(623.482 0 0 0 623.482 0 0 0 623.482)
(623.471 0 0 0 623.471 0 0 0 623.471)
(623.509 0 0 0 623.509 0 0 0 623.509)
(623.665 0 0 0 623.665 0 0 0 623.665)
(624.049 0 0 0 624.049 0 0 0 624.049)
(624.866 0 0 0 624.866 0 0 0 624.866)
(626.407 0 0 0 626.407 0 0 0 626.407)
(629.015 0 0 0 629.015 0 0 0 629.015)
(627.854 0 0 0 627.854 0 0 0 627.854)
(628.313 0 0 0 628.313 0 0 0 628.313)
(626.946 0 0 0 626.946 0 0 0 626.946)
(626.981 0 0 0 626.981 0 0 0 626.981)
(627.006 0 0 0 627.006 0 0 0 627.006)
(627.019 0 0 0 627.019 0 0 0 627.019)
(627.02 0 0 0 627.02 0 0 0 627.02)
(627.009 0 0 0 627.009 0 0 0 627.009)
(626.985 0 0 0 626.985 0 0 0 626.985)
(626.949 0 0 0 626.949 0 0 0 626.949)
(626.899 0 0 0 626.899 0 0 0 626.899)
(626.834 0 0 0 626.834 0 0 0 626.834)
(626.753 0 0 0 626.753 0 0 0 626.753)
(626.655 0 0 0 626.655 0 0 0 626.655)
(626.537 0 0 0 626.537 0 0 0 626.537)
(626.398 0 0 0 626.398 0 0 0 626.398)
(626.236 0 0 0 626.236 0 0 0 626.236)
(626.055 0 0 0 626.055 0 0 0 626.055)
(625.867 0 0 0 625.867 0 0 0 625.867)
(625.697 0 0 0 625.697 0 0 0 625.697)
(625.606 0 0 0 625.606 0 0 0 625.606)
(625.7 0 0 0 625.7 0 0 0 625.7)
(626.177 0 0 0 626.177 0 0 0 626.177)
(627.331 0 0 0 627.331 0 0 0 627.331)
(629.525 0 0 0 629.525 0 0 0 629.525)
(627.997 0 0 0 627.997 0 0 0 627.997)
(624.781 0 0 0 624.781 0 0 0 624.781)
(623.319 0 0 0 623.319 0 0 0 623.319)
(623.282 0 0 0 623.282 0 0 0 623.282)
(623.241 0 0 0 623.241 0 0 0 623.241)
(623.2 0 0 0 623.2 0 0 0 623.2)
(623.157 0 0 0 623.157 0 0 0 623.157)
(623.113 0 0 0 623.113 0 0 0 623.113)
(623.069 0 0 0 623.069 0 0 0 623.069)
(623.026 0 0 0 623.026 0 0 0 623.026)
(622.986 0 0 0 622.986 0 0 0 622.986)
(622.948 0 0 0 622.948 0 0 0 622.948)
(622.915 0 0 0 622.915 0 0 0 622.915)
(622.887 0 0 0 622.887 0 0 0 622.887)
(622.864 0 0 0 622.864 0 0 0 622.864)
(622.847 0 0 0 622.847 0 0 0 622.847)
(622.837 0 0 0 622.837 0 0 0 622.837)
(622.839 0 0 0 622.839 0 0 0 622.839)
(622.869 0 0 0 622.869 0 0 0 622.869)
(622.956 0 0 0 622.956 0 0 0 622.956)
(623.17 0 0 0 623.17 0 0 0 623.17)
(623.623 0 0 0 623.623 0 0 0 623.623)
(624.522 0 0 0 624.522 0 0 0 624.522)
(626.158 0 0 0 626.158 0 0 0 626.158)
(628.869 0 0 0 628.869 0 0 0 628.869)
(627.81 0 0 0 627.81 0 0 0 627.81)
(627.806 0 0 0 627.806 0 0 0 627.806)
(626.428 0 0 0 626.428 0 0 0 626.428)
(626.453 0 0 0 626.453 0 0 0 626.453)
(626.47 0 0 0 626.47 0 0 0 626.47)
(626.478 0 0 0 626.478 0 0 0 626.478)
(626.475 0 0 0 626.475 0 0 0 626.475)
(626.462 0 0 0 626.462 0 0 0 626.462)
(626.438 0 0 0 626.438 0 0 0 626.438)
(626.403 0 0 0 626.403 0 0 0 626.403)
(626.356 0 0 0 626.356 0 0 0 626.356)
(626.298 0 0 0 626.298 0 0 0 626.298)
(626.227 0 0 0 626.227 0 0 0 626.227)
(626.141 0 0 0 626.141 0 0 0 626.141)
(626.04 0 0 0 626.04 0 0 0 626.04)
(625.921 0 0 0 625.921 0 0 0 625.921)
(625.784 0 0 0 625.784 0 0 0 625.784)
(625.632 0 0 0 625.632 0 0 0 625.632)
(625.478 0 0 0 625.478 0 0 0 625.478)
(625.348 0 0 0 625.348 0 0 0 625.348)
(625.304 0 0 0 625.304 0 0 0 625.304)
(625.453 0 0 0 625.453 0 0 0 625.453)
(625.994 0 0 0 625.994 0 0 0 625.994)
(627.216 0 0 0 627.216 0 0 0 627.216)
(629.477 0 0 0 629.477 0 0 0 629.477)
(627.991 0 0 0 627.991 0 0 0 627.991)
(625.46 0 0 0 625.46 0 0 0 625.46)
(624.018 0 0 0 624.018 0 0 0 624.018)
(623.996 0 0 0 623.996 0 0 0 623.996)
(623.97 0 0 0 623.97 0 0 0 623.97)
(623.941 0 0 0 623.941 0 0 0 623.941)
(623.908 0 0 0 623.908 0 0 0 623.908)
(623.873 0 0 0 623.873 0 0 0 623.873)
(623.835 0 0 0 623.835 0 0 0 623.835)
(623.795 0 0 0 623.795 0 0 0 623.795)
(623.754 0 0 0 623.754 0 0 0 623.754)
(623.713 0 0 0 623.713 0 0 0 623.713)
(623.672 0 0 0 623.672 0 0 0 623.672)
(623.632 0 0 0 623.632 0 0 0 623.632)
(623.592 0 0 0 623.592 0 0 0 623.592)
(623.553 0 0 0 623.553 0 0 0 623.553)
(623.514 0 0 0 623.514 0 0 0 623.514)
(623.482 0 0 0 623.482 0 0 0 623.482)
(623.471 0 0 0 623.471 0 0 0 623.471)
(623.509 0 0 0 623.509 0 0 0 623.509)
(623.665 0 0 0 623.665 0 0 0 623.665)
(624.049 0 0 0 624.049 0 0 0 624.049)
(624.866 0 0 0 624.866 0 0 0 624.866)
(626.408 0 0 0 626.408 0 0 0 626.408)
(629.015 0 0 0 629.015 0 0 0 629.015)
(627.854 0 0 0 627.854 0 0 0 627.854)
(628.313 0 0 0 628.313 0 0 0 628.313)
(626.945 0 0 0 626.945 0 0 0 626.945)
(626.981 0 0 0 626.981 0 0 0 626.981)
(627.006 0 0 0 627.006 0 0 0 627.006)
(627.019 0 0 0 627.019 0 0 0 627.019)
(627.02 0 0 0 627.02 0 0 0 627.02)
(627.009 0 0 0 627.009 0 0 0 627.009)
(626.985 0 0 0 626.985 0 0 0 626.985)
(626.949 0 0 0 626.949 0 0 0 626.949)
(626.899 0 0 0 626.899 0 0 0 626.899)
(626.834 0 0 0 626.834 0 0 0 626.834)
(626.753 0 0 0 626.753 0 0 0 626.753)
(626.655 0 0 0 626.655 0 0 0 626.655)
(626.537 0 0 0 626.537 0 0 0 626.537)
(626.398 0 0 0 626.398 0 0 0 626.398)
(626.236 0 0 0 626.236 0 0 0 626.236)
(626.056 0 0 0 626.056 0 0 0 626.056)
(625.868 0 0 0 625.868 0 0 0 625.868)
(625.697 0 0 0 625.697 0 0 0 625.697)
(625.606 0 0 0 625.606 0 0 0 625.606)
(625.7 0 0 0 625.7 0 0 0 625.7)
(626.178 0 0 0 626.178 0 0 0 626.178)
(627.331 0 0 0 627.331 0 0 0 627.331)
(629.525 0 0 0 629.525 0 0 0 629.525)
(627.997 0 0 0 627.997 0 0 0 627.997)
(628.313 0 0 0 628.313 0 0 0 628.313)
(626.946 0 0 0 626.946 0 0 0 626.946)
(626.981 0 0 0 626.981 0 0 0 626.981)
(627.006 0 0 0 627.006 0 0 0 627.006)
(627.019 0 0 0 627.019 0 0 0 627.019)
(627.02 0 0 0 627.02 0 0 0 627.02)
(627.009 0 0 0 627.009 0 0 0 627.009)
(626.985 0 0 0 626.985 0 0 0 626.985)
(626.949 0 0 0 626.949 0 0 0 626.949)
(626.899 0 0 0 626.899 0 0 0 626.899)
(626.834 0 0 0 626.834 0 0 0 626.834)
(626.753 0 0 0 626.753 0 0 0 626.753)
(626.655 0 0 0 626.655 0 0 0 626.655)
(626.537 0 0 0 626.537 0 0 0 626.537)
(626.398 0 0 0 626.398 0 0 0 626.398)
(626.236 0 0 0 626.236 0 0 0 626.236)
(626.055 0 0 0 626.055 0 0 0 626.055)
(625.867 0 0 0 625.867 0 0 0 625.867)
(625.697 0 0 0 625.697 0 0 0 625.697)
(625.606 0 0 0 625.606 0 0 0 625.606)
(625.7 0 0 0 625.7 0 0 0 625.7)
(626.177 0 0 0 626.177 0 0 0 626.177)
(627.331 0 0 0 627.331 0 0 0 627.331)
(629.525 0 0 0 629.525 0 0 0 629.525)
(627.997 0 0 0 627.997 0 0 0 627.997)
(625.46 0 0 0 625.46 0 0 0 625.46)
(624.018 0 0 0 624.018 0 0 0 624.018)
(623.996 0 0 0 623.996 0 0 0 623.996)
(623.97 0 0 0 623.97 0 0 0 623.97)
(623.941 0 0 0 623.941 0 0 0 623.941)
(623.908 0 0 0 623.908 0 0 0 623.908)
(623.873 0 0 0 623.873 0 0 0 623.873)
(623.835 0 0 0 623.835 0 0 0 623.835)
(623.795 0 0 0 623.795 0 0 0 623.795)
(623.754 0 0 0 623.754 0 0 0 623.754)
(623.713 0 0 0 623.713 0 0 0 623.713)
(623.672 0 0 0 623.672 0 0 0 623.672)
(623.632 0 0 0 623.632 0 0 0 623.632)
(623.592 0 0 0 623.592 0 0 0 623.592)
(623.553 0 0 0 623.553 0 0 0 623.553)
(623.514 0 0 0 623.514 0 0 0 623.514)
(623.482 0 0 0 623.482 0 0 0 623.482)
(623.471 0 0 0 623.471 0 0 0 623.471)
(623.509 0 0 0 623.509 0 0 0 623.509)
(623.665 0 0 0 623.665 0 0 0 623.665)
(624.049 0 0 0 624.049 0 0 0 624.049)
(624.866 0 0 0 624.866 0 0 0 624.866)
(626.408 0 0 0 626.408 0 0 0 626.408)
(629.015 0 0 0 629.015 0 0 0 629.015)
(627.854 0 0 0 627.854 0 0 0 627.854)
)
;

boundaryField
{
    outletCentralUnloaded
    {
        type            zeroGradient;
    }
    inletCentralUnloaded
    {
        type            zeroGradient;
    }
    outletFuelElement
    {
        type            zeroGradient;
    }
    inletFuelElement
    {
        type            zeroGradient;
    }
    defaultFaces
    {
        type            zeroGradient;
    }
    baffle_master
    {
        type            zeroGradient;
    }
    baffle_slave
    {
        type            zeroGradient;
    }
}


// ************************************************************************* //
