/*--------------------------------*- C++ -*----------------------------------*\
| =========                 |                                                 |
| \\      /  F ield         | OpenFOAM: The Open Source CFD Toolbox           |
|  \\    /   O peration     | Version:  2212                                  |
|   \\  /    A nd           | Website:  www.openfoam.com                      |
|    \\/     M anipulation  |                                                 |
\*---------------------------------------------------------------------------*/
FoamFile
{
    version     2.0;
    format      ascii;
    arch        "LSB;label=32;scalar=64";
    class       volScalarField;
    location    "13/fluidRegion";
    object      p_rgh;
}
// * * * * * * * * * * * * * * * * * * * * * * * * * * * * * * * * * * * * * //

dimensions      [1 -1 -2 0 0 0 0];

internalField   nonuniform List<scalar> 
350
(
3.44743e+06
3.44772e+06
3.44801e+06
3.44831e+06
3.4486e+06
3.44889e+06
3.44919e+06
3.44948e+06
3.44978e+06
3.45007e+06
3.45036e+06
3.45066e+06
3.45095e+06
3.45124e+06
3.45154e+06
3.45183e+06
3.45212e+06
3.45242e+06
3.45271e+06
3.45301e+06
3.4533e+06
3.45359e+06
3.45389e+06
3.45418e+06
3.45446e+06
3.44743e+06
3.44772e+06
3.44801e+06
3.44831e+06
3.4486e+06
3.44889e+06
3.44919e+06
3.44948e+06
3.44978e+06
3.45007e+06
3.45036e+06
3.45066e+06
3.45095e+06
3.45124e+06
3.45154e+06
3.45183e+06
3.45212e+06
3.45242e+06
3.45271e+06
3.45301e+06
3.4533e+06
3.45359e+06
3.45389e+06
3.45418e+06
3.45446e+06
3.4587e+06
3.48141e+06
3.50424e+06
3.52702e+06
3.54958e+06
3.57177e+06
3.59341e+06
3.61437e+06
3.63451e+06
3.6537e+06
3.67183e+06
3.68881e+06
3.70457e+06
3.71905e+06
3.73221e+06
3.74405e+06
3.75457e+06
3.7638e+06
3.77179e+06
3.77859e+06
3.78428e+06
3.78896e+06
3.79274e+06
3.79576e+06
3.79812e+06
3.4587e+06
3.48141e+06
3.50424e+06
3.52702e+06
3.54958e+06
3.57177e+06
3.59341e+06
3.61437e+06
3.63451e+06
3.6537e+06
3.67183e+06
3.68881e+06
3.70457e+06
3.71905e+06
3.73221e+06
3.74405e+06
3.75457e+06
3.7638e+06
3.77179e+06
3.77859e+06
3.78428e+06
3.78896e+06
3.79274e+06
3.79576e+06
3.79812e+06
3.4587e+06
3.48141e+06
3.50424e+06
3.52702e+06
3.54958e+06
3.57177e+06
3.59341e+06
3.61437e+06
3.63451e+06
3.6537e+06
3.67183e+06
3.68881e+06
3.70457e+06
3.71905e+06
3.73221e+06
3.74405e+06
3.75457e+06
3.7638e+06
3.77179e+06
3.77858e+06
3.78428e+06
3.78896e+06
3.79274e+06
3.79576e+06
3.79812e+06
3.4587e+06
3.48141e+06
3.50424e+06
3.52702e+06
3.54958e+06
3.57177e+06
3.59341e+06
3.61437e+06
3.63451e+06
3.6537e+06
3.67183e+06
3.68881e+06
3.70457e+06
3.71905e+06
3.73221e+06
3.74405e+06
3.75457e+06
3.7638e+06
3.77179e+06
3.77859e+06
3.78428e+06
3.78896e+06
3.79274e+06
3.79576e+06
3.79812e+06
3.4587e+06
3.48141e+06
3.50424e+06
3.52702e+06
3.54958e+06
3.57177e+06
3.59341e+06
3.61437e+06
3.63451e+06
3.6537e+06
3.67183e+06
3.68881e+06
3.70457e+06
3.71905e+06
3.73221e+06
3.74405e+06
3.75457e+06
3.7638e+06
3.77179e+06
3.77859e+06
3.78428e+06
3.78896e+06
3.79274e+06
3.79576e+06
3.79812e+06
3.4587e+06
3.48141e+06
3.50424e+06
3.52702e+06
3.54958e+06
3.57177e+06
3.59341e+06
3.61437e+06
3.63451e+06
3.6537e+06
3.67183e+06
3.68881e+06
3.70457e+06
3.71905e+06
3.73221e+06
3.74405e+06
3.75457e+06
3.7638e+06
3.77179e+06
3.77858e+06
3.78428e+06
3.78896e+06
3.79274e+06
3.79576e+06
3.79812e+06
3.4587e+06
3.48141e+06
3.50424e+06
3.52702e+06
3.54958e+06
3.57177e+06
3.59341e+06
3.61437e+06
3.63451e+06
3.6537e+06
3.67183e+06
3.68881e+06
3.70457e+06
3.71905e+06
3.73221e+06
3.74405e+06
3.75457e+06
3.7638e+06
3.77179e+06
3.77859e+06
3.78428e+06
3.78896e+06
3.79274e+06
3.79576e+06
3.79812e+06
3.4587e+06
3.48141e+06
3.50424e+06
3.52702e+06
3.54958e+06
3.57177e+06
3.59341e+06
3.61437e+06
3.63451e+06
3.6537e+06
3.67183e+06
3.68881e+06
3.70457e+06
3.71905e+06
3.73221e+06
3.74405e+06
3.75457e+06
3.7638e+06
3.77179e+06
3.77859e+06
3.78428e+06
3.78896e+06
3.79274e+06
3.79576e+06
3.79812e+06
3.4587e+06
3.48141e+06
3.50424e+06
3.52702e+06
3.54958e+06
3.57177e+06
3.59341e+06
3.61437e+06
3.63451e+06
3.6537e+06
3.67183e+06
3.68881e+06
3.70457e+06
3.71905e+06
3.73221e+06
3.74405e+06
3.75457e+06
3.7638e+06
3.77179e+06
3.77859e+06
3.78428e+06
3.78896e+06
3.79274e+06
3.79576e+06
3.79812e+06
3.4587e+06
3.48141e+06
3.50424e+06
3.52702e+06
3.54958e+06
3.57177e+06
3.59341e+06
3.61437e+06
3.63451e+06
3.6537e+06
3.67183e+06
3.68881e+06
3.70457e+06
3.71905e+06
3.73221e+06
3.74405e+06
3.75457e+06
3.7638e+06
3.77179e+06
3.77858e+06
3.78428e+06
3.78896e+06
3.79274e+06
3.79576e+06
3.79812e+06
3.4587e+06
3.48141e+06
3.50424e+06
3.52702e+06
3.54958e+06
3.57177e+06
3.59341e+06
3.61437e+06
3.63451e+06
3.6537e+06
3.67183e+06
3.68881e+06
3.70457e+06
3.71905e+06
3.73221e+06
3.74405e+06
3.75457e+06
3.7638e+06
3.77179e+06
3.77858e+06
3.78428e+06
3.78896e+06
3.79274e+06
3.79576e+06
3.79812e+06
3.4587e+06
3.48141e+06
3.50424e+06
3.52702e+06
3.54958e+06
3.57177e+06
3.59341e+06
3.61437e+06
3.63451e+06
3.6537e+06
3.67183e+06
3.68881e+06
3.70457e+06
3.71905e+06
3.73221e+06
3.74405e+06
3.75457e+06
3.7638e+06
3.77179e+06
3.77859e+06
3.78428e+06
3.78896e+06
3.79274e+06
3.79576e+06
3.79812e+06
)
;

boundaryField
{
    outletCentralUnloaded
    {
        type            fixedValue;
        value           uniform 3.44728e+06;
    }
    inletCentralUnloaded
    {
        type            zeroGradient;
    }
    outletFuelElement
    {
        type            fixedValue;
        value           uniform 3.44728e+06;
    }
    inletFuelElement
    {
        type            zeroGradient;
    }
    defaultFaces
    {
        type            zeroGradient;
    }
    baffle_master
    {
        type            zeroGradient;
    }
    baffle_slave
    {
        type            zeroGradient;
    }
}


// ************************************************************************* //
