/*--------------------------------*- C++ -*----------------------------------*\
| =========                 |                                                 |
| \\      /  F ield         | OpenFOAM: The Open Source CFD Toolbox           |
|  \\    /   O peration     | Version:  2212                                  |
|   \\  /    A nd           | Website:  www.openfoam.com                      |
|    \\/     M anipulation  |                                                 |
\*---------------------------------------------------------------------------*/
FoamFile
{
    version     2.0;
    format      ascii;
    arch        "LSB;label=32;scalar=64";
    class       volScalarField;
    location    "13/fluidRegion";
    object      Re;
}
// * * * * * * * * * * * * * * * * * * * * * * * * * * * * * * * * * * * * * //

dimensions      [0 0 0 0 0 0 0];

internalField   nonuniform List<scalar> 
350
(
173318
173318
173318
173318
173318
173318
173318
173318
173318
173318
173318
173318
173318
173318
173318
173318
173318
173318
173318
173318
173318
173318
173318
173318
174035
173318
173318
173318
173318
173318
173318
173318
173318
173318
173318
173318
173318
173318
173318
173318
173318
173318
173318
173318
173318
173318
173318
173318
173318
174035
49574.8
49429.7
49432.3
49434.2
49435
49434.7
49433.3
49430.8
49427.1
49422.2
49416.1
49408.6
49399.6
49388.9
49376.4
49362
49346
49329.8
49316.1
49311.5
49327.2
49384
49512.7
49750.8
49594.2
49256.6
49102.9
49099
49094.8
49090.4
49085.9
49081.3
49076.7
49072.2
49067.9
49064
49060.5
49057.5
49055.2
49053.4
49052.3
49052.5
49055.7
49064.8
49087.3
49134.9
49229.3
49401.3
49686.7
49575.2
49628.2
49484.2
49487.9
49490.5
49491.9
49492
49490.9
49488.4
49484.5
49479.3
49472.5
49464
49453.6
49441.2
49426.6
49409.6
49390.6
49370.8
49352.9
49343.3
49353.2
49403.4
49524.8
49755.9
49594.9
49327.9
49176.4
49174.1
49171.3
49168.3
49164.8
49161.1
49157.1
49152.9
49148.6
49144.3
49140
49135.8
49131.6
49127.5
49123.4
49120.1
49118.9
49122.9
49139.2
49179.6
49265.5
49427.6
49702.1
49579.8
49327.9
49176.4
49174.1
49171.3
49168.3
49164.8
49161.1
49157.1
49152.9
49148.6
49144.3
49140
49135.8
49131.6
49127.5
49123.4
49120.1
49118.9
49122.9
49139.2
49179.6
49265.5
49427.6
49702.1
49579.8
49628.2
49484.2
49487.9
49490.5
49491.9
49492
49490.9
49488.4
49484.5
49479.3
49472.4
49464
49453.6
49441.2
49426.5
49409.5
49390.5
49370.7
49352.8
49343.3
49353.1
49403.4
49524.8
49755.8
49594.9
49256.6
49102.9
49099
49094.8
49090.4
49085.9
49081.3
49076.7
49072.2
49067.9
49064
49060.5
49057.5
49055.2
49053.4
49052.3
49052.5
49055.7
49064.8
49087.3
49134.9
49229.3
49401.3
49686.7
49575.2
49574.8
49429.7
49432.3
49434.2
49435
49434.7
49433.3
49430.8
49427.1
49422.2
49416.1
49408.6
49399.6
49388.9
49376.4
49362
49346
49329.8
49316.1
49311.5
49327.2
49384
49512.7
49750.8
49594.2
49327.9
49176.4
49174.1
49171.3
49168.3
49164.8
49161.1
49157.1
49152.9
49148.6
49144.3
49140
49135.8
49131.6
49127.5
49123.4
49120.1
49118.9
49122.9
49139.2
49179.6
49265.5
49427.6
49702.1
49579.8
49628.2
49484.2
49487.9
49490.5
49491.9
49492
49490.9
49488.4
49484.5
49479.3
49472.5
49464
49453.6
49441.2
49426.6
49409.6
49390.6
49370.8
49352.9
49343.3
49353.2
49403.4
49524.8
49755.9
49594.9
49628.2
49484.2
49487.9
49490.5
49491.9
49492
49490.9
49488.4
49484.5
49479.3
49472.4
49464
49453.6
49441.2
49426.5
49409.5
49390.5
49370.7
49352.8
49343.3
49353.1
49403.4
49524.8
49755.8
49594.9
49327.9
49176.4
49174.1
49171.3
49168.3
49164.8
49161.1
49157.1
49152.9
49148.6
49144.3
49140
49135.8
49131.6
49127.5
49123.4
49120.1
49118.9
49122.9
49139.2
49179.6
49265.5
49427.6
49702.1
49579.8
)
;

boundaryField
{
    outletCentralUnloaded
    {
        type            zeroGradient;
    }
    inletCentralUnloaded
    {
        type            zeroGradient;
    }
    outletFuelElement
    {
        type            zeroGradient;
    }
    inletFuelElement
    {
        type            zeroGradient;
    }
    defaultFaces
    {
        type            zeroGradient;
    }
    baffle_master
    {
        type            zeroGradient;
    }
    baffle_slave
    {
        type            zeroGradient;
    }
}


// ************************************************************************* //
