/*--------------------------------*- C++ -*----------------------------------*\
| =========                 |                                                 |
| \\      /  F ield         | OpenFOAM: The Open Source CFD Toolbox           |
|  \\    /   O peration     | Version:  2212                                  |
|   \\  /    A nd           | Website:  www.openfoam.com                      |
|    \\/     M anipulation  |                                                 |
\*---------------------------------------------------------------------------*/
FoamFile
{
    version     2.0;
    format      ascii;
    arch        "LSB;label=32;scalar=64";
    class       volScalarField;
    location    "13/fluidRegion";
    object      T.cladAvForNeutronics;
}
// * * * * * * * * * * * * * * * * * * * * * * * * * * * * * * * * * * * * * //

dimensions      [0 0 0 1 0 0 0];

internalField   nonuniform List<scalar> 
350
(
0
0
0
0
0
0
0
0
0
0
0
0
0
0
0
0
0
0
0
0
0
0
0
0
0
0
0
0
0
0
0
0
0
0
0
0
0
0
0
0
0
0
0
0
0
0
0
0
0
0
965.795
1001.04
1028.79
1048.9
1061.37
1066.29
1063.86
1054.37
1038.21
1015.87
987.888
954.893
917.544
876.514
832.449
785.91
737.312
686.832
634.311
579.134
520.135
455.625
383.72
303.238
215.996
976.154
1012.02
1040.27
1060.75
1073.47
1078.51
1076.07
1066.45
1050.05
1027.35
998.914
965.375
927.409
885.706
840.929
793.659
744.326
693.12
639.886
584.003
524.287
459.014
386.257
304.814
216.531
964.084
999.237
1026.91
1046.97
1059.41
1064.32
1061.89
1052.43
1036.32
1014.04
986.135
953.231
915.984
875.064
831.114
784.693
736.213
685.85
633.442
578.378
519.494
455.105
383.333
302.999
215.914
973.826
1009.54
1037.67
1058.07
1070.72
1075.73
1073.29
1063.7
1047.35
1024.72
996.387
962.97
925.143
883.593
838.978
791.875
742.71
691.671
638.6
582.88
523.329
458.231
385.671
304.449
216.408
973.826
1009.54
1037.67
1058.07
1070.72
1075.73
1073.29
1063.7
1047.35
1024.72
996.387
962.97
925.143
883.593
838.978
791.875
742.71
691.671
638.6
582.88
523.329
458.231
385.671
304.449
216.408
964.084
999.237
1026.91
1046.97
1059.41
1064.32
1061.89
1052.43
1036.32
1014.04
986.135
953.231
915.984
875.064
831.114
784.694
736.213
685.85
633.443
578.378
519.494
455.106
383.333
302.999
215.914
976.154
1012.02
1040.27
1060.75
1073.47
1078.51
1076.07
1066.45
1050.05
1027.35
998.914
965.375
927.409
885.706
840.929
793.659
744.326
693.12
639.886
584.003
524.287
459.014
386.257
304.813
216.531
965.795
1001.04
1028.79
1048.9
1061.37
1066.29
1063.86
1054.37
1038.21
1015.87
987.888
954.893
917.544
876.514
832.449
785.91
737.312
686.832
634.311
579.134
520.135
455.625
383.72
303.238
215.996
973.826
1009.54
1037.67
1058.07
1070.72
1075.73
1073.29
1063.7
1047.35
1024.72
996.387
962.97
925.143
883.593
838.978
791.875
742.71
691.671
638.6
582.88
523.329
458.231
385.671
304.449
216.408
964.084
999.237
1026.91
1046.97
1059.41
1064.32
1061.89
1052.43
1036.32
1014.04
986.135
953.231
915.984
875.064
831.114
784.693
736.213
685.85
633.442
578.378
519.494
455.105
383.333
302.999
215.914
964.084
999.237
1026.91
1046.97
1059.41
1064.32
1061.89
1052.43
1036.32
1014.04
986.135
953.231
915.984
875.064
831.114
784.694
736.213
685.85
633.443
578.378
519.494
455.105
383.333
302.999
215.914
973.826
1009.54
1037.67
1058.07
1070.72
1075.73
1073.29
1063.7
1047.35
1024.72
996.387
962.97
925.143
883.593
838.978
791.875
742.71
691.671
638.6
582.88
523.329
458.231
385.671
304.449
216.408
)
;

boundaryField
{
    outletCentralUnloaded
    {
        type            zeroGradient;
    }
    inletCentralUnloaded
    {
        type            zeroGradient;
    }
    outletFuelElement
    {
        type            zeroGradient;
    }
    inletFuelElement
    {
        type            zeroGradient;
    }
    defaultFaces
    {
        type            zeroGradient;
    }
    baffle_master
    {
        type            zeroGradient;
    }
    baffle_slave
    {
        type            zeroGradient;
    }
}


// ************************************************************************* //
