/*--------------------------------*- C++ -*----------------------------------*\
| =========                 |                                                 |
| \\      /  F ield         | OpenFOAM: The Open Source CFD Toolbox           |
|  \\    /   O peration     | Version:  2212                                  |
|   \\  /    A nd           | Website:  www.openfoam.com                      |
|    \\/     M anipulation  |                                                 |
\*---------------------------------------------------------------------------*/
FoamFile
{
    version     2.0;
    format      ascii;
    arch        "LSB;label=32;scalar=64";
    class       volScalarField;
    location    "13/fluidRegion";
    object      Tco.nuclearFuelPin;
}
// * * * * * * * * * * * * * * * * * * * * * * * * * * * * * * * * * * * * * //

dimensions      [0 0 0 1 0 0 0];

internalField   nonuniform List<scalar> 
350
(
0
0
0
0
0
0
0
0
0
0
0
0
0
0
0
0
0
0
0
0
0
0
0
0
0
0
0
0
0
0
0
0
0
0
0
0
0
0
0
0
0
0
0
0
0
0
0
0
0
0
968.277
998.152
1020.57
1035.49
1042.99
1043.24
1036.51
1023.18
1003.69
978.584
948.457
913.967
875.799
834.643
791.146
745.86
699.178
651.241
601.835
550.279
495.32
435.163
367.809
291.966
209.378
978.749
1009.18
1032.05
1047.28
1054.97
1055.28
1048.5
1034.99
1015.22
989.724
959.113
924.059
885.261
843.426
799.22
753.214
705.816
657.178
607.092
554.871
499.239
438.368
370.215
293.463
209.887
966.547
996.339
1018.7
1033.57
1041.04
1041.29
1034.58
1021.28
1001.85
976.807
946.763
912.367
874.303
833.258
789.876
744.707
698.14
650.314
601.017
549.567
494.716
434.672
367.443
291.74
209.301
976.396
1006.7
1029.45
1044.61
1052.25
1052.54
1045.77
1032.3
1012.59
987.174
956.671
921.743
883.088
841.407
797.362
751.521
704.287
655.809
605.88
553.811
498.335
437.628
369.659
293.117
209.77
976.396
1006.7
1029.45
1044.61
1052.25
1052.54
1045.77
1032.3
1012.59
987.174
956.671
921.743
883.088
841.407
797.362
751.521
704.287
655.809
605.88
553.811
498.335
437.628
369.659
293.117
209.77
966.547
996.339
1018.7
1033.57
1041.04
1041.29
1034.58
1021.28
1001.85
976.807
946.763
912.367
874.304
833.258
789.876
744.707
698.14
650.315
601.018
549.568
494.716
434.673
367.444
291.74
209.301
978.749
1009.18
1032.05
1047.28
1054.97
1055.28
1048.5
1034.99
1015.22
989.724
959.113
924.059
885.261
843.426
799.22
753.214
705.816
657.178
607.092
554.871
499.239
438.368
370.215
293.463
209.887
968.277
998.152
1020.57
1035.49
1042.99
1043.24
1036.51
1023.18
1003.69
978.584
948.457
913.967
875.799
834.643
791.146
745.86
699.178
651.241
601.835
550.279
495.32
435.163
367.809
291.966
209.378
976.396
1006.7
1029.45
1044.61
1052.25
1052.54
1045.77
1032.3
1012.59
987.174
956.671
921.743
883.088
841.407
797.362
751.521
704.287
655.809
605.88
553.811
498.335
437.628
369.659
293.117
209.77
966.547
996.339
1018.7
1033.57
1041.04
1041.29
1034.58
1021.28
1001.85
976.807
946.763
912.367
874.303
833.258
789.876
744.707
698.14
650.314
601.017
549.567
494.716
434.672
367.443
291.74
209.301
966.547
996.339
1018.7
1033.57
1041.04
1041.29
1034.58
1021.28
1001.85
976.807
946.763
912.367
874.304
833.258
789.876
744.707
698.14
650.315
601.018
549.568
494.716
434.672
367.444
291.74
209.301
976.396
1006.7
1029.45
1044.61
1052.25
1052.54
1045.77
1032.3
1012.59
987.174
956.671
921.743
883.088
841.407
797.362
751.521
704.286
655.809
605.88
553.811
498.335
437.628
369.659
293.117
209.77
)
;

boundaryField
{
    outletCentralUnloaded
    {
        type            zeroGradient;
    }
    inletCentralUnloaded
    {
        type            zeroGradient;
    }
    outletFuelElement
    {
        type            zeroGradient;
    }
    inletFuelElement
    {
        type            zeroGradient;
    }
    defaultFaces
    {
        type            zeroGradient;
    }
    baffle_master
    {
        type            zeroGradient;
    }
    baffle_slave
    {
        type            zeroGradient;
    }
}


// ************************************************************************* //
