/*--------------------------------*- C++ -*----------------------------------*\
| =========                 |                                                 |
| \\      /  F ield         | OpenFOAM: The Open Source CFD Toolbox           |
|  \\    /   O peration     | Version:  2212                                  |
|   \\  /    A nd           | Website:  www.openfoam.com                      |
|    \\/     M anipulation  |                                                 |
\*---------------------------------------------------------------------------*/
FoamFile
{
    version     2.0;
    format      ascii;
    arch        "LSB;label=32;scalar=64";
    class       volScalarField;
    location    "13/fluidRegion";
    object      Tfi.nuclearFuelPin;
}
// * * * * * * * * * * * * * * * * * * * * * * * * * * * * * * * * * * * * * //

dimensions      [0 0 0 1 0 0 0];

internalField   nonuniform List<scalar> 
350
(
0
0
0
0
0
0
0
0
0
0
0
0
0
0
0
0
0
0
0
0
0
0
0
0
0
0
0
0
0
0
0
0
0
0
0
0
0
0
0
0
0
0
0
0
0
0
0
0
0
0
921.17
1389.1
1845.48
2283.1
2695.08
3074.9
3416.59
3714.76
3964.7
4162.47
4304.97
4389.92
4416
4382.77
4290.74
4141.35
3936.91
3680.62
3376.44
3029.16
2644.15
2227.44
1785.51
1325.34
854.762
924.348
1397.66
1859.29
2301.96
2718.67
3102.87
3448.49
3750.09
4002.91
4202.96
4347.1
4433.04
4459.43
4425.83
4332.76
4181.66
3974.89
3715.67
3408.02
3056.78
2667.36
2245.89
1798.9
1333.46
857.483
920.661
1387.73
1843.27
2280.1
2691.32
3070.45
3411.51
3709.13
3958.61
4156.03
4298.26
4383.06
4409.08
4375.91
4284.05
4134.93
3930.86
3675.03
3371.41
3024.76
2640.45
2224.5
1783.37
1324.04
854.328
923.619
1395.69
1856.12
2297.62
2713.24
3096.43
3441.15
3741.96
3994.11
4193.64
4337.4
4423.12
4449.43
4415.91
4323.08
4172.38
3966.15
3707.6
3400.75
3050.42
2662.02
2241.64
1795.81
1331.59
856.857
923.619
1395.69
1856.12
2297.62
2713.24
3096.43
3441.15
3741.95
3994.11
4193.64
4337.4
4423.12
4449.43
4415.91
4323.08
4172.38
3966.15
3707.6
3400.75
3050.42
2662.02
2241.64
1795.81
1331.59
856.857
920.661
1387.73
1843.27
2280.1
2691.32
3070.45
3411.51
3709.13
3958.61
4156.03
4298.26
4383.06
4409.08
4375.91
4284.05
4134.93
3930.86
3675.03
3371.41
3024.76
2640.45
2224.5
1783.37
1324.04
854.328
924.348
1397.66
1859.29
2301.96
2718.67
3102.87
3448.49
3750.09
4002.91
4202.96
4347.1
4433.04
4459.43
4425.83
4332.76
4181.66
3974.89
3715.67
3408.02
3056.78
2667.36
2245.89
1798.9
1333.46
857.483
921.17
1389.1
1845.48
2283.1
2695.08
3074.9
3416.59
3714.76
3964.7
4162.47
4304.97
4389.92
4416
4382.77
4290.74
4141.35
3936.91
3680.62
3376.44
3029.16
2644.15
2227.44
1785.51
1325.34
854.762
923.619
1395.69
1856.12
2297.62
2713.24
3096.43
3441.15
3741.95
3994.11
4193.64
4337.4
4423.12
4449.43
4415.91
4323.08
4172.38
3966.15
3707.6
3400.75
3050.42
2662.02
2241.64
1795.81
1331.59
856.857
920.661
1387.73
1843.27
2280.1
2691.32
3070.45
3411.51
3709.13
3958.61
4156.03
4298.26
4383.06
4409.08
4375.91
4284.05
4134.93
3930.86
3675.03
3371.41
3024.76
2640.45
2224.5
1783.37
1324.04
854.328
920.661
1387.73
1843.27
2280.1
2691.32
3070.45
3411.51
3709.13
3958.61
4156.03
4298.26
4383.06
4409.08
4375.91
4284.05
4134.93
3930.86
3675.03
3371.41
3024.76
2640.45
2224.5
1783.37
1324.04
854.328
923.619
1395.69
1856.12
2297.62
2713.24
3096.43
3441.15
3741.95
3994.11
4193.64
4337.4
4423.12
4449.43
4415.91
4323.08
4172.38
3966.15
3707.6
3400.75
3050.42
2662.02
2241.64
1795.81
1331.59
856.857
)
;

boundaryField
{
    outletCentralUnloaded
    {
        type            zeroGradient;
    }
    inletCentralUnloaded
    {
        type            zeroGradient;
    }
    outletFuelElement
    {
        type            zeroGradient;
    }
    inletFuelElement
    {
        type            zeroGradient;
    }
    defaultFaces
    {
        type            zeroGradient;
    }
    baffle_master
    {
        type            zeroGradient;
    }
    baffle_slave
    {
        type            zeroGradient;
    }
}


// ************************************************************************* //
