/*--------------------------------*- C++ -*----------------------------------*\
| =========                 |                                                 |
| \\      /  F ield         | OpenFOAM: The Open Source CFD Toolbox           |
|  \\    /   O peration     | Version:  2212                                  |
|   \\  /    A nd           | Website:  www.openfoam.com                      |
|    \\/     M anipulation  |                                                 |
\*---------------------------------------------------------------------------*/
FoamFile
{
    version     2.0;
    format      ascii;
    arch        "LSB;label=32;scalar=64";
    class       volScalarField;
    location    "13/fluidRegion";
    object      Tfo.nuclearFuelPin;
}
// * * * * * * * * * * * * * * * * * * * * * * * * * * * * * * * * * * * * * //

dimensions      [0 0 0 1 0 0 0];

internalField   nonuniform List<scalar> 
350
(
0
0
0
0
0
0
0
0
0
0
0
0
0
0
0
0
0
0
0
0
0
0
0
0
0
0
0
0
0
0
0
0
0
0
0
0
0
0
0
0
0
0
0
0
0
0
0
0
0
0
925.223
1128.28
1322.1
1503.81
1670.73
1820.42
1950.69
2059.64
2145.72
2207.71
2244.76
2256.4
2242.51
2203.37
2139.56
2051.99
1941.81
1810.35
1659.04
1489.38
1302.76
1100.55
884.187
655.736
419.397
932.802
1138.34
1334.51
1518.42
1687.34
1838.8
1970.59
2080.8
2167.85
2230.5
2267.91
2279.59
2265.45
2225.75
2161.1
2072.42
1960.88
1827.84
1674.75
1503.11
1314.34
1109.8
890.944
659.856
420.781
923.975
1126.64
1320.09
1501.45
1668.06
1817.47
1947.5
2056.26
2142.19
2204.08
2241.08
2252.71
2238.87
2199.81
2136.14
2048.75
1938.78
1807.57
1656.55
1487.21
1300.93
1099.09
883.121
655.087
419.178
931.093
1136.06
1331.69
1515.08
1683.54
1834.59
1966.03
2075.95
2162.77
2225.27
2262.59
2274.26
2260.17
2220.6
2156.14
2067.72
1956.49
1823.81
1671.13
1499.95
1311.67
1107.67
889.387
658.907
420.463
931.093
1136.06
1331.69
1515.08
1683.54
1834.59
1966.03
2075.95
2162.77
2225.27
2262.59
2274.26
2260.17
2220.6
2156.14
2067.72
1956.49
1823.81
1671.13
1499.95
1311.67
1107.67
889.387
658.907
420.463
923.975
1126.64
1320.09
1501.45
1668.06
1817.47
1947.5
2056.26
2142.19
2204.08
2241.08
2252.71
2238.87
2199.81
2136.14
2048.75
1938.78
1807.57
1656.56
1487.21
1300.93
1099.09
883.121
655.087
419.178
932.802
1138.34
1334.51
1518.42
1687.34
1838.8
1970.59
2080.8
2167.85
2230.5
2267.91
2279.59
2265.45
2225.75
2161.1
2072.42
1960.88
1827.84
1674.75
1503.11
1314.34
1109.8
890.944
659.856
420.781
925.223
1128.28
1322.1
1503.81
1670.73
1820.42
1950.69
2059.64
2145.72
2207.71
2244.76
2256.4
2242.51
2203.37
2139.56
2051.99
1941.81
1810.35
1659.04
1489.38
1302.76
1100.55
884.187
655.736
419.397
931.093
1136.06
1331.69
1515.08
1683.54
1834.59
1966.03
2075.95
2162.77
2225.27
2262.59
2274.26
2260.17
2220.6
2156.14
2067.72
1956.49
1823.81
1671.13
1499.95
1311.67
1107.67
889.387
658.907
420.463
923.975
1126.64
1320.09
1501.45
1668.06
1817.47
1947.5
2056.26
2142.19
2204.08
2241.08
2252.71
2238.87
2199.81
2136.14
2048.75
1938.78
1807.57
1656.55
1487.21
1300.93
1099.09
883.121
655.087
419.178
923.975
1126.64
1320.09
1501.45
1668.06
1817.47
1947.5
2056.26
2142.19
2204.08
2241.08
2252.71
2238.87
2199.81
2136.14
2048.75
1938.78
1807.57
1656.56
1487.21
1300.93
1099.09
883.121
655.087
419.178
931.093
1136.06
1331.69
1515.08
1683.54
1834.59
1966.03
2075.95
2162.77
2225.27
2262.59
2274.26
2260.17
2220.6
2156.14
2067.72
1956.49
1823.81
1671.13
1499.95
1311.67
1107.67
889.387
658.907
420.463
)
;

boundaryField
{
    outletCentralUnloaded
    {
        type            zeroGradient;
    }
    inletCentralUnloaded
    {
        type            zeroGradient;
    }
    outletFuelElement
    {
        type            zeroGradient;
    }
    inletFuelElement
    {
        type            zeroGradient;
    }
    defaultFaces
    {
        type            zeroGradient;
    }
    baffle_master
    {
        type            zeroGradient;
    }
    baffle_slave
    {
        type            zeroGradient;
    }
}


// ************************************************************************* //
