/*--------------------------------*- C++ -*----------------------------------*\
| =========                 |                                                 |
| \\      /  F ield         | OpenFOAM: The Open Source CFD Toolbox           |
|  \\    /   O peration     | Version:  2212                                  |
|   \\  /    A nd           | Website:  www.openfoam.com                      |
|    \\/     M anipulation  |                                                 |
\*---------------------------------------------------------------------------*/
FoamFile
{
    version     2.0;
    format      ascii;
    arch        "LSB;label=32;scalar=64";
    class       volVectorField;
    location    "13/fluidRegion";
    object      U;
}
// * * * * * * * * * * * * * * * * * * * * * * * * * * * * * * * * * * * * * //

dimensions      [0 1 -1 0 0 0 0];

internalField   nonuniform List<vector> 
350
(
(6.13486e-10 3.54195e-10 -14.9066)
(9.42061e-10 5.43897e-10 -14.9054)
(1.14702e-09 6.62229e-10 -14.9042)
(1.46439e-09 8.45461e-10 -14.903)
(1.94215e-09 1.1213e-09 -14.9018)
(2.62204e-09 1.51383e-09 -14.9005)
(3.57035e-09 2.06134e-09 -14.8993)
(4.86963e-09 2.81147e-09 -14.8981)
(6.62932e-09 3.82743e-09 -14.8969)
(8.99664e-09 5.19419e-09 -14.8957)
(1.21432e-08 7.01087e-09 -14.8945)
(1.62813e-08 9.39996e-09 -14.8933)
(2.16529e-08 1.25013e-08 -14.8921)
(2.85047e-08 1.64572e-08 -14.8909)
(3.70612e-08 2.13972e-08 -14.8898)
(4.74458e-08 2.73927e-08 -14.8886)
(5.95833e-08 3.44003e-08 -14.8874)
(7.31062e-08 4.22078e-08 -14.8863)
(8.74516e-08 5.049e-08 -14.8851)
(1.02527e-07 5.91938e-08 -14.884)
(1.20567e-07 6.96093e-08 -14.8829)
(1.45102e-07 8.37746e-08 -14.8818)
(1.55102e-07 8.95479e-08 -14.8807)
(1.71945e-08 9.9272e-09 -14.8796)
(-4.83727e-07 -2.79279e-07 -14.9395)
(6.13486e-10 3.54195e-10 -14.9066)
(9.42061e-10 5.43897e-10 -14.9054)
(1.14702e-09 6.62229e-10 -14.9042)
(1.46439e-09 8.45461e-10 -14.903)
(1.94215e-09 1.1213e-09 -14.9018)
(2.62204e-09 1.51383e-09 -14.9005)
(3.57035e-09 2.06134e-09 -14.8993)
(4.86963e-09 2.81147e-09 -14.8981)
(6.62932e-09 3.82743e-09 -14.8969)
(8.99664e-09 5.19419e-09 -14.8957)
(1.21432e-08 7.01087e-09 -14.8945)
(1.62813e-08 9.39996e-09 -14.8933)
(2.16529e-08 1.25013e-08 -14.8921)
(2.85047e-08 1.64572e-08 -14.8909)
(3.70612e-08 2.13972e-08 -14.8898)
(4.74458e-08 2.73927e-08 -14.8886)
(5.95833e-08 3.44003e-08 -14.8874)
(7.31062e-08 4.22078e-08 -14.8863)
(8.74516e-08 5.049e-08 -14.8851)
(1.02527e-07 5.91938e-08 -14.884)
(1.20567e-07 6.96093e-08 -14.8829)
(1.45102e-07 8.37746e-08 -14.8818)
(1.55102e-07 8.95479e-08 -14.8807)
(1.71945e-08 9.9272e-09 -14.8796)
(-4.83727e-07 -2.79279e-07 -14.9395)
(-0.000679138 -0.0003921 -205.791)
(-0.000768947 -0.000443952 -204.758)
(-0.000814408 -0.000470198 -202.836)
(-0.000680986 -0.000393167 -199.456)
(-0.000554948 -0.000320399 -194.683)
(-0.000425763 -0.000245814 -188.604)
(-0.000294355 -0.000169946 -181.319)
(-0.000159163 -9.18927e-05 -172.947)
(-2.18419e-05 -1.26104e-05 -163.62)
(0.000116 6.69724e-05 -153.485)
(0.000249252 0.000143905 -142.701)
(0.000375096 0.000216562 -131.437)
(0.000486432 0.000280842 -119.869)
(0.000579905 0.000334808 -108.18)
(0.00065075 0.00037571 -96.5463)
(0.000699951 0.000404117 -85.1441)
(0.0007275 0.000420022 -74.1383)
(0.000738163 0.000426178 -63.6841)
(0.00073325 0.000423342 -53.9249)
(0.000715844 0.000413292 -44.9942)
(0.000683155 0.00039442 -37.0158)
(0.000632698 0.000365288 -30.1017)
(0.000558072 0.000322203 -24.3497)
(0.000453002 0.000261541 -19.8388)
(0.000297046 0.0001715 -16.4511)
(-0.00057027 -0.000309678 -206.756)
(-0.000524235 -0.000270108 -205.736)
(-0.000602984 -0.000331339 -203.827)
(-0.000505769 -0.000284994 -200.447)
(-0.000414096 -0.000241266 -195.664)
(-0.000322359 -0.000187125 -189.565)
(-0.000229337 -0.00013319 -182.25)
(-0.000134552 -7.34256e-05 -173.839)
(-3.72193e-05 -1.677e-05 -164.464)
(5.94085e-05 4.31045e-05 -154.272)
(0.000152878 9.57398e-05 -143.425)
(0.000240288 0.00014878 -132.093)
(0.000317777 0.000190702 -120.454)
(0.000381628 0.000229276 -108.69)
(0.000430041 0.000253808 -96.9825)
(0.000462467 0.000273912 -85.5078)
(0.000480491 0.000280637 -74.433)
(0.00048616 0.000284913 -63.9145)
(0.000482016 0.000278483 -54.0972)
(0.000469283 0.000270987 -45.1158)
(0.000447857 0.000253599 -37.0948)
(0.000416226 0.000232943 -30.1473)
(0.00037211 0.000204326 -24.3714)
(0.000313452 0.000172388 -19.8458)
(0.000188629 0.00010539 -16.4521)
(-0.000411062 -0.000543694 -205.631)
(-0.000463646 -0.000948721 -204.597)
(-0.000444482 -0.000837458 -202.675)
(-0.00036713 -0.000688722 -199.294)
(-0.000289784 -0.000545346 -194.524)
(-0.000213458 -0.000401166 -188.448)
(-0.000136351 -0.00025338 -181.169)
(-5.84275e-05 -0.000102882 -172.804)
(2.12798e-05 5.05714e-05 -163.485)
(9.93314e-05 0.000203953 -153.359)
(0.000174181 0.000355239 -142.585)
(0.000243005 0.000496814 -131.331)
(0.000302885 0.000624455 -119.776)
(0.000350549 0.000730645 -108.098)
(0.00038527 0.000813409 -96.4761)
(0.000406485 0.000869932 -85.0853)
(0.000416241 0.000903683 -74.0903)
(0.000415785 0.000916206 -63.6461)
(0.000407811 0.000912222 -53.8959)
(0.000392498 0.000890887 -44.9731)
(0.000370086 0.000850948 -37.0012)
(0.000338216 0.000783418 -30.0922)
(0.000294102 0.000677847 -24.3441)
(0.000233506 0.000516528 -19.8358)
(0.000149288 0.000380644 -16.4501)
(-0.00060096 -0.000346963 -206.541)
(-0.000884394 -0.000510604 -205.518)
(-0.000804009 -0.000464194 -203.605)
(-0.000662096 -0.00038226 -200.225)
(-0.000523694 -0.000302354 -195.444)
(-0.000385367 -0.000222491 -189.349)
(-0.000244372 -0.000141088 -182.041)
(-0.000101186 -5.84193e-05 -173.638)
(4.49115e-05 2.59296e-05 -164.273)
(0.000190022 0.000109709 -154.094)
(0.000331639 0.000191471 -143.261)
(0.000463438 0.000267566 -131.944)
(0.0005808 0.000335324 -120.321)
(0.000677143 0.000390947 -108.574)
(0.000750625 0.000433372 -96.8833)
(0.000799303 0.000461476 -85.4251)
(0.000826422 0.000477133 -74.366)
(0.000833882 0.000481441 -63.8621)
(0.000826248 0.000477033 -54.0581)
(0.000803243 0.000463751 -45.0883)
(0.000764097 0.00044115 -37.077)
(0.000701958 0.000405274 -30.1371)
(0.000608502 0.000351318 -24.3667)
(0.000469952 0.000271326 -19.8444)
(0.0003318 0.000191564 -16.452)
(0.00059982 0.000346305 -206.541)
(0.000886507 0.000511824 -205.518)
(0.000802865 0.000463533 -203.605)
(0.000661724 0.000382046 -200.225)
(0.000523426 0.000302199 -195.444)
(0.000385453 0.000222541 -189.349)
(0.000244518 0.000141172 -182.041)
(0.000101297 5.84838e-05 -173.638)
(-4.5046e-05 -2.60073e-05 -164.273)
(-0.000190004 -0.000109699 -154.094)
(-0.000331959 -0.000191656 -143.261)
(-0.000463877 -0.000267819 -131.944)
(-0.000581578 -0.000335773 -120.321)
(-0.000677886 -0.000391377 -108.574)
(-0.000751495 -0.000433875 -96.8833)
(-0.000799922 -0.000461834 -85.4251)
(-0.000827166 -0.000477563 -74.366)
(-0.000834613 -0.000481863 -63.8621)
(-0.000827142 -0.00047755 -54.0581)
(-0.000804016 -0.000464198 -45.0883)
(-0.000764991 -0.000441667 -37.077)
(-0.000702388 -0.000405523 -30.1371)
(-0.000608062 -0.000351064 -24.3667)
(-0.000468619 -0.000270557 -19.8444)
(-0.000330316 -0.000190708 -16.452)
(0.000673192 9.36769e-05 -205.632)
(0.00105124 -6.09889e-05 -204.597)
(0.000944725 -2.69635e-05 -202.675)
(0.000778619 -2.26962e-05 -199.295)
(0.000617217 -2.24626e-05 -194.524)
(0.000453762 -1.41399e-05 -188.448)
(0.00028766 -8.35694e-06 -181.169)
(0.000117308 2.95098e-06 -172.804)
(-5.51368e-05 9.15597e-06 -163.485)
(-0.000227883 2.15064e-05 -153.359)
(-0.000395843 2.99748e-05 -142.585)
(-0.000553645 4.35638e-05 -131.331)
(-0.000693464 5.25984e-05 -119.776)
(-0.000809874 6.657e-05 -108.098)
(-0.000898098 7.48446e-05 -96.4762)
(-0.000958161 8.68908e-05 -85.0853)
(-0.000991442 9.22018e-05 -74.0903)
(-0.00100259 0.000100689 -63.6461)
(-0.000994322 0.000102422 -53.8959)
(-0.000968558 0.000106484 -44.9731)
(-0.000921843 0.000102504 -37.0012)
(-0.000847332 9.69051e-05 -30.0922)
(-0.000732603 7.98444e-05 -24.3441)
(-0.00056262 5.37718e-05 -19.8358)
(-0.000403441 6.11231e-05 -16.4501)
(0.000559564 0.000351315 -206.756)
(0.000506899 0.00033032 -205.736)
(0.00059008 0.000365521 -203.827)
(0.000499593 0.000300269 -200.447)
(0.000413223 0.000237917 -195.664)
(0.000322379 0.000187788 -189.565)
(0.000228592 0.000132816 -182.25)
(0.000131781 8.44848e-05 -173.839)
(3.31117e-05 2.72013e-05 -164.464)
(-6.48615e-05 -2.31955e-05 -154.272)
(-0.000158761 -8.00628e-05 -143.425)
(-0.000246701 -0.000126625 -132.093)
(-0.000323723 -0.000175706 -120.454)
(-0.000387412 -0.00020949 -108.69)
(-0.000434903 -0.000242388 -96.9825)
(-0.000466839 -0.000258334 -85.5078)
(-0.000483833 -0.000273934 -74.433)
(-0.000488981 -0.000274818 -63.9145)
(-0.000483643 -0.000277872 -54.0972)
(-0.000469771 -0.000269133 -45.1158)
(-0.000446402 -0.000263016 -37.0948)
(-0.000412363 -0.000245632 -30.1473)
(-0.00036681 -0.000225057 -24.3714)
(-0.000308687 -0.000188054 -19.8458)
(-0.000186333 -0.000110805 -16.4521)
(0.000686527 0.000396366 -205.791)
(0.000778099 0.000449235 -204.758)
(0.000817894 0.000472211 -202.836)
(0.000682181 0.000393857 -199.456)
(0.000553414 0.000319514 -194.683)
(0.00042589 0.000245887 -188.604)
(0.000293854 0.000169656 -181.319)
(0.00016102 9.29649e-05 -172.947)
(2.28993e-05 1.32209e-05 -163.62)
(-0.000112859 -6.51594e-05 -153.485)
(-0.000247535 -0.000142915 -142.701)
(-0.000371729 -0.000214618 -131.437)
(-0.000484919 -0.000279968 -119.869)
(-0.000576891 -0.000333068 -108.18)
(-0.000649747 -0.000375132 -96.5463)
(-0.000697483 -0.000402692 -85.1441)
(-0.000727161 -0.000419826 -74.1383)
(-0.000736556 -0.00042525 -63.6841)
(-0.000733886 -0.000423709 -53.9249)
(-0.000715549 -0.000413122 -44.9942)
(-0.000685254 -0.000395631 -37.0158)
(-0.000634574 -0.000366371 -30.1017)
(-0.000561645 -0.000324266 -24.3497)
(-0.000455289 -0.000262861 -19.8388)
(-0.000297466 -0.000171742 -16.4511)
(0.00060247 0.000347835 -206.541)
(0.000884343 0.000510574 -205.518)
(0.000804176 0.00046429 -203.605)
(0.000661806 0.000382093 -200.225)
(0.000523476 0.000302228 -195.444)
(0.0003854 0.00022251 -189.349)
(0.000244639 0.000141242 -182.041)
(0.000101635 5.86789e-05 -173.638)
(-4.43193e-05 -2.55877e-05 -164.273)
(-0.000189185 -0.000109226 -154.094)
(-0.000330802 -0.000190988 -143.261)
(-0.000462637 -0.000267103 -131.944)
(-0.000580039 -0.000334885 -120.321)
(-0.000676321 -0.000390473 -108.574)
(-0.00074971 -0.000432844 -96.8833)
(-0.000798155 -0.000460814 -85.4251)
(-0.000825258 -0.000476461 -74.366)
(-0.000832723 -0.000480772 -63.8621)
(-0.000825238 -0.00047645 -54.0581)
(-0.000802143 -0.000463116 -45.0883)
(-0.000763327 -0.000440706 -37.077)
(-0.000700889 -0.000404657 -30.1371)
(-0.000607318 -0.000350634 -24.3667)
(-0.000467676 -0.000270012 -19.8444)
(-0.000329558 -0.00019027 -16.452)
(0.000401664 0.000555142 -205.631)
(0.000449045 0.00096484 -204.597)
(0.000434241 0.000847947 -202.675)
(0.000362486 0.000693341 -199.294)
(0.000289271 0.000545166 -194.524)
(0.000213771 0.000401202 -188.448)
(0.000135937 0.000253759 -181.169)
(5.64979e-05 0.000105797 -172.804)
(-2.43935e-05 -4.69884e-05 -163.485)
(-0.000103354 -0.000198494 -153.359)
(-0.000178654 -0.000350063 -142.585)
(-0.000247875 -0.000490513 -131.331)
(-0.000307442 -0.000619275 -119.776)
(-0.000354916 -0.000724878 -108.098)
(-0.000388852 -0.000809162 -96.4761)
(-0.000409547 -0.00086534 -85.0853)
(-0.000418412 -0.000900773 -74.0903)
(-0.000417506 -0.000913085 -63.6461)
(-0.000408524 -0.000910996 -53.8959)
(-0.000392241 -0.000890052 -44.9731)
(-0.000368275 -0.000852639 -37.0012)
(-0.000334313 -0.000786681 -30.0922)
(-0.000288844 -0.000682856 -24.3441)
(-0.000228281 -0.000520231 -19.8358)
(-0.000146243 -0.000381708 -16.4501)
(-0.000671912 -6.1993e-05 -205.632)
(-0.00105084 0.000106895 -204.597)
(-0.000945562 5.17108e-05 -202.675)
(-0.000778989 3.40229e-05 -199.295)
(-0.000618027 1.90339e-05 -194.524)
(-0.000453364 1.51661e-05 -188.448)
(-0.000288007 7.59465e-06 -181.169)
(-0.000116653 6.05747e-06 -172.804)
(5.47961e-05 -1.93052e-06 -163.485)
(0.000228598 -5.81807e-06 -153.359)
(0.000395486 -1.88668e-05 -142.585)
(0.000554317 -2.64298e-05 -131.331)
(0.00069303 -4.22316e-05 -119.776)
(0.000810557 -5.13375e-05 -108.098)
(0.000897702 -6.71615e-05 -96.4762)
(0.000958952 -7.46909e-05 -85.0853)
(0.000991135 -8.79092e-05 -74.0903)
(0.00100337 -9.26275e-05 -63.6461)
(0.000994018 -0.000102686 -53.8959)
(0.000969307 -0.000104602 -44.9731)
(0.000921605 -0.000110162 -37.0012)
(0.000848062 -0.000105885 -30.0922)
(0.000732603 -9.55913e-05 -24.3441)
(0.00056357 -6.49205e-05 -19.8358)
(0.000404526 -6.44151e-05 -16.4501)
(-0.000590413 -0.000340874 -206.541)
(-0.000875437 -0.000505433 -205.518)
(-0.000797197 -0.000460261 -203.605)
(-0.000659401 -0.000380704 -200.225)
(-0.000524746 -0.000302962 -195.444)
(-0.000385049 -0.000222308 -189.349)
(-0.000244706 -0.000141281 -182.041)
(-9.86191e-05 -5.69377e-05 -173.638)
(4.69192e-05 2.70888e-05 -164.273)
(0.000194544 0.00011232 -154.094)
(0.000334913 0.000193361 -143.261)
(0.000468726 0.000270619 -131.944)
(0.000584256 0.00033732 -120.321)
(0.000682303 0.000393927 -108.574)
(0.000753647 0.000435117 -96.8833)
(0.000803894 0.000464127 -85.4251)
(0.000828724 0.000478463 -74.366)
(0.000837613 0.000483595 -63.8621)
(0.000827525 0.000477771 -54.0581)
(0.000805542 0.000465079 -45.0883)
(0.000763544 0.000440831 -37.077)
(0.000701371 0.000404936 -30.1371)
(0.000605068 0.000349335 -24.3667)
(0.000467883 0.000270132 -19.8444)
(0.000331374 0.000191318 -16.452)
)
;

boundaryField
{
    outletCentralUnloaded
    {
        type            zeroGradient;
    }
    inletCentralUnloaded
    {
        type            fixedValue;
        value           uniform (0 0 -15);
    }
    outletFuelElement
    {
        type            zeroGradient;
    }
    inletFuelElement
    {
        type            fixedValue;
        value           uniform (0 0 -15);
    }
    defaultFaces
    {
        type            slip;
    }
    baffle_master
    {
        type            slip;
    }
    baffle_slave
    {
        type            slip;
    }
}


// ************************************************************************* //
