/*--------------------------------*- C++ -*----------------------------------*\
| =========                 |                                                 |
| \\      /  F ield         | OpenFOAM: The Open Source CFD Toolbox           |
|  \\    /   O peration     | Version:  2212                                  |
|   \\  /    A nd           | Website:  www.openfoam.com                      |
|    \\/     M anipulation  |                                                 |
\*---------------------------------------------------------------------------*/
FoamFile
{
    version     2.0;
    format      ascii;
    arch        "LSB;label=32;scalar=64";
    class       volScalarField;
    location    "84/fluidRegion";
    object      Tfi.nuclearFuelPin;
}
// * * * * * * * * * * * * * * * * * * * * * * * * * * * * * * * * * * * * * //

dimensions      [0 0 0 1 0 0 0];

internalField   nonuniform List<scalar> 
350
(
0
0
0
0
0
0
0
0
0
0
0
0
0
0
0
0
0
0
0
0
0
0
0
0
0
0
0
0
0
0
0
0
0
0
0
0
0
0
0
0
0
0
0
0
0
0
0
0
0
0
2425.58
3613.98
4762.16
5852.39
6867.81
7792.66
8612.57
9314.77
9888.34
10324.3
10615.9
10758.5
10750
10590.4
10282.5
9831.17
9243.33
8527.89
7695.01
6755.62
5720.03
4596.82
3391.13
2107.94
766.632
2460.67
3662.87
4824.29
5927.04
6954.03
7889.33
8718.41
9428.36
10008.1
10448.7
10743.1
10886.8
10877.5
10715.5
10403.4
9946.08
9350.77
8626.44
7783.42
6832.81
5785.09
4648.9
3429.38
2131.37
774.496
2419.9
3606.12
4752.21
5840.47
6854.07
7777.27
8595.73
9296.72
9869.31
10304.6
10595.7
10738.1
10729.7
10570.6
10263.4
9812.96
9226.31
8512.28
7681.01
6743.4
5709.74
4588.59
3385.11
2104.25
765.388
2452.74
3651.75
4810.11
5909.96
6934.27
7867.15
8694.11
9402.27
9980.6
10420.1
10713.8
10857.3
10848.2
10686.7
10375.6
9919.62
9326.02
8603.74
7763.05
6815.03
5770.1
4636.9
3420.57
2125.97
772.684
2452.74
3651.75
4810.11
5909.96
6934.27
7867.15
8694.11
9402.27
9980.6
10420.1
10713.8
10857.2
10848.2
10686.7
10375.6
9919.62
9326.02
8603.74
7763.05
6815.03
5770.1
4636.91
3420.57
2125.97
772.684
2419.9
3606.12
4752.21
5840.47
6854.07
7777.27
8595.73
9296.72
9869.32
10304.6
10595.7
10738.1
10729.7
10570.6
10263.4
9812.96
9226.31
8512.28
7681.01
6743.4
5709.74
4588.59
3385.11
2104.25
765.388
2460.67
3662.87
4824.3
5927.04
6954.02
7889.33
8718.41
9428.36
10008.1
10448.7
10743.1
10886.8
10877.5
10715.5
10403.4
9946.08
9350.77
8626.43
7783.42
6832.81
5785.09
4648.91
3429.38
2131.37
774.496
2425.58
3613.98
4762.16
5852.39
6867.81
7792.66
8612.56
9314.77
9888.34
10324.3
10615.9
10758.5
10749.9
10590.4
10282.5
9831.17
9243.33
8527.89
7695.01
6755.62
5720.03
4596.82
3391.13
2107.94
766.632
2452.74
3651.75
4810.11
5909.96
6934.27
7867.15
8694.11
9402.27
9980.6
10420.1
10713.8
10857.2
10848.2
10686.7
10375.6
9919.62
9326.02
8603.74
7763.05
6815.03
5770.1
4636.9
3420.57
2125.97
772.684
2419.9
3606.12
4752.21
5840.47
6854.06
7777.27
8595.73
9296.72
9869.31
10304.6
10595.7
10738.1
10729.7
10570.6
10263.4
9812.96
9226.31
8512.28
7681.01
6743.4
5709.74
4588.59
3385.11
2104.25
765.388
2419.9
3606.12
4752.21
5840.47
6854.07
7777.27
8595.73
9296.72
9869.32
10304.6
10595.7
10738.1
10729.7
10570.6
10263.4
9812.96
9226.31
8512.28
7681.01
6743.4
5709.74
4588.59
3385.11
2104.25
765.388
2452.74
3651.75
4810.11
5909.96
6934.27
7867.15
8694.11
9402.27
9980.6
10420.1
10713.8
10857.2
10848.2
10686.7
10375.6
9919.62
9326.02
8603.74
7763.05
6815.03
5770.1
4636.9
3420.57
2125.97
772.684
)
;

boundaryField
{
    outletCentralUnloaded
    {
        type            zeroGradient;
    }
    inletCentralUnloaded
    {
        type            zeroGradient;
    }
    outletFuelElement
    {
        type            zeroGradient;
    }
    inletFuelElement
    {
        type            zeroGradient;
    }
    defaultFaces
    {
        type            zeroGradient;
    }
    baffle_master
    {
        type            zeroGradient;
    }
    baffle_slave
    {
        type            zeroGradient;
    }
}


// ************************************************************************* //
