/*--------------------------------*- C++ -*----------------------------------*\
| =========                 |                                                 |
| \\      /  F ield         | OpenFOAM: The Open Source CFD Toolbox           |
|  \\    /   O peration     | Version:  2212                                  |
|   \\  /    A nd           | Website:  www.openfoam.com                      |
|    \\/     M anipulation  |                                                 |
\*---------------------------------------------------------------------------*/
FoamFile
{
    version     2.0;
    format      ascii;
    arch        "LSB;label=32;scalar=64";
    class       scalarFieldField;
    location    "84/fluidRegion";
    object      Trad.nuclearFuelPin;
}
// * * * * * * * * * * * * * * * * * * * * * * * * * * * * * * * * * * * * * //


350
(
0()
0()
0()
0()
0()
0()
0()
0()
0()
0()
0()
0()
0()
0()
0()
0()
0()
0()
0()
0()
0()
0()
0()
0()
0()
0()
0()
0()
0()
0()
0()
0()
0()
0()
0()
0()
0()
0()
0()
0()
0()
0()
0()
0()
0()
0()
0()
0()
0()
0()

20
(
2425.58
2423.79
2418.42
2409.47
2396.94
2380.83
2361.14
2337.87
2311.02
2280.59
2246.58
2208.99
2167.82
2123.07
2074.74
2022.83
1852
1847.93
1843.99
1840.18
)


20
(
3613.98
3608.64
3592.61
3565.9
3528.51
3480.43
3421.67
3352.23
3272.1
3181.28
3079.79
2967.61
2844.74
2711.19
2566.96
2412.04
1902.21
1890.06
1878.31
1866.93
)


20
(
4762.16
4753.35
4726.92
4682.87
4621.2
4541.92
4445.01
4330.48
4198.34
4048.58
3881.19
3696.19
3493.57
3273.33
3035.46
2779.98
1939.19
1919.16
1899.78
1881.02
)


20
(
5852.39
5840.25
5803.84
5743.15
5658.18
5548.93
5415.41
5257.61
5075.53
4869.18
4638.55
4383.64
4104.46
3801
3473.26
3121.24
1962.75
1935.15
1908.45
1882.6
)


20
(
6867.81
6852.53
6806.71
6730.33
6623.4
6485.91
6317.88
6119.3
5890.16
5630.47
5340.23
5019.44
4668.1
4286.2
3873.76
3430.76
1972.83
1938.1
1904.51
1871.97
)


20
(
7792.66
7774.48
7719.97
7629.11
7501.9
7338.35
7138.46
6902.22
6629.64
6320.71
5975.44
5593.82
5175.86
4721.55
4230.9
3703.91
1969.55
1928.23
1888.26
1849.56
)


20
(
8612.57
8591.78
8529.44
8425.53
8280.05
8093.01
7864.41
7594.25
7282.51
6929.22
6534.36
6097.94
5619.95
5100.4
4539.28
3936.6
1953.16
1905.91
1860.2
1815.94
)


20
(
9314.77
9291.71
9222.52
9107.2
8945.75
8738.17
8484.47
8184.63
7838.67
7446.58
7008.36
6524.01
5993.54
5416.93
4794.2
4125.34
1924.1
1871.66
1820.93
1771.81
)


20
(
9888.34
9863.36
9788.41
9663.5
9488.62
9263.78
8988.97
8664.2
8289.46
7864.76
7390.09
6865.46
6290.86
5666.3
4991.77
4267.28
1882.95
1826.15
1771.2
1717.99
)


20
(
10324.3
10297.8
10218.3
10085.7
9900.2
9661.64
9370.06
9025.48
8627.87
8177.26
7673.63
7116.98
6507.32
5844.65
5128.97
4360.27
1830.45
1770.19
1711.89
1655.43
)


20
(
10615.9
10588.3
10505.4
10367.4
10174.1
9925.55
9621.8
9262.83
8848.63
8379.21
7854.56
7274.68
6639.58
5949.25
5203.69
4402.91
1767.5
1704.72
1643.99
1585.18
)


20
(
10758.5
10730.2
10645.4
10503.9
10305.9
10051.4
9740.27
9372.57
8948.31
8467.49
7930.09
7336.12
6685.59
5978.49
5214.82
4394.58
1695.15
1630.84
1568.63
1508.39
)


20
(
10750
10721.4
10635.9
10493.4
10293.8
10037.2
9723.63
9353.02
8925.39
8440.73
7899.07
7300.38
6644.68
5931.95
5162.22
4335.46
1614.57
1549.75
1487.05
1426.33
)


20
(
10590.4
10562.2
10477.3
10335.9
10137.9
9883.34
9572.22
9204.52
8780.26
8299.43
7762.04
7168.07
6517.54
5810.44
5046.77
4226.53
1527.09
1462.79
1400.58
1340.34
)


20
(
10282.5
10254.9
10172.1
10034
9840.74
9592.22
9288.47
8929.5
8515.3
8045.88
7521.23
6941.35
6306.25
5615.92
4870.36
4069.58
1434.17
1371.39
1310.66
1251.84
)


20
(
9831.17
9804.66
9725.14
9592.61
9407.06
9168.5
8876.92
8532.33
8134.73
7684.11
7180.48
6623.83
6014.18
5351.5
4635.82
3867.12
1337.3
1277.03
1218.73
1162.27
)


20
(
9243.33
9218.35
9143.4
9018.49
8843.61
8618.77
8343.96
8019.19
7644.45
7219.74
6745.08
6220.44
5645.84
5021.28
4346.75
3622.26
1237.92
1181.12
1126.18
1072.96
)


20
(
8527.89
8504.83
8435.63
8320.31
8158.86
7951.29
7697.58
7397.74
7051.78
6659.69
6221.47
5737.12
5206.65
4630.04
4007.31
3338.45
1137.2
1084.76
1034.03
984.904
)


20
(
7695.01
7674.23
7611.88
7507.97
7362.5
7175.46
6946.86
6676.69
6364.96
6011.67
5616.81
5180.39
4702.4
4182.85
3621.73
3019.06
1035.62
988.369
942.661
898.395
)


20
(
6755.62
6737.45
6682.93
6592.07
6464.86
6301.31
6101.42
5865.18
5592.59
5283.66
4938.39
4556.77
4138.81
3684.5
3193.85
2666.85
932.487
891.172
851.204
812.497
)


20
(
5720.03
5704.76
5658.93
5582.55
5475.62
5338.13
5170.1
4971.51
4742.38
4482.69
4192.44
3871.65
3520.31
3138.41
2725.96
2282.96
825.03
790.3
756.702
724.165
)


20
(
4596.82
4584.68
4548.26
4487.57
4402.6
4293.35
4159.83
4002.02
3819.94
3613.59
3382.95
3128.04
2848.85
2545.39
2217.64
1865.62
707.107
679.51
652.812
626.956
)


20
(
3391.13
3382.32
3355.89
3311.84
3250.17
3170.89
3073.98
2959.45
2827.31
2677.54
2510.15
2325.15
2122.53
1902.28
1664.42
1408.94
568.133
548.104
528.728
509.963
)


20
(
2107.94
2102.59
2086.57
2059.86
2022.47
1974.39
1915.63
1846.18
1766.05
1675.24
1573.74
1461.56
1338.7
1205.15
1060.92
906.004
396.17
384.026
372.276
360.898
)


20
(
766.632
764.842
759.471
750.521
737.99
721.879
702.188
678.917
652.065
621.633
587.621
550.029
508.856
464.104
415.771
363.858
193.01
188.94
185.003
181.19
)


20
(
2460.67
2458.86
2453.43
2444.38
2431.7
2415.41
2395.5
2371.96
2344.8
2314.03
2279.63
2241.61
2199.97
2154.71
2105.82
2053.32
1880.52
1876.41
1872.43
1868.57
)


20
(
3662.87
3657.46
3641.25
3614.24
3576.42
3527.79
3468.36
3398.12
3317.07
3225.22
3122.56
3009.09
2884.82
2749.74
2603.86
2447.16
1931.49
1919.2
1907.32
1895.81
)


20
(
4824.29
4815.38
4788.65
4744.1
4681.73
4601.53
4503.52
4387.68
4254.02
4102.54
3933.24
3746.12
3541.18
3318.41
3077.82
2819.42
1968.99
1948.73
1929.13
1910.15
)


20
(
5927.04
5914.76
5877.93
5816.54
5730.6
5620.1
5485.05
5325.44
5141.28
4932.56
4699.29
4441.46
4159.08
3852.15
3520.65
3164.61
1992.84
1964.93
1937.92
1911.77
)


20
(
6954.03
6938.57
6892.22
6814.97
6706.81
6567.76
6397.8
6196.94
5965.18
5702.52
5408.95
5084.48
4729.12
4342.85
3925.68
3477.6
2002.98
1967.85
1933.87
1900.96
)


20
(
7889.33
7870.95
7815.81
7723.9
7595.24
7429.82
7227.63
6988.69
6712.98
6400.52
6051.29
5665.3
5242.55
4783.04
4286.77
3753.74
1999.51
1957.73
1917.3
1878.15
)


20
(
8718.41
8697.39
8634.33
8529.23
8382.09
8192.9
7961.68
7688.42
7373.12
7015.78
6616.4
6174.97
5691.51
5166.01
4598.47
3988.88
1982.72
1934.93
1888.7
1843.92
)


20
(
9428.36
9405.04
9335.05
9218.41
9055.11
8845.16
8588.55
8285.28
7935.35
7538.77
7095.53
6605.64
6069.08
5485.88
4856.01
4179.49
1953.03
1899.99
1848.68
1798.99
)


20
(
10008.1
9982.87
9907.06
9780.72
9603.84
9376.42
9098.46
8769.97
8390.94
7961.37
7481.27
6950.63
6369.45
5737.73
5055.48
4322.68
1911.04
1853.59
1798.01
1744.19
)


20
(
10448.7
10421.9
10341.4
10207.4
10019.7
9778.4
9483.49
9134.95
8732.79
8277.02
7767.62
7204.6
6587.96
5917.69
5193.81
4416.3
1857.51
1796.55
1737.59
1680.48
)


20
(
10743.1
10715.1
10631.4
10491.7
10296.2
10044.8
9737.61
9374.53
8955.59
8480.79
7950.13
7363.61
6721.23
6022.99
5268.89
4458.94
1793.34
1729.84
1668.42
1608.93
)


20
(
10886.8
10858.2
10772.3
10629.3
10429
10171.6
9856.88
9484.97
9055.85
8569.52
8025.96
7425.2
6767.21
6052.01
5279.59
4449.96
1719.6
1654.56
1591.64
1530.7
)


20
(
10877.5
10848.7
10762.2
10618
10416.1
10156.6
9839.44
9464.58
9032.05
8541.85
7993.97
7388.43
6725.21
6004.33
5225.77
4389.54
1637.49
1571.93
1508.51
1447.09
)


20
(
10715.5
10686.9
10601.1
10458
10257.8
10000.3
9685.62
9313.72
8884.6
8398.26
7854.71
7253.94
6595.95
5880.75
5108.33
4278.7
1548.34
1483.3
1420.38
1359.45
)


20
(
10403.4
10375.4
10291.7
10152
9956.51
9705.14
9397.92
9034.83
8615.89
8141.09
7610.43
7023.91
6381.53
5683.29
4929.19
4119.24
1453.64
1390.14
1328.71
1269.22
)


20
(
9946.08
9919.27
9838.84
9704.79
9517.11
9275.82
8980.9
8632.37
8230.21
7774.43
7265.03
6702.01
6085.37
5415.1
4691.22
3913.71
1354.91
1293.96
1234.99
1177.89
)


20
(
9350.77
9325.5
9249.69
9123.35
8946.47
8719.05
8441.09
8112.6
7733.57
7304
6823.9
6293.25
5712.07
5080.36
4398.1
3665.31
1253.66
1196.21
1140.63
1086.81
)


20
(
8626.44
8603.11
8533.12
8416.48
8253.18
8043.23
7786.61
7483.34
7133.42
6736.84
6293.6
5803.7
5267.15
4683.94
4054.07
3377.55
1151.08
1098.04
1046.73
997.044
)


20
(
7783.42
7762.4
7699.34
7594.24
7447.09
7257.91
7026.69
6753.43
6438.13
6080.79
5681.41
5239.99
4756.52
4231.02
3663.48
3053.9
1047.74
999.949
953.717
908.944
)


20
(
6832.81
6814.43
6759.29
6667.39
6538.72
6373.3
6171.12
5932.17
5656.46
5344
4994.77
4608.78
4186.03
3726.51
3230.24
2697.21
942.975
901.188
860.761
821.611
)


20
(
5785.09
5769.64
5723.29
5646.03
5537.88
5398.82
5228.86
5028
4796.23
4533.57
4240
3915.54
3560.17
3173.9
2756.72
2308.65
834.015
798.888
764.905
731.995
)


20
(
4648.9
4636.63
4599.79
4538.41
4452.46
4341.96
4206.91
4047.3
3863.13
3654.41
3421.14
3163.3
2880.92
2573.97
2242.48
1886.42
714.639
686.726
659.722
633.57
)


20
(
3429.38
3420.47
3393.74
3349.18
3286.81
3206.61
3108.6
2992.76
2859.1
2707.62
2538.31
2351.19
2146.24
1923.48
1682.89
1424.48
574.046
553.787
534.189
515.209
)


20
(
2131.37
2125.97
2109.76
2082.74
2044.92
1996.29
1936.86
1866.62
1785.57
1693.72
1591.06
1477.6
1353.32
1218.25
1072.36
915.672
399.998
387.714
375.831
364.322
)


20
(
774.496
772.685
767.253
758.2
745.526
729.23
709.314
685.776
658.617
627.836
593.434
555.412
513.768
468.502
419.616
367.108
194.303
190.187
186.205
182.348
)


20
(
2419.9
2418.11
2412.75
2403.82
2391.31
2375.23
2355.58
2332.35
2305.55
2275.18
2241.23
2203.71
2162.61
2117.95
2069.7
2017.89
1847.36
1843.3
1839.37
1835.57
)


20
(
3606.12
3600.79
3584.79
3558.13
3520.81
3472.82
3414.17
3344.85
3264.87
3174.22
3072.91
2960.93
2838.29
2704.99
2561.02
2406.38
1897.47
1885.35
1873.62
1862.27
)


20
(
4752.21
4743.42
4717.03
4673.07
4611.51
4532.37
4435.64
4321.32
4189.42
4039.93
3872.85
3688.19
3485.94
3266.1
3028.67
2773.65
1934.39
1914.4
1895.06
1876.33
)


20
(
5840.47
5828.36
5792.01
5731.43
5646.61
5537.56
5404.29
5246.77
5065.03
4859.05
4628.84
4374.4
4095.73
3792.82
3465.68
3114.31
1957.92
1930.38
1903.73
1877.92
)


20
(
6854.07
6838.82
6793.07
6716.83
6610.1
6472.87
6305.14
6106.92
5878.2
5618.99
5329.28
5009.07
4658.37
4277.17
3865.47
3423.28
1968.02
1933.35
1899.82
1867.34
)


20
(
7777.27
7759.13
7704.71
7614.02
7487.04
7323.79
7124.26
6888.45
6616.37
6308
5963.36
5582.44
5165.24
4711.77
4222.01
3695.98
1964.78
1923.54
1883.64
1845.01
)


20
(
8595.73
8574.99
8512.76
8409.03
8263.83
8077.13
7848.94
7579.27
7268.11
6915.46
6521.32
6085.69
5608.58
5089.97
4529.88
3928.3
1948.47
1901.31
1855.69
1811.5
)


20
(
9296.72
9273.7
9204.63
9089.52
8928.37
8721.17
8467.93
8168.64
7823.31
7431.94
6994.52
6511.05
5981.54
5405.99
4784.4
4116.76
1919.52
1867.18
1816.55
1767.51
)


20
(
9869.31
9844.38
9769.57
9644.88
9470.32
9245.89
8971.59
8647.41
8273.35
7849.42
7375.62
6851.95
6278.4
5654.97
4981.68
4258.51
1878.52
1821.83
1766.98
1713.86
)


20
(
10304.6
10278.1
10198.7
10066.4
9881.24
9643.11
9352.07
9008.11
8611.23
8161.43
7658.72
7103.09
6494.55
5833.08
5118.7
4351.41
1826.2
1766.05
1707.86
1651.5
)


20
(
10595.7
10568.1
10485.4
10347.6
10154.7
9906.62
9603.43
9245.12
8831.68
8363.11
7839.41
7260.59
6626.65
5937.58
5193.38
4394.06
1763.46
1700.8
1640.17
1581.47
)


20
(
10738.1
10709.9
10625.2
10484.1
10286.4
10032.3
9721.78
9354.76
8931.27
8451.32
7914.9
7322.02
6672.67
5966.86
5204.59
4385.84
1691.33
1627.15
1565.05
1504.92
)


20
(
10729.7
10701.3
10615.9
10473.6
10274.4
10018.3
9705.28
9335.34
8908.49
8424.72
7884.04
7286.45
6631.94
5920.52
5152.18
4326.93
1611.01
1546.31
1483.72
1423.11
)


20
(
10570.6
10542.4
10457.7
10316.5
10118.9
9864.81
9554.25
9187.23
8763.74
8283.79
7747.37
7154.49
6505.14
5799.33
5037.05
4218.31
1523.8
1459.61
1397.52
1337.38
)


20
(
10263.4
10235.8
10153.1
10015.3
9822.4
9574.33
9271.14
8912.82
8499.38
8030.81
7507.12
6928.3
6294.35
5605.28
4861.08
4061.76
1431.16
1368.5
1307.87
1249.16
)


20
(
9812.96
9786.5
9707.13
9574.83
9389.62
9151.5
8860.45
8516.49
8119.61
7669.82
7167.11
6611.48
6002.93
5341.47
4627.09
3859.79
1334.58
1274.43
1216.24
1159.88
)


20
(
9226.31
9201.37
9126.56
9001.88
8827.32
8602.89
8328.58
8004.4
7630.34
7206.42
6732.61
6208.94
5635.39
5011.96
4338.66
3615.49
1235.5
1178.81
1123.96
1070.85
)


20
(
8512.28
8489.26
8420.19
8305.08
8143.93
7936.73
7683.49
7384.2
7038.87
6647.49
6210.07
5726.6
5197.1
4621.54
3999.94
3332.3
1135.07
1082.73
1032.09
983.054
)


20
(
7681.01
7660.27
7598.04
7494.31
7349.11
7162.41
6934.22
6664.55
6353.39
6000.74
5606.6
5170.97
4693.86
4175.26
3615.17
3013.59
1033.76
986.603
940.978
896.793
)


20
(
6743.4
6725.26
6670.84
6580.15
6453.17
6289.92
6090.39
5854.58
5582.5
5274.13
4929.49
4548.56
4131.36
3677.88
3188.13
2662.09
930.89
889.651
849.755
811.119
)


20
(
5709.74
5694.49
5648.75
5572.51
5465.77
5328.54
5160.81
4962.59
4733.87
4474.65
4184.94
3864.73
3514.03
3132.83
2721.13
2278.94
823.67
789.004
755.467
722.989
)


20
(
4588.59
4576.48
4540.13
4479.54
4394.73
4285.68
4152.4
3994.88
3813.14
3607.16
3376.94
3122.5
2843.82
2540.9
2213.76
1862.38
705.978
678.432
651.782
625.974
)


20
(
3385.11
3376.31
3349.93
3305.96
3244.41
3165.26
3068.53
2954.22
2822.31
2672.82
2505.74
2321.07
2118.82
1898.97
1661.55
1406.53
567.259
547.266
527.925
509.195
)


20
(
2104.25
2098.92
2082.92
2056.26
2018.94
1970.95
1912.29
1842.98
1762.99
1672.35
1571.04
1459.06
1336.42
1203.12
1059.15
904.513
395.61
383.487
371.759
360.402
)


20
(
765.388
763.601
758.241
749.306
736.799
720.717
701.062
677.833
651.03
620.654
586.704
549.18
508.083
463.412
415.167
363.349
192.813
188.75
184.82
181.014
)


20
(
2452.74
2450.94
2445.52
2436.49
2423.85
2407.6
2387.74
2364.26
2337.18
2306.48
2272.17
2234.25
2192.72
2147.57
2098.82
2046.45
1874.11
1870
1866.03
1862.19
)


20
(
3651.75
3646.36
3630.19
3603.25
3565.52
3517.02
3457.74
3387.69
3306.85
3215.24
3112.85
2999.68
2875.73
2741
2595.5
2439.22
1924.88
1912.63
1900.78
1889.3
)


20
(
4810.11
4801.22
4774.56
4730.13
4667.91
4587.93
4490.17
4374.63
4241.32
4090.24
3921.38
3734.75
3530.34
3308.15
3068.19
2810.46
1962.25
1942.04
1922.5
1903.57
)


20
(
5909.96
5897.71
5860.98
5799.75
5714.03
5603.82
5469.12
5309.93
5126.25
4918.08
4685.41
4428.26
4146.61
3840.48
3509.85
3154.73
1986.02
1958.18
1931.25
1905.16
)


20
(
6934.27
6918.86
6872.63
6795.58
6687.7
6549.01
6379.49
6179.16
5948
5686.02
5393.22
5069.6
4715.16
4329.9
3913.82
3466.91
1996.13
1961.09
1927.2
1894.38
)


20
(
7867.15
7848.82
7793.82
7702.16
7573.83
7408.84
7207.18
6968.86
6693.87
6382.22
6033.91
5648.92
5227.28
4768.97
4273.99
3742.35
1992.69
1951.01
1910.69
1871.64
)


20
(
8694.11
8673.14
8610.25
8505.42
8358.66
8169.97
7939.36
7666.81
7352.33
6995.92
6597.58
6157.3
5675.1
5150.97
4584.91
3976.91
1975.98
1928.31
1882.2
1837.54
)


20
(
9402.27
9379
9309.2
9192.86
9029.99
8820.58
8564.64
8262.16
7913.15
7517.6
7075.52
6586.9
6051.75
5470.06
4841.83
4167.07
1946.42
1893.52
1842.34
1792.78
)


20
(
9980.6
9955.39
9879.79
9753.77
9577.35
9350.53
9073.3
8745.66
8367.62
7939.17
7460.32
6931.06
6351.4
5721.33
5040.85
4309.97
1904.61
1847.31
1791.88
1738.2
)


20
(
10420.1
10393.3
10313.1
10179.4
9992.22
9751.55
9457.41
9109.78
8708.67
8254.08
7746.01
7184.46
6569.42
5900.91
5178.91
4403.43
1851.31
1790.51
1731.7
1674.74
)


20
(
10713.8
10686
10602.4
10463.1
10268.1
10017.4
9710.97
9348.84
8930.99
8457.42
7928.15
7343.16
6702.45
6006.03
5253.9
4446.06
1787.41
1724.08
1662.81
1603.48
)


20
(
10857.3
10828.7
10743.1
10600.4
10400.7
10143.9
9830.05
9459.11
9031.11
8546.04
8003.9
7404.7
6748.43
6035.1
5264.69
4437.22
1713.98
1649.11
1586.36
1525.58
)


20
(
10848.2
10819.4
10733.1
10589.3
10388
10129.1
9812.79
9438.9
9007.5
8518.57
7972.13
7368.16
6706.68
5987.67
5211.14
4377.1
1632.21
1566.83
1503.57
1442.31
)


20
(
10686.7
10658.2
10572.6
10429.9
10230.2
9973.38
9659.52
9288.58
8860.58
8375.51
7833.37
7234.17
6577.9
5864.56
5094.16
4266.69
1543.45
1478.58
1415.82
1355.05
)


20
(
10375.6
10347.7
10264.1
10124.8
9929.85
9679.14
9372.72
9010.58
8592.73
8119.16
7589.89
7004.9
6364.19
5667.77
4915.64
4107.8
1449.15
1385.82
1324.55
1265.21
)


20
(
9919.62
9892.88
9812.66
9678.95
9491.77
9251.1
8956.96
8609.33
8208.22
7753.63
7245.56
6684
6068.97
5400.45
4678.46
3902.98
1350.85
1290.05
1231.24
1174.28
)


20
(
9326.02
9300.82
9225.21
9099.2
8922.78
8695.95
8418.72
8091.09
7713.04
7284.6
6805.74
6276.48
5696.82
5066.75
4386.27
3655.39
1250.02
1192.73
1137.29
1083.61
)


20
(
8603.74
8580.47
8510.67
8394.33
8231.46
8022.05
7766.11
7463.63
7114.61
6719.06
6276.98
5788.36
5253.21
4671.52
4043.29
3368.53
1147.87
1094.97
1043.8
994.237
)


20
(
7763.05
7742.09
7679.19
7574.37
7427.61
7238.92
7008.3
6735.76
6421.28
6064.87
5666.53
5226.26
4744.05
4219.92
3653.86
3045.87
1044.94
997.272
951.16
906.504
)


20
(
6815.03
6796.7
6741.7
6650.04
6521.71
6356.72
6155.06
5916.74
5641.75
5330.1
4981.78
4596.79
4175.15
3716.83
3221.85
2690.21
940.55
898.871
858.551
819.502
)


20
(
5770.1
5754.69
5708.46
5631.41
5523.53
5384.84
5215.32
5014.99
4783.83
4521.85
4229.05
3905.42
3550.98
3165.72
2749.63
2302.72
831.937
796.901
763.007
730.182
)


20
(
4636.9
4624.66
4587.92
4526.69
4440.97
4330.76
4196.06
4036.87
3853.18
3645
3412.34
3155.18
2873.53
2567.38
2236.75
1881.63
712.895
685.055
658.122
632.038
)


20
(
3420.57
3411.68
3385.02
3340.58
3278.37
3198.38
3100.62
2985.08
2851.77
2700.68
2531.82
2345.19
2140.78
1918.59
1678.63
1420.89
572.676
552.47
532.923
513.993
)


20
(
2125.97
2120.58
2104.41
2077.47
2039.75
1991.24
1931.97
1861.91
1781.07
1689.46
1587.07
1473.9
1349.95
1215.22
1069.72
913.439
399.11
386.858
375.006
363.527
)


20
(
772.684
770.878
765.461
756.431
743.79
727.537
707.672
684.195
657.107
626.407
592.095
554.171
512.636
467.489
418.729
366.359
194.004
189.899
185.927
182.08
)


20
(
2452.74
2450.94
2445.52
2436.49
2423.85
2407.6
2387.74
2364.26
2337.18
2306.48
2272.17
2234.25
2192.72
2147.58
2098.82
2046.45
1874.11
1870
1866.03
1862.19
)


20
(
3651.75
3646.36
3630.19
3603.25
3565.52
3517.02
3457.74
3387.69
3306.85
3215.24
3112.85
2999.68
2875.73
2741
2595.5
2439.22
1924.88
1912.63
1900.78
1889.3
)


20
(
4810.11
4801.22
4774.56
4730.13
4667.92
4587.93
4490.17
4374.63
4241.32
4090.24
3921.38
3734.75
3530.34
3308.15
3068.19
2810.46
1962.25
1942.04
1922.5
1903.57
)


20
(
5909.96
5897.71
5860.98
5799.75
5714.03
5603.82
5469.12
5309.93
5126.25
4918.08
4685.42
4428.26
4146.61
3840.48
3509.85
3154.73
1986.02
1958.18
1931.25
1905.16
)


20
(
6934.27
6918.86
6872.63
6795.57
6687.7
6549.01
6379.49
6179.16
5948
5686.02
5393.22
5069.6
4715.16
4329.9
3913.82
3466.91
1996.13
1961.09
1927.2
1894.38
)


20
(
7867.15
7848.82
7793.82
7702.16
7573.83
7408.84
7207.18
6968.86
6693.87
6382.22
6033.91
5648.92
5227.28
4768.97
4273.99
3742.35
1992.69
1951.01
1910.69
1871.64
)


20
(
8694.11
8673.14
8610.25
8505.42
8358.66
8169.97
7939.36
7666.81
7352.33
6995.92
6597.58
6157.3
5675.1
5150.97
4584.91
3976.91
1975.98
1928.31
1882.2
1837.54
)


20
(
9402.27
9379
9309.2
9192.86
9029.99
8820.58
8564.64
8262.16
7913.15
7517.6
7075.52
6586.9
6051.74
5470.06
4841.83
4167.07
1946.42
1893.52
1842.34
1792.78
)


20
(
9980.6
9955.39
9879.79
9753.77
9577.35
9350.53
9073.3
8745.66
8367.62
7939.17
7460.32
6931.06
6351.4
5721.33
5040.85
4309.97
1904.61
1847.31
1791.88
1738.2
)


20
(
10420.1
10393.3
10313.1
10179.4
9992.22
9751.55
9457.41
9109.78
8708.67
8254.08
7746.01
7184.46
6569.42
5900.91
5178.91
4403.43
1851.31
1790.51
1731.7
1674.74
)


20
(
10713.8
10686
10602.4
10463.1
10268.1
10017.4
9710.97
9348.84
8930.99
8457.42
7928.15
7343.16
6702.45
6006.03
5253.9
4446.06
1787.41
1724.08
1662.81
1603.48
)


20
(
10857.2
10828.7
10743.1
10600.4
10400.7
10143.9
9830.05
9459.11
9031.11
8546.04
8003.9
7404.7
6748.43
6035.1
5264.69
4437.22
1713.98
1649.11
1586.36
1525.58
)


20
(
10848.2
10819.4
10733.1
10589.3
10388
10129.1
9812.78
9438.9
9007.5
8518.57
7972.13
7368.16
6706.68
5987.67
5211.14
4377.1
1632.21
1566.83
1503.57
1442.31
)


20
(
10686.7
10658.2
10572.6
10429.9
10230.2
9973.38
9659.51
9288.58
8860.58
8375.51
7833.37
7234.17
6577.9
5864.56
5094.16
4266.69
1543.45
1478.58
1415.82
1355.05
)


20
(
10375.6
10347.7
10264.1
10124.8
9929.85
9679.14
9372.72
9010.58
8592.73
8119.16
7589.89
7004.9
6364.19
5667.77
4915.64
4107.8
1449.15
1385.82
1324.55
1265.21
)


20
(
9919.62
9892.88
9812.66
9678.95
9491.77
9251.1
8956.96
8609.33
8208.22
7753.63
7245.56
6684
6068.97
5400.45
4678.46
3902.98
1350.85
1290.05
1231.24
1174.28
)


20
(
9326.02
9300.82
9225.21
9099.2
8922.78
8695.95
8418.72
8091.09
7713.04
7284.6
6805.74
6276.48
5696.82
5066.75
4386.27
3655.39
1250.02
1192.73
1137.29
1083.61
)


20
(
8603.74
8580.47
8510.67
8394.33
8231.46
8022.05
7766.11
7463.63
7114.61
6719.06
6276.98
5788.36
5253.21
4671.52
4043.29
3368.53
1147.87
1094.97
1043.8
994.237
)


20
(
7763.05
7742.09
7679.19
7574.37
7427.61
7238.92
7008.3
6735.76
6421.28
6064.87
5666.53
5226.26
4744.05
4219.92
3653.86
3045.87
1044.94
997.272
951.16
906.504
)


20
(
6815.03
6796.7
6741.7
6650.04
6521.71
6356.72
6155.06
5916.74
5641.75
5330.1
4981.78
4596.79
4175.15
3716.83
3221.85
2690.21
940.55
898.871
858.551
819.502
)


20
(
5770.1
5754.69
5708.46
5631.41
5523.53
5384.84
5215.32
5014.98
4783.83
4521.85
4229.05
3905.42
3550.98
3165.72
2749.63
2302.72
831.937
796.901
763.007
730.182
)


20
(
4636.91
4624.66
4587.92
4526.69
4440.97
4330.76
4196.06
4036.87
3853.18
3645
3412.34
3155.18
2873.53
2567.38
2236.75
1881.63
712.896
685.055
658.122
632.038
)


20
(
3420.57
3411.68
3385.02
3340.58
3278.37
3198.38
3100.62
2985.08
2851.77
2700.68
2531.82
2345.19
2140.78
1918.59
1678.63
1420.89
572.676
552.47
532.923
513.993
)


20
(
2125.97
2120.58
2104.41
2077.47
2039.75
1991.24
1931.96
1861.91
1781.07
1689.46
1587.07
1473.9
1349.95
1215.22
1069.72
913.439
399.11
386.858
375.006
363.527
)


20
(
772.684
770.878
765.461
756.431
743.79
727.537
707.672
684.196
657.107
626.407
592.095
554.171
512.636
467.489
418.73
366.359
194.004
189.899
185.927
182.08
)


20
(
2419.9
2418.11
2412.75
2403.82
2391.31
2375.23
2355.58
2332.35
2305.55
2275.18
2241.23
2203.71
2162.62
2117.95
2069.71
2017.89
1847.37
1843.3
1839.37
1835.57
)


20
(
3606.12
3600.79
3584.8
3558.14
3520.81
3472.82
3414.17
3344.85
3264.87
3174.22
3072.91
2960.93
2838.29
2704.99
2561.02
2406.38
1897.48
1885.35
1873.62
1862.27
)


20
(
4752.21
4743.42
4717.04
4673.07
4611.51
4532.37
4435.64
4321.33
4189.42
4039.93
3872.85
3688.19
3485.94
3266.1
3028.67
2773.66
1934.39
1914.4
1895.06
1876.33
)


20
(
5840.47
5828.36
5792.01
5731.43
5646.61
5537.57
5404.29
5246.78
5065.03
4859.06
4628.85
4374.4
4095.73
3792.82
3465.68
3114.31
1957.93
1930.38
1903.73
1877.92
)


20
(
6854.07
6838.82
6793.07
6716.83
6610.1
6472.87
6305.14
6106.92
5878.2
5618.99
5329.28
5009.07
4658.37
4277.17
3865.48
3423.28
1968.02
1933.35
1899.82
1867.34
)


20
(
7777.27
7759.13
7704.71
7614.02
7487.04
7323.79
7124.26
6888.45
6616.37
6308
5963.36
5582.44
5165.24
4711.77
4222.01
3695.98
1964.78
1923.54
1883.65
1845.01
)


20
(
8595.73
8574.99
8512.76
8409.04
8263.83
8077.13
7848.94
7579.27
7268.11
6915.46
6521.32
6085.69
5608.58
5089.97
4529.88
3928.3
1948.47
1901.31
1855.69
1811.5
)


20
(
9296.72
9273.7
9204.63
9089.52
8928.37
8721.17
8467.93
8168.64
7823.31
7431.94
6994.52
6511.05
5981.55
5405.99
4784.4
4116.76
1919.53
1867.19
1816.55
1767.51
)


20
(
9869.32
9844.38
9769.57
9644.88
9470.33
9245.89
8971.59
8647.41
8273.35
7849.43
7375.62
6851.95
6278.4
5654.98
4981.68
4258.51
1878.52
1821.83
1766.98
1713.87
)


20
(
10304.6
10278.1
10198.7
10066.4
9881.24
9643.11
9352.07
9008.11
8611.23
8161.43
7658.72
7103.09
6494.55
5833.09
5118.71
4351.41
1826.2
1766.05
1707.86
1651.5
)


20
(
10595.7
10568.1
10485.4
10347.6
10154.7
9906.63
9603.44
9245.12
8831.68
8363.11
7839.42
7260.6
6626.65
5937.58
5193.38
4394.06
1763.46
1700.8
1640.18
1581.47
)


20
(
10738.1
10709.9
10625.2
10484.1
10286.4
10032.3
9721.78
9354.76
8931.27
8451.32
7914.9
7322.02
6672.67
5966.86
5204.59
4385.84
1691.33
1627.15
1565.05
1504.92
)


20
(
10729.7
10701.3
10615.9
10473.6
10274.4
10018.3
9705.28
9335.34
8908.49
8424.72
7884.04
7286.45
6631.94
5920.52
5152.18
4326.93
1611.01
1546.31
1483.72
1423.11
)


20
(
10570.6
10542.4
10457.7
10316.5
10118.9
9864.81
9554.25
9187.23
8763.74
8283.79
7747.37
7154.49
6505.14
5799.33
5037.05
4218.31
1523.8
1459.62
1397.52
1337.38
)


20
(
10263.4
10235.8
10153.1
10015.3
9822.4
9574.33
9271.14
8912.82
8499.38
8030.81
7507.12
6928.3
6294.35
5605.28
4861.08
4061.76
1431.16
1368.5
1307.87
1249.16
)


20
(
9812.96
9786.5
9707.13
9574.83
9389.62
9151.5
8860.45
8516.49
8119.62
7669.82
7167.11
6611.48
6002.93
5341.47
4627.09
3859.79
1334.58
1274.43
1216.24
1159.88
)


20
(
9226.31
9201.37
9126.56
9001.88
8827.32
8602.89
8328.58
8004.4
7630.35
7206.42
6732.61
6208.94
5635.39
5011.96
4338.66
3615.49
1235.5
1178.81
1123.96
1070.85
)


20
(
8512.28
8489.26
8420.19
8305.08
8143.93
7936.73
7683.49
7384.2
7038.87
6647.49
6210.07
5726.6
5197.1
4621.54
3999.95
3332.3
1135.07
1082.73
1032.09
983.055
)


20
(
7681.01
7660.27
7598.04
7494.32
7349.11
7162.41
6934.22
6664.55
6353.39
6000.74
5606.6
5170.98
4693.86
4175.26
3615.17
3013.59
1033.77
986.604
940.979
896.794
)


20
(
6743.4
6725.26
6670.84
6580.15
6453.17
6289.92
6090.39
5854.58
5582.5
5274.13
4929.49
4548.56
4131.36
3677.89
3188.13
2662.09
930.891
889.652
849.756
811.12
)


20
(
5709.74
5694.49
5648.75
5572.51
5465.77
5328.54
5160.81
4962.59
4733.87
4474.65
4184.94
3864.73
3514.03
3132.83
2721.13
2278.94
823.671
789.005
755.468
722.989
)


20
(
4588.59
4576.48
4540.13
4479.55
4394.73
4285.68
4152.4
3994.89
3813.14
3607.16
3376.94
3122.5
2843.82
2540.9
2213.76
1862.38
705.979
678.432
651.783
625.975
)


20
(
3385.11
3376.31
3349.93
3305.96
3244.41
3165.27
3068.53
2954.22
2822.31
2672.82
2505.74
2321.07
2118.82
1898.98
1661.55
1406.53
567.26
547.267
527.926
509.196
)


20
(
2104.25
2098.92
2082.92
2056.26
2018.94
1970.95
1912.29
1842.98
1762.99
1672.35
1571.04
1459.06
1336.42
1203.12
1059.15
904.514
395.61
383.487
371.76
360.402
)


20
(
765.388
763.601
758.241
749.307
736.799
720.717
701.062
677.833
651.03
620.654
586.704
549.18
508.083
463.412
415.167
363.349
192.813
188.751
184.821
181.015
)


20
(
2460.67
2458.86
2453.43
2444.38
2431.7
2415.41
2395.5
2371.96
2344.8
2314.03
2279.63
2241.61
2199.97
2154.71
2105.82
2053.32
1880.52
1876.41
1872.43
1868.57
)


20
(
3662.87
3657.46
3641.25
3614.24
3576.42
3527.79
3468.36
3398.12
3317.07
3225.22
3122.56
3009.09
2884.82
2749.74
2603.86
2447.16
1931.49
1919.2
1907.32
1895.81
)


20
(
4824.3
4815.39
4788.65
4744.1
4681.73
4601.53
4503.52
4387.68
4254.02
4102.54
3933.24
3746.12
3541.18
3318.41
3077.83
2819.42
1968.99
1948.73
1929.13
1910.15
)


20
(
5927.04
5914.76
5877.93
5816.54
5730.6
5620.1
5485.05
5325.44
5141.28
4932.56
4699.29
4441.47
4159.08
3852.15
3520.65
3164.61
1992.84
1964.93
1937.92
1911.77
)


20
(
6954.02
6938.57
6892.22
6814.97
6706.81
6567.76
6397.8
6196.94
5965.18
5702.51
5408.95
5084.48
4729.12
4342.85
3925.68
3477.6
2002.98
1967.85
1933.87
1900.96
)


20
(
7889.33
7870.95
7815.81
7723.9
7595.24
7429.82
7227.63
6988.69
6712.98
6400.52
6051.29
5665.3
5242.55
4783.04
4286.77
3753.74
1999.51
1957.73
1917.3
1878.15
)


20
(
8718.41
8697.39
8634.33
8529.23
8382.09
8192.9
7961.68
7688.42
7373.12
7015.78
6616.4
6174.97
5691.51
5166.01
4598.47
3988.88
1982.72
1934.93
1888.7
1843.92
)


20
(
9428.36
9405.04
9335.05
9218.41
9055.11
8845.16
8588.54
8285.28
7935.35
7538.77
7095.53
6605.64
6069.08
5485.88
4856.01
4179.49
1953.03
1899.99
1848.68
1798.99
)


20
(
10008.1
9982.87
9907.06
9780.72
9603.84
9376.42
9098.46
8769.97
8390.94
7961.37
7481.27
6950.63
6369.45
5737.73
5055.48
4322.68
1911.04
1853.59
1798.01
1744.19
)


20
(
10448.7
10421.9
10341.4
10207.4
10019.7
9778.4
9483.49
9134.95
8732.79
8277.02
7767.62
7204.6
6587.96
5917.69
5193.81
4416.3
1857.51
1796.55
1737.59
1680.48
)


20
(
10743.1
10715.1
10631.4
10491.7
10296.2
10044.8
9737.61
9374.53
8955.59
8480.79
7950.13
7363.61
6721.23
6022.99
5268.89
4458.94
1793.34
1729.84
1668.42
1608.93
)


20
(
10886.8
10858.2
10772.3
10629.3
10429
10171.6
9856.88
9484.97
9055.85
8569.52
8025.96
7425.19
6767.21
6052.01
5279.59
4449.96
1719.6
1654.56
1591.64
1530.7
)


20
(
10877.5
10848.7
10762.2
10618
10416.1
10156.6
9839.44
9464.58
9032.05
8541.85
7993.97
7388.43
6725.21
6004.33
5225.77
4389.54
1637.49
1571.93
1508.51
1447.09
)


20
(
10715.5
10686.9
10601.1
10458
10257.8
10000.3
9685.62
9313.72
8884.6
8398.26
7854.71
7253.94
6595.95
5880.75
5108.33
4278.7
1548.34
1483.3
1420.38
1359.45
)


20
(
10403.4
10375.4
10291.7
10152
9956.51
9705.14
9397.92
9034.83
8615.89
8141.09
7610.43
7023.91
6381.53
5683.29
4929.19
4119.24
1453.64
1390.14
1328.71
1269.22
)


20
(
9946.08
9919.27
9838.84
9704.79
9517.11
9275.82
8980.9
8632.37
8230.21
7774.43
7265.03
6702.01
6085.37
5415.1
4691.22
3913.71
1354.91
1293.96
1234.99
1177.89
)


20
(
9350.77
9325.5
9249.69
9123.35
8946.47
8719.05
8441.09
8112.6
7733.57
7304
6823.9
6293.25
5712.07
5080.36
4398.1
3665.31
1253.66
1196.21
1140.63
1086.81
)


20
(
8626.43
8603.11
8533.12
8416.48
8253.18
8043.22
7786.61
7483.34
7133.42
6736.83
6293.6
5803.7
5267.15
4683.94
4054.07
3377.54
1151.08
1098.04
1046.73
997.044
)


20
(
7783.42
7762.4
7699.34
7594.24
7447.09
7257.91
7026.69
6753.43
6438.13
6080.79
5681.41
5239.99
4756.52
4231.02
3663.48
3053.9
1047.74
999.949
953.717
908.944
)


20
(
6832.81
6814.43
6759.29
6667.39
6538.72
6373.3
6171.12
5932.17
5656.46
5344
4994.77
4608.78
4186.03
3726.51
3230.24
2697.21
942.975
901.188
860.761
821.611
)


20
(
5785.09
5769.64
5723.29
5646.03
5537.88
5398.82
5228.86
5028
4796.23
4533.57
4240
3915.54
3560.17
3173.89
2756.72
2308.65
834.015
798.888
764.905
731.995
)


20
(
4648.91
4636.63
4599.8
4538.41
4452.46
4341.96
4206.91
4047.3
3863.13
3654.41
3421.14
3163.3
2880.92
2573.98
2242.48
1886.42
714.639
686.726
659.722
633.57
)


20
(
3429.38
3420.47
3393.74
3349.18
3286.81
3206.61
3108.6
2992.76
2859.1
2707.62
2538.31
2351.19
2146.25
1923.48
1682.89
1424.48
574.046
553.788
534.189
515.209
)


20
(
2131.37
2125.97
2109.76
2082.74
2044.92
1996.29
1936.86
1866.62
1785.57
1693.72
1591.06
1477.6
1353.32
1218.25