/*--------------------------------*- C++ -*----------------------------------*\
| =========                 |                                                 |
| \\      /  F ield         | OpenFOAM: The Open Source CFD Toolbox           |
|  \\    /   O peration     | Version:  2212                                  |
|   \\  /    A nd           | Website:  www.openfoam.com                      |
|    \\/     M anipulation  |                                                 |
\*---------------------------------------------------------------------------*/
FoamFile
{
    version     2.0;
    format      ascii;
    arch        "LSB;label=32;scalar=64";
    class       volScalarField;
    location    "89/fluidRegion";
    object      Tfi.nuclearFuelPin;
}
// * * * * * * * * * * * * * * * * * * * * * * * * * * * * * * * * * * * * * //

dimensions      [0 0 0 1 0 0 0];

internalField   nonuniform List<scalar> 
350
(
0
0
0
0
0
0
0
0
0
0
0
0
0
0
0
0
0
0
0
0
0
0
0
0
0
0
0
0
0
0
0
0
0
0
0
0
0
0
0
0
0
0
0
0
0
0
0
0
0
0
2425.6
3614
4762.18
5852.41
6867.83
7792.68
8612.59
9314.79
9888.36
10324.3
10615.9
10758.5
10750
10590.5
10282.6
9831.18
9243.34
8527.9
7695.02
6755.63
5720.04
4596.82
3391.13
2107.94
766.63
2460.7
3662.89
4824.32
5927.06
6954.05
7889.35
8718.43
9428.38
10008.2
10448.7
10743.1
10886.8
10877.5
10715.5
10403.4
9946.09
9350.78
8626.44
7783.42
6832.82
5785.1
4648.91
3429.38
2131.37
774.494
2419.92
3606.15
4752.23
5840.49
6854.09
7777.29
8595.75
9296.74
9869.33
10304.6
10595.7
10738.2
10729.7
10570.6
10263.4
9812.97
9226.32
8512.29
7681.02
6743.41
5709.75
4588.6
3385.11
2104.26
765.387
2452.77
3651.77
4810.14
5909.98
6934.29
7867.17
8694.13
9402.29
9980.62
10420.1
10713.8
10857.3
10848.2
10686.7
10375.6
9919.63
9326.03
8603.75
7763.06
6815.04
5770.11
4636.91
3420.57
2125.97
772.683
2452.77
3651.77
4810.14
5909.98
6934.29
7867.17
8694.13
9402.29
9980.62
10420.1
10713.8
10857.3
10848.2
10686.7
10375.6
9919.63
9326.03
8603.75
7763.06
6815.04
5770.11
4636.91
3420.57
2125.97
772.683
2419.92
3606.15
4752.24
5840.5
6854.09
7777.29
8595.75
9296.74
9869.33
10304.6
10595.7
10738.2
10729.7
10570.6
10263.4
9812.97
9226.32
8512.29
7681.02
6743.41
5709.75
4588.6
3385.11
2104.26
765.387
2460.7
3662.89
4824.32
5927.06
6954.05
7889.35
8718.43
9428.38
10008.2
10448.7
10743.1
10886.8
10877.5
10715.5
10403.4
9946.09
9350.78
8626.44
7783.42
6832.82
5785.09
4648.91
3429.39
2131.37
774.494
2425.6
3614
4762.18
5852.42
6867.83
7792.68
8612.59
9314.79
9888.36
10324.3
10615.9
10758.5
10750
10590.5
10282.6
9831.18
9243.34
8527.9
7695.02
6755.63
5720.04
4596.82
3391.13
2107.94
766.63
2452.77
3651.78
4810.14
5909.98
6934.29
7867.17
8694.13
9402.29
9980.62
10420.1
10713.8
10857.3
10848.2
10686.7
10375.6
9919.63
9326.03
8603.75
7763.06
6815.04
5770.11
4636.91
3420.57
2125.97
772.683
2419.92
3606.15
4752.23
5840.5
6854.09
7777.29
8595.75
9296.74
9869.33
10304.6
10595.7
10738.2
10729.7
10570.6
10263.4
9812.97
9226.32
8512.29
7681.02
6743.41
5709.75
4588.6
3385.11
2104.26
765.387
2419.92
3606.15
4752.24
5840.5
6854.09
7777.29
8595.75
9296.74
9869.33
10304.6
10595.7
10738.2
10729.7
10570.6
10263.4
9812.97
9226.32
8512.29
7681.02
6743.41
5709.75
4588.6
3385.11
2104.26
765.387
2452.77
3651.77
4810.14
5909.98
6934.29
7867.17
8694.13
9402.29
9980.62
10420.1
10713.8
10857.3
10848.2
10686.7
10375.6
9919.63
9326.03
8603.75
7763.06
6815.04
5770.11
4636.91
3420.57
2125.97
772.683
)
;

boundaryField
{
    outletCentralUnloaded
    {
        type            zeroGradient;
    }
    inletCentralUnloaded
    {
        type            zeroGradient;
    }
    outletFuelElement
    {
        type            zeroGradient;
    }
    inletFuelElement
    {
        type            zeroGradient;
    }
    defaultFaces
    {
        type            zeroGradient;
    }
    baffle_master
    {
        type            zeroGradient;
    }
    baffle_slave
    {
        type            zeroGradient;
    }
}


// ************************************************************************* //
