/*--------------------------------*- C++ -*----------------------------------*\
| =========                 |                                                 |
| \\      /  F ield         | OpenFOAM: The Open Source CFD Toolbox           |
|  \\    /   O peration     | Version:  2212                                  |
|   \\  /    A nd           | Website:  www.openfoam.com                      |
|    \\/     M anipulation  |                                                 |
\*---------------------------------------------------------------------------*/
FoamFile
{
    version     2.0;
    format      ascii;
    arch        "LSB;label=32;scalar=64";
    class       scalarFieldField;
    location    "89/fluidRegion";
    object      Trad.nuclearFuelPin;
}
// * * * * * * * * * * * * * * * * * * * * * * * * * * * * * * * * * * * * * //


350
(
0()
0()
0()
0()
0()
0()
0()
0()
0()
0()
0()
0()
0()
0()
0()
0()
0()
0()
0()
0()
0()
0()
0()
0()
0()
0()
0()
0()
0()
0()
0()
0()
0()
0()
0()
0()
0()
0()
0()
0()
0()
0()
0()
0()
0()
0()
0()
0()
0()
0()

20
(
2425.6
2423.81
2418.44
2409.49
2396.96
2380.85
2361.16
2337.89
2311.04
2280.61
2246.6
2209.01
2167.84
2123.08
2074.75
2022.84
1852
1847.93
1843.99
1840.18
)


20
(
3614
3608.66
3592.64
3565.93
3528.53
3480.45
3421.69
3352.25
3272.12
3181.3
3079.8
2967.62
2844.76
2711.2
2566.97
2412.05
1902.21
1890.06
1878.31
1866.94
)


20
(
4762.18
4753.37
4726.94
4682.89
4621.22
4541.94
4445.03
4330.5
4198.36
4048.59
3881.21
3696.2
3493.58
3273.34
3035.47
2779.99
1939.19
1919.16
1899.78
1881.02
)


20
(
5852.41
5840.28
5803.86
5743.17
5658.2
5548.95
5415.43
5257.63
5075.55
4869.2
4638.56
4383.66
4104.47
3801.01
3473.27
3121.25
1962.75
1935.15
1908.45
1882.6
)


20
(
6867.83
6852.55
6806.73
6730.35
6623.42
6485.93
6317.9
6119.31
5890.18
5630.49
5340.25
5019.45
4668.11
4286.21
3873.76
3430.76
1972.83
1938.1
1904.51
1871.97
)


20
(
7792.68
7774.51
7719.99
7629.13
7501.92
7338.37
7138.48
6902.24
6629.65
6320.72
5975.45
5593.83
5175.87
4721.56
4230.91
3703.91
1969.55
1928.23
1888.27
1849.56
)


20
(
8612.59
8591.8
8529.46
8425.55
8280.07
8093.03
7864.43
7594.26
7282.53
6929.23
6534.37
6097.95
5619.96
5100.41
4539.29
3936.61
1953.16
1905.91
1860.2
1815.94
)


20
(
9314.79
9291.73
9222.54
9107.22
8945.77
8738.19
8484.48
8184.65
7838.68
7446.59
7008.37
6524.03
5993.55
5416.94
4794.21
4125.35
1924.1
1871.66
1820.93
1771.81
)


20
(
9888.36
9863.38
9788.43
9663.52
9488.64
9263.8
8988.99
8664.21
8289.48
7864.77
7390.1
6865.47
6290.87
5666.31
4991.78
4267.28
1882.95
1826.15
1771.2
1717.99
)


20
(
10324.3
10297.8
10218.3
10085.8
9900.22
9661.66
9370.08
9025.49
8627.89
8177.27
7673.64
7116.99
6507.33
5844.66
5128.97
4360.27
1830.45
1770.19
1711.89
1655.43
)


20
(
10615.9
10588.3
10505.4
10367.4
10174.1
9925.56
9621.82
9262.85
8848.65
8379.22
7854.57
7274.69
6639.59
5949.26
5203.7
4402.91
1767.5
1704.73
1643.99
1585.18
)


20
(
10758.5
10730.2
10645.4
10504
10306
10051.4
9740.28
9372.59
8948.33
8467.5
7930.1
7336.13
6685.6
5978.5
5214.82
4394.59
1695.15
1630.84
1568.64
1508.39
)


20
(
10750
10721.5
10635.9
10493.4
10293.8
10037.2
9723.65
9353.03
8925.4
8440.74
7899.08
7300.39
6644.68
5931.96
5162.22
4335.46
1614.57
1549.75
1487.05
1426.33
)


20
(
10590.5
10562.2
10477.3
10335.9
10137.9
9883.35
9572.23
9204.54
8780.27
8299.44
7762.05
7168.08
6517.55
5810.44
5046.77
4226.53
1527.09
1462.79
1400.58
1340.34
)


20
(
10282.6
10254.9
10172.1
10034
9840.75
9592.23
9288.48
8929.51
8515.31
8045.89
7521.24
6941.36
6306.25
5615.92
4870.36
4069.58
1434.17
1371.39
1310.66
1251.84
)


20
(
9831.18
9804.67
9725.15
9592.62
9407.07
9168.51
8876.93
8532.34
8134.74
7684.12
7180.49
6623.84
6014.18
5351.51
4635.82
3867.12
1337.3
1277.03
1218.73
1162.27
)


20
(
9243.34
9218.36
9143.41
9018.5
8843.62
8618.78
8343.97
8019.19
7644.46
7219.75
6745.08
6220.45
5645.85
5021.29
4346.76
3622.26
1237.92
1181.12
1126.18
1072.96
)


20
(
8527.9
8504.83
8435.64
8320.32
8158.87
7951.29
7697.59
7397.75
7051.79
6659.7
6221.48
5737.13
5206.65
4630.04
4007.31
3338.45
1137.2
1084.76
1034.03
984.905
)


20
(
7695.02
7674.24
7611.89
7507.98
7362.51
7175.47
6946.87
6676.7
6364.97
6011.67
5616.81
5180.39
4702.4
4182.85
3621.74
3019.06
1035.62
988.37
942.661
898.395
)


20
(
6755.63
6737.45
6682.94
6592.08
6464.87
6301.32
6101.42
5865.18
5592.6
5283.67
4938.4
4556.78
4138.81
3684.51
3193.85
2666.86
932.488
891.173
851.205
812.497
)


20
(
5720.04
5704.76
5658.93
5582.55
5475.62
5338.14
5170.11
4971.52
4742.38
4482.69
4192.45
3871.66
3520.31
3138.41
2725.96
2282.96
825.031
790.301
756.703
724.165
)


20
(
4596.82
4584.68
4548.27
4487.57
4402.6
4293.36
4159.83
4002.03
3819.95
3613.59
3382.96
3128.04
2848.85
2545.39
2217.64
1865.62
707.108
679.51
652.812
626.957
)


20
(
3391.13
3382.32
3355.89
3311.85
3250.18
3170.89
3073.98
2959.46
2827.31
2677.54
2510.16
2325.15
2122.53
1902.28
1664.42
1408.94
568.133
548.104
528.728
509.963
)


20
(
2107.94
2102.6
2086.57
2059.86
2022.47
1974.39
1915.63
1846.18
1766.05
1675.24
1573.75
1461.57
1338.7
1205.15
1060.92
906.005
396.171
384.026
372.277
360.898
)


20
(
766.63
764.84
759.47
750.519
737.989
721.878
702.187
678.915
652.064
621.632
587.62
550.028
508.856
464.103
415.77
363.857
193.01
188.94
185.003
181.19
)


20
(
2460.7
2458.89
2453.46
2444.4
2431.73
2415.44
2395.52
2371.98
2344.82
2314.05
2279.64
2241.62
2199.98
2154.72
2105.83
2053.33
1880.53
1876.41
1872.43
1868.57
)


20
(
3662.89
3657.49
3641.28
3614.26
3576.44
3527.81
3468.38
3398.14
3317.09
3225.23
3122.57
3009.11
2884.83
2749.75
2603.87
2447.17
1931.49
1919.2
1907.32
1895.81
)


20
(
4824.32
4815.41
4788.68
4744.12
4681.75
4601.55
4503.54
4387.7
4254.04
4102.56
3933.26
3746.13
3541.19
3318.42
3077.83
2819.42
1968.99
1948.73
1929.13
1910.15
)


20
(
5927.06
5914.78
5877.95
5816.56
5730.62
5620.12
5485.07
5325.46
5141.3
4932.58
4699.31
4441.48
4159.09
3852.16
3520.66
3164.61
1992.84
1964.93
1937.92
1911.77
)


20
(
6954.05
6938.6
6892.25
6814.99
6706.84
6567.78
6397.82
6196.96
5965.2
5702.53
5408.97
5084.5
4729.13
4342.86
3925.68
3477.61
2002.98
1967.85
1933.87
1900.96
)


20
(
7889.35
7870.97
7815.83
7723.93
7595.26
7429.84
7227.65
6988.71
6713
6400.53
6051.3
5665.32
5242.56
4783.05
4286.78
3753.75
1999.51
1957.73
1917.3
1878.15
)


20
(
8718.43
8697.41
8634.35
8529.25
8382.11
8192.92
7961.7
7688.44
7373.14
7015.79
6616.41
6174.99
5691.52
5166.02
4598.47
3988.89
1982.72
1934.93
1888.7
1843.92
)


20
(
9428.38
9405.06
9335.07
9218.43
9055.13
8845.17
8588.56
8285.29
7935.37
7538.78
7095.54
6605.65
6069.09
5485.88
4856.02
4179.49
1953.03
1899.99
1848.68
1798.99
)


20
(
10008.2
9982.88
9907.08
9780.73
9603.85
9376.44
9098.48
8769.99
8390.95
7961.39
7481.28
6950.64
6369.46
5737.74
5055.48
4322.69
1911.04
1853.59
1798.01
1744.19
)


20
(
10448.7
10421.9
10341.4
10207.4
10019.7
9778.42
9483.5
9134.97
8732.81
8277.03
7767.63
7204.61
6587.96
5917.7
5193.82
4416.31
1857.51
1796.55
1737.59
1680.48
)


20
(
10743.1
10715.2
10631.4
10491.7
10296.2
10044.9
9737.63
9374.54
8955.6
8480.8
7950.14
7363.62
6721.24
6023
5268.9
4458.94
1793.34
1729.85
1668.42
1608.93
)


20
(
10886.8
10858.2
10772.4
10629.3
10429.1
10171.6
9856.89
9484.99
9055.87
8569.53
8025.97
7425.2
6767.22
6052.02
5279.6
4449.96
1719.6
1654.56
1591.64
1530.71
)


20
(
10877.5
10848.7
10762.2
10618
10416.2
10156.6
9839.45
9464.59
9032.06
8541.86
7993.98
7388.44
6725.22
6004.34
5225.78
4389.55
1637.49
1571.93
1508.51
1447.09
)


20
(
10715.5
10686.9
10601.1
10458.1
10257.8
10000.3
9685.64
9313.73
8884.61
8398.27
7854.72
7253.95
6595.96
5880.76
5108.34
4278.7
1548.34
1483.3
1420.38
1359.45
)


20
(
10403.4
10375.5
10291.7
10152
9956.52
9705.15
9397.93
9034.84
8615.9
8141.1
7610.44
7023.91
6381.53
5683.3
4929.2
4119.24
1453.64
1390.14
1328.71
1269.22
)


20
(
9946.09
9919.28
9838.85
9704.8
9517.13
9275.83
8980.91
8632.38
8230.22
7774.44
7265.04
6702.02
6085.37
5415.11
4691.22
3913.72
1354.91
1293.96
1234.99
1177.89
)


20
(
9350.78
9325.51
9249.7
9123.36
8946.48
8719.06
8441.1
8112.61
7733.58
7304.01
6823.9
6293.26
5712.08
5080.36
4398.1
3665.31
1253.66
1196.21
1140.63
1086.81
)


20
(
8626.44
8603.12
8533.13
8416.49
8253.19
8043.23
7786.62
7483.35
7133.43
6736.84
6293.6
5803.7
5267.15
4683.94
4054.07
3377.55
1151.08
1098.04
1046.73
997.044
)


20
(
7783.42
7762.4
7699.34
7594.24
7447.1
7257.92
7026.7
6753.44
6438.14
6080.8
5681.41
5239.99
4756.53
4231.03
3663.48
3053.9
1047.74
999.95
953.718
908.945
)


20
(
6832.82
6814.44
6759.3
6667.39
6538.73
6373.31
6171.12
5932.18
5656.47
5344
4994.77
4608.78
4186.03
3726.52
3230.25
2697.21
942.976
901.188
860.762
821.611
)


20
(
5785.1
5769.64
5723.29
5646.04
5537.88
5398.82
5228.86
5028
4796.24
4533.57
4240.01
3915.54
3560.17
3173.9
2756.72
2308.65
834.016
798.889
764.906
731.995
)


20
(
4648.91
4636.63
4599.8
4538.41
4452.47
4341.97
4206.91
4047.3
3863.14
3654.42
3421.14
3163.31
2880.92
2573.98
2242.48
1886.43
714.639
686.726
659.722
633.571
)


20
(
3429.38
3420.47
3393.74
3349.19
3286.81
3206.62
3108.6
2992.76
2859.1
2707.62
2538.32
2351.19
2146.25
1923.48
1682.89
1424.48
574.046
553.788
534.19
515.21
)


20
(
2131.37
2125.97
2109.76
2082.75
2044.92
1996.3
1936.86
1866.62
1785.57
1693.72
1591.06
1477.6
1353.33
1218.25
1072.36
915.673
399.999
387.715
375.831
364.322
)


20
(
774.494
772.684
767.252
758.199
745.525
729.229
709.313
685.775
658.615
627.835
593.434
555.411
513.767
468.502
419.615
367.108
194.303
190.187
186.205
182.348
)


20
(
2419.92
2418.14
2412.78
2403.84
2391.33
2375.25
2355.6
2332.37
2305.57
2275.19
2241.25
2203.72
2162.63
2117.96
2069.71
2017.9
1847.37
1843.3
1839.37
1835.57
)


20
(
3606.15
3600.82
3584.82
3558.16
3520.83
3472.84
3414.19
3344.87
3264.88
3174.24
3072.92
2960.94
2838.3
2705
2561.02
2406.39
1897.47
1885.35
1873.62
1862.27
)


20
(
4752.23
4743.44
4717.06
4673.09
4611.54
4532.39
4435.66
4321.34
4189.44
4039.95
3872.87
3688.2
3485.95
3266.11
3028.68
2773.66
1934.39
1914.4
1895.06
1876.33
)


20
(
5840.49
5828.38
5792.03
5731.45
5646.63
5537.59
5404.31
5246.79
5065.05
4859.07
4628.86
4374.42
4095.74
3792.83
3465.69
3114.31
1957.92
1930.38
1903.73
1877.92
)


20
(
6854.09
6838.84
6793.1
6716.86
6610.12
6472.89
6305.16
6106.94
5878.22
5619
5329.29
5009.08
4658.38
4277.18
3865.48
3423.29
1968.02
1933.35
1899.82
1867.34
)


20
(
7777.29
7759.15
7704.73
7614.04
7487.06
7323.81
7124.28
6888.47
6616.38
6308.02
5963.37
5582.45
5165.25
4711.77
4222.02
3695.98
1964.78
1923.54
1883.65
1845.01
)


20
(
8595.75
8575.01
8512.78
8409.05
8263.84
8077.15
7848.96
7579.29
7268.12
6915.47
6521.33
6085.7
5608.59
5089.98
4529.89
3928.3
1948.47
1901.31
1855.69
1811.5
)


20
(
9296.74
9273.72
9204.65
9089.54
8928.39
8721.19
8467.94
8168.66
7823.33
7431.95
6994.53
6511.06
5981.55
5406
4784.4
4116.76
1919.53
1867.18
1816.55
1767.51
)


20
(
9869.33
9844.4
9769.58
9644.9
9470.34
9245.91
8971.6
8647.42
8273.37
7849.44
7375.63
6851.96
6278.41
5654.98
4981.68
4258.51
1878.52
1821.83
1766.98
1713.87
)


20
(
10304.6
10278.1
10198.8
10066.5
9881.25
9643.12
9352.08
9008.12
8611.24
8161.45
7658.73
7103.1
6494.56
5833.09
5118.71
4351.41
1826.2
1766.05
1707.86
1651.5
)


20
(
10595.7
10568.1
10485.5
10347.6
10154.7
9906.64
9603.45
9245.13
8831.69
8363.12
7839.42
7260.6
6626.66
5937.59
5193.39
4394.06
1763.46
1700.8
1640.17
1581.47
)


20
(
10738.2
10709.9
10625.2
10484.1
10286.4
10032.4
9721.79
9354.77
8931.28
8451.33
7914.91
7322.03
6672.68
5966.87
5204.59
4385.85
1691.33
1627.15
1565.05
1504.92
)


20
(
10729.7
10701.3
10615.9
10473.6
10274.4
10018.3
9705.29
9335.35
8908.5
8424.73
7884.05
7286.45
6631.95
5920.52
5152.19
4326.94
1611.01
1546.31
1483.72
1423.11
)


20
(
10570.6
10542.4
10457.7
10316.5
10118.9
9864.82
9554.26
9187.24
8763.75
8283.8
7747.38
7154.5
6505.15
5799.34
5037.06
4218.32
1523.8
1459.61
1397.52
1337.38
)


20
(
10263.4
10235.8
10153.2
10015.3
9822.41
9574.34
9271.15
8912.83
8499.39
8030.82
7507.12
6928.3
6294.36
5605.29
4861.09
4061.76
1431.16
1368.5
1307.87
1249.16
)


20
(
9812.97
9786.51
9707.14
9574.84
9389.63
9151.51
8860.46
8516.5
8119.62
7669.83
7167.11
6611.48
6002.94
5341.47
4627.09
3859.79
1334.58
1274.43
1216.24
1159.88
)


20
(
9226.32
9201.38
9126.57
9001.89
8827.33
8602.89
8328.59
8004.41
7630.35
7206.42
6732.62
6208.94
5635.39
5011.97
4338.67
3615.49
1235.5
1178.81
1123.96
1070.85
)


20
(
8512.29
8489.27
8420.2
8305.09
8143.94
7936.74
7683.49
7384.2
7038.87
6647.5
6210.07
5726.61
5197.1
4621.55
3999.95
3332.3
1135.07
1082.73
1032.09
983.055
)


20
(
7681.02
7660.28
7598.04
7494.32
7349.11
7162.42
6934.23
6664.56
6353.39
6000.74
5606.61
5170.98
4693.86
4175.26
3615.17
3013.59
1033.77
986.603
940.978
896.793
)


20
(
6743.41
6725.27
6670.85
6580.15
6453.18
6289.93
6090.4
5854.59
5582.5
5274.13
4929.49
4548.57
4131.37
3677.89
3188.13
2662.09
930.891
889.651
849.756
811.119
)


20
(
5709.75
5694.5
5648.76
5572.52
5465.78
5328.55
5160.82
4962.6
4733.88
4474.66
4184.95
3864.74
3514.03
3132.83
2721.14
2278.94
823.671
789.004
755.468
722.989
)


20
(
4588.6
4576.48
4540.13
4479.55
4394.73
4285.68
4152.4
3994.89
3813.14
3607.16
3376.95
3122.5
2843.82
2540.91
2213.76
1862.38
705.979
678.432
651.783
625.975
)


20
(
3385.11
3376.32
3349.94
3305.97
3244.41
3165.27
3068.54
2954.22
2822.31
2672.82
2505.74
2321.07
2118.82
1898.98
1661.55
1406.53
567.259
547.267
527.926
509.195
)


20
(
2104.26
2098.92
2082.93
2056.27
2018.94
1970.95
1912.3
1842.98
1763
1672.35
1571.04
1459.06
1336.42
1203.12
1059.15
904.514
395.61
383.487
371.76
360.402
)


20
(
765.387
763.6
758.239
749.305
736.797
720.716
701.061
677.832
651.029
620.653
586.703
549.179
508.082
463.411
415.167
363.348
192.813
188.75
184.82
181.014
)


20
(
2452.77
2450.97
2445.55
2436.52
2423.88
2407.63
2387.76
2364.29
2337.2
2306.5
2272.19
2234.27
2192.73
2147.59
2098.83
2046.46
1874.11
1870
1866.03
1862.19
)


20
(
3651.77
3646.39
3630.22
3603.27
3565.55
3517.05
3457.77
3387.71
3306.87
3215.26
3112.86
2999.69
2875.74
2741.01
2595.51
2439.22
1924.88
1912.63
1900.78
1889.3
)


20
(
4810.14
4801.25
4774.59
4730.15
4667.94
4587.95
4490.19
4374.65
4241.34
4090.26
3921.4
3734.76
3530.35
3308.16
3068.2
2810.47
1962.25
1942.05
1922.5
1903.57
)


20
(
5909.98
5897.74
5861
5799.77
5714.06
5603.85
5469.14
5309.95
5126.27
4918.1
4685.43
4428.27
4146.63
3840.49
3509.86
3154.74
1986.02
1958.18
1931.25
1905.16
)


20
(
6934.29
6918.88
6872.65
6795.6
6687.72
6549.03
6379.51
6179.18
5948.02
5686.04
5393.24
5069.62
4715.17
4329.91
3913.82
3466.92
1996.13
1961.1
1927.2
1894.38
)


20
(
7867.17
7848.84
7793.84
7702.18
7573.85
7408.86
7207.2
6968.88
6693.89
6382.24
6033.92
5648.94
5227.29
4768.98
4274
3742.35
1992.69
1951.01
1910.69
1871.65
)


20
(
8694.13
8673.16
8610.27
8505.44
8358.68
8169.99
7939.37
7666.82
7352.34
6995.93
6597.59
6157.32
5675.11
5150.98
4584.91
3976.92
1975.98
1928.31
1882.2
1837.55
)


20
(
9402.29
9379.02
9309.22
9192.88
9030.01
8820.6
8564.65
8262.18
7913.16
7517.61
7075.53
6586.91
6051.76
5470.07
4841.84
4167.08
1946.42
1893.52
1842.34
1792.78
)


20
(
9980.62
9955.41
9879.81
9753.79
9577.37
9350.55
9073.31
8745.68
8367.63
7939.19
7460.33
6931.07
6351.41
5721.33
5040.86
4309.97
1904.61
1847.31
1791.88
1738.2
)


20
(
10420.1
10393.3
10313.1
10179.4
9992.24
9751.57
9457.42
9109.79
8708.68
8254.09
7746.02
7184.47
6569.43
5900.92
5178.92
4403.44
1851.31
1790.51
1731.7
1674.74
)


20
(
10713.8
10686
10602.4
10463.1
10268.1
10017.4
9710.99
9348.85
8931
8457.44
7928.16
7343.17
6702.46
6006.04
5253.91
4446.06
1787.41
1724.08
1662.81
1603.48
)


20
(
10857.3
10828.7
10743.1
10600.5
10400.7
10143.9
9830.06
9459.12
9031.12
8546.05
8003.91
7404.71
6748.44
6035.1
5264.7
4437.23
1713.98
1649.11
1586.36
1525.58
)


20
(
10848.2
10819.4
10733.1
10589.3
10388
10129.2
9812.8
9438.91
9007.51
8518.58
7972.14
7368.17
6706.69
5987.68
5211.15
4377.1
1632.22
1566.83
1503.57
1442.31
)


20
(
10686.7
10658.2
10572.6
10429.9
10230.2
9973.4
9659.53
9288.59
8860.59
8375.52
7833.38
7234.18
6577.91
5864.57
5094.16
4266.69
1543.45
1478.58
1415.82
1355.05
)


20
(
10375.6
10347.7
10264.1
10124.9
9929.86
9679.15
9372.73
9010.59
8592.74
8119.17
7589.9
7004.9
6364.2
5667.78
4915.65
4107.8
1449.15
1385.82
1324.55
1265.21
)


20
(
9919.63
9892.89
9812.67
9678.97
9491.78
9251.11
8956.97
8609.34
8208.23
7753.64
7245.56
6684.01
6068.98
5400.46
4678.46
3902.98
1350.85
1290.05
1231.24
1174.28
)


20
(
9326.03
9300.83
9225.22
9099.21
8922.79
8695.96
8418.73
8091.09
7713.05
7284.6
6805.75
6276.49
5696.82
5066.75
4386.27
3655.39
1250.02
1192.73
1137.29
1083.61
)


20
(
8603.75
8580.48
8510.68
8394.34
8231.47
8022.06
7766.11
7463.63
7114.62
6719.07
6276.99
5788.37
5253.21
4671.52
4043.3
3368.54
1147.87
1094.97
1043.8
994.238
)


20
(
7763.06
7742.1
7679.2
7574.37
7427.62
7238.93
7008.31
6735.76
6421.28
6064.87
5666.53
5226.26
4744.06
4219.93
3653.86
3045.87
1044.94
997.272
951.161
906.505
)


20
(
6815.04
6796.71
6741.71
6650.05
6521.72
6356.72
6155.07
5916.74
5641.75
5330.1
4981.78
4596.8
4175.15
3716.84
3221.86
2690.21
940.551
898.872
858.551
819.503
)


20
(
5770.11
5754.7
5708.47
5631.41
5523.54
5384.84
5215.33
5014.99
4783.83
4521.85
4229.05
3905.43
3550.98
3165.72
2749.63
2302.73
831.938
796.902
763.008
730.183
)


20
(
4636.91
4624.66
4587.93
4526.7
4440.98
4330.77
4196.06
4036.87
3853.19
3645.01
3412.34
3155.18
2873.53
2567.39
2236.75
1881.63
712.896
685.056
658.122
632.039
)


20
(
3420.57
3411.68
3385.02
3340.58
3278.37
3198.38
3100.62
2985.09
2851.77
2700.69
2531.83
2345.19
2140.78
1918.59
1678.63
1420.9
572.676
552.471
532.924
513.993
)


20
(
2125.97
2120.58
2104.42
2077.47
2039.75
1991.25
1931.97
1861.91
1781.07
1689.46
1587.07
1473.9
1349.95
1215.23
1069.72
913.44
399.111
386.859
375.006
363.527
)


20
(
772.683
770.877
765.459
756.43
743.789
727.536
707.671
684.194
657.106
626.406
592.094
554.17
512.635
467.488
418.729
366.358
194.004
189.899
185.927
182.08
)


20
(
2452.77
2450.97
2445.55
2436.52
2423.88
2407.63
2387.76
2364.29
2337.2
2306.5
2272.19
2234.27
2192.73
2147.59
2098.83
2046.46
1874.11
1870
1866.03
1862.19
)


20
(
3651.77
3646.39
3630.22
3603.27
3565.55
3517.05
3457.77
3387.71
3306.87
3215.26
3112.86
2999.69
2875.74
2741.01
2595.51
2439.22
1924.88
1912.63
1900.78
1889.3
)


20
(
4810.14
4801.25
4774.59
4730.15
4667.94
4587.95
4490.19
4374.65
4241.34
4090.26
3921.4
3734.76
3530.35
3308.16
3068.2
2810.47
1962.25
1942.05
1922.5
1903.57
)


20
(
5909.98
5897.74
5861
5799.77
5714.06
5603.85
5469.14
5309.95
5126.27
4918.1
4685.43
4428.27
4146.63
3840.49
3509.86
3154.74
1986.02
1958.18
1931.25
1905.16
)


20
(
6934.29
6918.88
6872.65
6795.6
6687.72
6549.03
6379.51
6179.18
5948.02
5686.04
5393.24
5069.62
4715.17
4329.91
3913.82
3466.92
1996.13
1961.1
1927.2
1894.38
)


20
(
7867.17
7848.84
7793.84
7702.18
7573.85
7408.86
7207.2
6968.88
6693.89
6382.24
6033.92
5648.94
5227.29
4768.97
4274
3742.35
1992.69
1951.01
1910.69
1871.65
)


20
(
8694.13
8673.16
8610.27
8505.44
8358.68
8169.99
7939.37
7666.82
7352.34
6995.93
6597.59
6157.32
5675.11
5150.98
4584.91
3976.92
1975.98
1928.31
1882.2
1837.55
)


20
(
9402.29
9379.02
9309.22
9192.88
9030.01
8820.6
8564.65
8262.18
7913.16
7517.61
7075.53
6586.91
6051.75
5470.06
4841.84
4167.08
1946.42
1893.52
1842.34
1792.78
)


20
(
9980.62
9955.41
9879.8
9753.79
9577.37
9350.55
9073.31
8745.68
8367.63
7939.19
7460.33
6931.07
6351.41
5721.33
5040.86
4309.97
1904.61
1847.31
1791.88
1738.2
)


20
(
10420.1
10393.3
10313.1
10179.4
9992.24
9751.57
9457.42
9109.79
8708.68
8254.09
7746.02
7184.47
6569.43
5900.92
5178.92
4403.44
1851.31
1790.51
1731.7
1674.74
)


20
(
10713.8
10686
10602.4
10463.1
10268.1
10017.4
9710.99
9348.85
8931
8457.43
7928.16
7343.17
6702.46
6006.04
5253.91
4446.06
1787.41
1724.08
1662.81
1603.48
)


20
(
10857.3
10828.7
10743.1
10600.5
10400.7
10143.9
9830.06
9459.12
9031.12
8546.05
8003.91
7404.71
6748.44
6035.1
5264.7
4437.22
1713.98
1649.11
1586.36
1525.58
)


20
(
10848.2
10819.4
10733.1
10589.3
10388
10129.2
9812.8
9438.91
9007.51
8518.58
7972.14
7368.17
6706.69
5987.68
5211.15
4377.1
1632.22
1566.83
1503.57
1442.31
)


20
(
10686.7
10658.2
10572.6
10429.9
10230.2
9973.4
9659.53
9288.59
8860.59
8375.52
7833.38
7234.18
6577.91
5864.57
5094.16
4266.69
1543.45
1478.58
1415.82
1355.05
)


20
(
10375.6
10347.7
10264.1
10124.9
9929.86
9679.15
9372.73
9010.59
8592.74
8119.17
7589.89
7004.9
6364.2
5667.78
4915.65
4107.8
1449.15
1385.82
1324.55
1265.21
)


20
(
9919.63
9892.89
9812.67
9678.97
9491.78
9251.11
8956.97
8609.34
8208.23
7753.64
7245.56
6684.01
6068.98
5400.46
4678.46
3902.98
1350.85
1290.05
1231.24
1174.28
)


20
(
9326.03
9300.83
9225.22
9099.21
8922.79
8695.96
8418.73
8091.09
7713.05
7284.6
6805.75
6276.49
5696.82
5066.75
4386.27
3655.39
1250.02
1192.73
1137.29
1083.61
)


20
(
8603.75
8580.48
8510.68
8394.34
8231.46
8022.06
7766.11
7463.63
7114.62
6719.07
6276.99
5788.37
5253.21
4671.52
4043.3
3368.53
1147.87
1094.97
1043.8
994.238
)


20
(
7763.06
7742.1
7679.2
7574.37
7427.62
7238.93
7008.31
6735.76
6421.28
6064.87
5666.53
5226.26
4744.06
4219.93
3653.86
3045.87
1044.94
997.272
951.161
906.505
)


20
(
6815.04
6796.71
6741.71
6650.04
6521.72
6356.72
6155.07
5916.74
5641.75
5330.1
4981.78
4596.8
4175.15
3716.84
3221.86
2690.21
940.551
898.872
858.551
819.502
)


20
(
5770.11
5754.7
5708.47
5631.41
5523.54
5384.84
5215.33
5014.99
4783.83
4521.85
4229.05
3905.43
3550.98
3165.72
2749.63
2302.73
831.938
796.902
763.008
730.183
)


20
(
4636.91
4624.67
4587.93
4526.7
4440.98
4330.77
4196.07
4036.87
3853.19
3645.01
3412.34
3155.18
2873.53
2567.39
2236.75
1881.63
712.896
685.056
658.122
632.039
)


20
(
3420.57
3411.68
3385.02
3340.58
3278.37
3198.38
3100.62
2985.09
2851.77
2700.69
2531.83
2345.19
2140.78
1918.59
1678.63
1420.9
572.676
552.471
532.924
513.993
)


20
(
2125.97
2120.58
2104.42
2077.47
2039.75
1991.25
1931.97
1861.91
1781.07
1689.46
1587.07
1473.9
1349.95
1215.23
1069.72
913.44
399.11
386.859
375.006
363.527
)


20
(
772.683
770.877
765.459
756.43
743.789
727.536
707.671
684.194
657.106
626.406
592.094
554.171
512.635
467.488
418.729
366.358
194.004
189.899
185.927
182.08
)


20
(
2419.92
2418.14
2412.78
2403.84
2391.34
2375.25
2355.6
2332.37
2305.57
2275.2
2241.25
2203.72
2162.63
2117.96
2069.72
2017.9
1847.37
1843.3
1839.37
1835.57
)


20
(
3606.15
3600.82
3584.82
3558.16
3520.83
3472.84
3414.19
3344.87
3264.89
3174.24
3072.92
2960.95
2838.3
2705
2561.03
2406.39
1897.48
1885.35
1873.63
1862.27
)


20
(
4752.24
4743.44
4717.06
4673.09
4611.54
4532.39
4435.66
4321.35
4189.44
4039.95
3872.87
3688.2
3485.95
3266.11
3028.68
2773.66
1934.39
1914.4
1895.06
1876.33
)


20
(
5840.5
5828.38
5792.03
5731.45
5646.64
5537.59
5404.31
5246.8
5065.05
4859.07
4628.86
4374.42
4095.74
3792.83
3465.69
3114.31
1957.93
1930.38
1903.73
1877.92
)


20
(
6854.09
6838.84
6793.1
6716.86
6610.12
6472.89
6305.16
6106.94
5878.22
5619
5329.29
5009.08
4658.38
4277.18
3865.48
3423.29
1968.02
1933.35
1899.82
1867.34
)


20
(
7777.29
7759.15
7704.73
7614.04
7487.06
7323.81
7124.28
6888.47
6616.39
6308.02
5963.38
5582.45
5165.25
4711.78
4222.02
3695.98
1964.78
1923.54
1883.65
1845.01
)


20
(
8595.75
8575.01
8512.78
8409.06
8263.85
8077.15
7848.96
7579.29
7268.12
6915.47
6521.33
6085.7
5608.59
5089.98
4529.89
3928.31
1948.47
1901.31
1855.69
1811.5
)


20
(
9296.74
9273.72
9204.65
9089.54
8928.39
8721.19
8467.95
8168.66
7823.33
7431.95
6994.53
6511.06
5981.56
5406
4784.4
4116.76
1919.53
1867.19
1816.55
1767.51
)


20
(
9869.33
9844.4
9769.59
9644.9
9470.34
9245.91
8971.6
8647.42
8273.37
7849.44
7375.64
6851.96
6278.41
5654.98
4981.69
4258.51
1878.52
1821.83
1766.98
1713.87
)


20
(
10304.6
10278.1
10198.8
10066.5
9881.25
9643.13
9352.08
9008.12
8611.24
8161.45
7658.73
7103.1
6494.56
5833.09
5118.71
4351.41
1826.2
1766.05
1707.86
1651.5
)


20
(
10595.7
10568.1
10485.5
10347.6
10154.7
9906.64
9603.45
9245.13
8831.69
8363.12
7839.43
7260.61
6626.66
5937.59
5193.39
4394.07
1763.46
1700.8
1640.18
1581.47
)


20
(
10738.2
10709.9
10625.2
10484.1
10286.4
10032.4
9721.79
9354.77
8931.28
8451.33
7914.91
7322.03
6672.68
5966.87
5204.59
4385.85
1691.33
1627.15
1565.05
1504.92
)


20
(
10729.7
10701.3
10615.9
10473.6
10274.4
10018.3
9705.29
9335.35
8908.5
8424.73
7884.05
7286.46
6631.95
5920.52
5152.19
4326.94
1611.01
1546.31
1483.72
1423.11
)


20
(
10570.6
10542.4
10457.7
10316.5
10118.9
9864.82
9554.26
9187.24
8763.75
8283.8
7747.38
7154.5
6505.15
5799.34
5037.06
4218.32
1523.8
1459.62
1397.52
1337.39
)


20
(
10263.4
10235.9
10153.2
10015.3
9822.41
9574.34
9271.15
8912.83
8499.39
8030.82
7507.13
6928.31
6294.36
5605.29
4861.09
4061.77
1431.16
1368.5
1307.87
1249.17
)


20
(
9812.97
9786.51
9707.14
9574.85
9389.64
9151.51
8860.46
8516.5
8119.62
7669.83
7167.12
6611.48
6002.94
5341.47
4627.09
3859.79
1334.58
1274.43
1216.24
1159.88
)


20
(
9226.32
9201.38
9126.57
9001.89
8827.33
8602.9
8328.59
8004.41
7630.35
7206.42
6732.62
6208.94
5635.39
5011.97
4338.67
3615.5
1235.51
1178.81
1123.96
1070.85
)


20
(
8512.29
8489.27
8420.2
8305.09
8143.94
7936.74
7683.49
7384.21
7038.87
6647.5
6210.08
5726.61
5197.1
4621.55
3999.95
3332.31
1135.07
1082.73
1032.09
983.055
)


20
(
7681.02
7660.28
7598.04
7494.32
7349.11
7162.42
6934.23
6664.56
6353.4
6000.75
5606.61
5170.98
4693.86
4175.26
3615.17
3013.59
1033.77
986.604
940.979
896.794
)


20
(
6743.41
6725.27
6670.85
6580.16
6453.18
6289.93
6090.4
5854.59
5582.5
5274.14
4929.49
4548.57
4131.37
3677.89
3188.13
2662.1
930.891
889.652
849.757
811.12
)


20
(
5709.75
5694.5
5648.76
5572.52
5465.78
5328.55
5160.82
4962.6
4733.88
4474.66
4184.95
3864.74
3514.03
3132.83
2721.14
2278.94
823.671
789.005
755.468
722.99
)


20
(
4588.6
4576.48
4540.13
4479.55
4394.74
4285.69
4152.4
3994.89
3813.14
3607.16
3376.95
3122.5
2843.82
2540.91
2213.76
1862.38
705.98
678.433
651.784
625.975
)


20
(
3385.11
3376.32
3349.94
3305.97
3244.41
3165.27
3068.54
2954.22
2822.32
2672.82
2505.74
2321.08
2118.82
1898.98
1661.55
1406.53
567.26
547.268
527.927
509.196
)


20
(
2104.26
2098.92
2082.93
2056.27
2018.94
1970.95
1912.3
1842.98
1763
1672.35
1571.04
1459.06
1336.42
1203.12
1059.15
904.514
395.61
383.488
371.76
360.403
)


20
(
765.387
763.6
758.24
749.305
736.798
720.716
701.061
677.832
651.029
620.653
586.703
549.18
508.082
463.411
415.167
363.349
192.813
188.75
184.82
181.014
)


20
(
2460.7
2458.89
2453.46
2444.4
2431.73
2415.44
2395.52
2371.98
2344.82
2314.04
2279.64
2241.62
2199.98
2154.72
2105.83
2053.33
1880.53
1876.41
1872.43
1868.57
)


20
(
3662.89
3657.49
3641.28
3614.26
3576.44
3527.81
3468.38
3398.14
3317.09
3225.23
3122.57
3009.11
2884.83
2749.75
2603.86
2447.17
1931.49
1919.2
1907.32
1895.81
)


20
(
4824.32
4815.41
4788.68
4744.13
4681.75
4601.56
4503.54
4387.7
4254.04
4102.56
3933.26
3746.13
3541.19
3318.42
3077.83
2819.43
1968.99
1948.73
1929.13
1910.15
)


20
(
5927.06
5914.79
5877.95
5816.56
5730.62
5620.12
5485.07
5325.46
5141.3
4932.58
4699.31
4441.48
4159.1
3852.16
3520.66
3164.61
1992.84
1964.93
1937.92
1911.77
)


20
(
6954.05
6938.6
6892.24
6814.99
6706.83
6567.78
6397.82
6196.96
5965.19
5702.53
5408.96
5084.5
4729.13
4342.86
3925.68
3477.61
2002.98
1967.85
1933.87
1900.96
)


20
(
7889.35
7870.97
7815.83
7723.92
7595.26
7429.84
7227.65
6988.71
6713
6400.53
6051.3
5665.31
5242.56
4783.05
4286.78
3753.75
1999.51
1957.73
1917.3
1878.15
)


20
(
8718.43
8697.41
8634.35
8529.25
8382.11
8192.92
7961.7
7688.44
7373.14
7015.79
6616.41
6174.99
5691.52
5166.02
4598.47
3988.89
1982.72
1934.93
1888.7
1843.92
)


20
(
9428.38
9405.06
9335.07
9218.43
9055.13
8845.17
8588.56
8285.29
7935.37
7538.78
7095.54
6605.65
6069.09
5485.88
4856.02
4179.49
1953.03
1899.99
1848.68
1798.99
)


20
(
10008.2
9982.88
9907.08
9780.73
9603.85
9376.44
9098.48
8769.99
8390.95
7961.39
7481.28
6950.64
6369.46
5737.74
5055.48
4322.69
1911.04
1853.59
1798.01
1744.19
)


20
(
10448.7
10421.9
10341.4
10207.4
10019.7
9778.42
9483.5
9134.97
8732.81
8277.03
7767.63
7204.61
6587.96
5917.7
5193.82
4416.31
1857.51
1796.55
1737.59
1680.48
)


20
(
10743.1
10715.2
10631.4
10491.7
10296.2
10044.9
9737.63
9374.54
8955.6
8480.8
7950.14
7363.62
6721.24
6023
5268.9
4458.94
1793.34
1729.85
1668.42
1608.93
)


20
(
10886.8
10858.2
10772.4
10629.3
10429.1
10171.6
9856.89
9484.99
9055.87
8569.53
8025.97
7425.2
6767.22
6052.02
5279.6
4449.96
1719.6
1654.56
1591.64
1530.71
)


20
(
10877.5
10848.7
10762.2
10618
10416.2
10156.6
9839.45
9464.59
9032.06
8541.86
7993.98
7388.44
6725.22
6004.33
5225.78
4389.55
1637.49
1571.93
1508.51
1447.09
)


20
(
10715.5
10686.9
10601.1
10458.1
10257.8
10000.3
9685.63
9313.73
8884.61
8398.27
7854.72
7253.95
6595.96
5880.76
5108.34
4278.7
1548.34
1483.3
1420.38
1359.45
)


20
(
10403.4
10375.5
10291.7
10152
9956.52
9705.15
9397.93
9034.84
8615.9
8141.1
7610.44
7023.91
6381.53
5683.3
4929.2
4119.24
1453.64
1390.14
1328.71
1269.22
)


20
(
9946.09
9919.28
9838.85
9704.8
9517.13
9275.83
8980.91
8632.38
8230.22
7774.44
7265.04
6702.02
6085.37
5415.11
4691.22
3913.72
1354.91
1293.96
1234.99
1177.89
)


20
(
9350.78
9325.51
9249.7
9123.36
8946.48
8719.06
8441.1
8112.61
7733.58
7304.01
6823.9
6293.26
5712.08
5080.36
4398.1
3665.31
1253.66
1196.21
1140.63
1086.81
)


20
(
8626.44
8603.11
8533.13
8416.49
8253.19
8043.23
7786.62
7483.35
7133.42
6736.84
6293.6
5803.7
5267.15
4683.94
4054.07
3377.55
1151.08
1098.04
1046.73
997.044
)


20
(
7783.42
7762.4
7699.34
7594.24
7447.1
7257.92
7026.7
6753.44
6438.14
6080.8
5681.41
5239.99
4756.53
4231.03
3663.48
3053.9
1047.74
999.95
953.718
908.945
)


20
(
6832.82
6814.44
6759.3
6667.39
6538.73
6373.31
6171.12
5932.18
5656.47
5344
4994.77
4608.78
4186.03
3726.52
3230.24
2697.21
942.976
901.188
860.762
821.611
)


20
(
5785.09
5769.64
5723.29
5646.04
5537.88
5398.82
5228.86
5028
4796.24
4533.57
4240.01
3915.54
3560.17
3173.9
2756.72
2308.65
834.016
798.889
764.906
731.995
)


20
(
4648.91
4636.63
4599.8
4538.41
4452.47
4341.97
4206.91
4047.3
3863.14
3654.42
3421.14
3163.31
2880.92
2573.98
2242.48
1886.43
714.639
686.726
659.722
633.571
)


20
(
3429.39
3420.47
3393.74
3349.19
3286.81
3206.62
3108.6
2992.76
2859.1
2707.62
2538.32
2351.19
2146.25
1923.48
1682.89
1424.48
574.046
553.788
534.19
515.21
)


20
(
2131.37
2125.97
2109.76
2082.75
2044.92
1996.3
1936.86
1866.62
1785.57
1693.72
1591.06
1477.6
1353.33
1218.25
1072.36
915.673