/*--------------------------------*- C++ -*----------------------------------*\
| =========                 |                                                 |
| \\      /  F ield         | OpenFOAM: The Open Source CFD Toolbox           |
|  \\    /   O peration     | Version:  2212                                  |
|   \\  /    A nd           | Website:  www.openfoam.com                      |
|    \\/     M anipulation  |                                                 |
\*---------------------------------------------------------------------------*/
FoamFile
{
    version     2.0;
    format      ascii;
    arch        "LSB;label=32;scalar=64";
    class       volScalarField;
    location    "39/fluidRegion";
    object      alphat;
}
// * * * * * * * * * * * * * * * * * * * * * * * * * * * * * * * * * * * * * //

dimensions      [1 -1 -1 0 0 0 0];

internalField   nonuniform List<scalar> 
350
(
0.00258557
0.00258559
0.00258561
0.00258565
0.00258568
0.00258571
0.00258573
0.00258575
0.00258575
0.00258575
0.00258575
0.00258574
0.00258575
0.00258578
0.00258586
0.002586
0.00258626
0.00258669
0.00258738
0.00258845
0.00259011
0.00259263
0.00259647
0.00260231
0.00261117
0.00258557
0.00258559
0.00258561
0.00258565
0.00258568
0.00258571
0.00258573
0.00258575
0.00258575
0.00258575
0.00258575
0.00258574
0.00258575
0.00258578
0.00258586
0.002586
0.00258626
0.00258669
0.00258738
0.00258845
0.00259011
0.00259263
0.00259647
0.00260231
0.00261117
0.000895483
0.000883808
0.000872354
0.000860746
0.000848878
0.000836642
0.000823935
0.000810658
0.000796726
0.000782075
0.000766674
0.000750529
0.000733683
0.000716206
0.000698177
0.000679691
0.000660928
0.000642347
0.000625136
0.00061214
0.000609754
0.00063133
0.000699534
0.000831846
0.00100115
0.000887661
0.000875998
0.000864579
0.000853012
0.000841193
0.000829015
0.000816372
0.000803165
0.000789308
0.000774737
0.000759421
0.000743372
0.000726643
0.000709313
0.000691476
0.000673234
0.000654767
0.00063652
0.00061966
0.000607005
0.000604934
0.00062684
0.00069561
0.000829172
0.00100042
0.000896732
0.000885044
0.00087358
0.000861961
0.00085008
0.00083783
0.000825108
0.000811816
0.000797867
0.000783199
0.000767779
0.000751613
0.000734743
0.000717236
0.00069917
0.000680639
0.000661821
0.00064318
0.000625906
0.000612845
0.000610398
0.000631912
0.000700033
0.000832188
0.00100128
0.000889457
0.000877796
0.000866371
0.000854798
0.00084297
0.000830781
0.000818125
0.000804903
0.00079103
0.00077644
0.000761105
0.000745034
0.000728277
0.000710912
0.00069303
0.000674732
0.000656196
0.000637872
0.00062093
0.000608196
0.000606052
0.000627881
0.000696521
0.000829795
0.00100059
0.000889457
0.000877796
0.000866371
0.000854798
0.00084297
0.000830781
0.000818125
0.000804903
0.00079103
0.00077644
0.000761105
0.000745033
0.000728276
0.000710912
0.00069303
0.000674732
0.000656196
0.000637871
0.00062093
0.000608195
0.000606052
0.000627881
0.000696521
0.000829795
0.00100059
0.000896732
0.000885044
0.00087358
0.000861961
0.000850079
0.00083783
0.000825108
0.000811815
0.000797866
0.000783198
0.000767778
0.000751612
0.000734741
0.000717234
0.000699168
0.000680636
0.000661818
0.000643177
0.000625901
0.00061284
0.000610392
0.000631905
0.000700025
0.000832182
0.00100127
0.000887661
0.000875998
0.000864579
0.000853012
0.000841193
0.000829015
0.000816372
0.000803166
0.000789308
0.000774737
0.000759421
0.000743372
0.000726643
0.000709313
0.000691476
0.000673235
0.000654767
0.00063652
0.00061966
0.000607004
0.000604934
0.000626839
0.000695609
0.000829172
0.00100042
0.000895483
0.000883808
0.000872354
0.000860747
0.000848878
0.000836642
0.000823935
0.000810658
0.000796726
0.000782075
0.000766674
0.000750529
0.000733683
0.000716206
0.000698176
0.000679691
0.000660927
0.000642345
0.000625134
0.000612136
0.000609749
0.000631322
0.000699522
0.000831832
0.00100114
0.000889457
0.000877796
0.000866371
0.000854798
0.00084297
0.000830781
0.000818125
0.000804903
0.00079103
0.00077644
0.000761105
0.000745033
0.000728276
0.000710912
0.00069303
0.000674732
0.000656196
0.000637872
0.00062093
0.000608195
0.000606051
0.000627879
0.000696518
0.00082979
0.00100059
0.000896732
0.000885044
0.00087358
0.000861961
0.00085008
0.00083783
0.000825109
0.000811816
0.000797867
0.000783199
0.000767779
0.000751613
0.000734743
0.000717236
0.00069917
0.00068064
0.000661823
0.000643183
0.00062591
0.000612852
0.000610408
0.000631928
0.000700055
0.000832216
0.0010013
0.000896731
0.000885043
0.00087358
0.00086196
0.000850079
0.00083783
0.000825108
0.000811815
0.000797866
0.000783197
0.000767777
0.000751611
0.00073474
0.000717233
0.000699166
0.000680635
0.000661817
0.000643175
0.000625899
0.000612837
0.00061039
0.000631904
0.000700026
0.000832185
0.00100128
0.000889457
0.000877796
0.000866371
0.000854798
0.00084297
0.000830781
0.000818125
0.000804903
0.000791029
0.00077644
0.000761105
0.000745033
0.000728276
0.000710912
0.000693029
0.000674731
0.000656194
0.000637869
0.000620926
0.00060819
0.000606043
0.000627868
0.000696503
0.000829773
0.00100057
)
;

boundaryField
{
    outletCentralUnloaded
    {
        type            zeroGradient;
    }
    inletCentralUnloaded
    {
        type            zeroGradient;
    }
    outletFuelElement
    {
        type            zeroGradient;
    }
    inletFuelElement
    {
        type            zeroGradient;
    }
    defaultFaces
    {
        type            zeroGradient;
    }
    baffle_master
    {
        type            calculated;
        value           nonuniform List<scalar> 
150
(
0.00258557
0.00258557
0.00258557
0.00258559
0.00258559
0.00258559
0.00258561
0.00258561
0.00258561
0.00258565
0.00258565
0.00258565
0.00258568
0.00258568
0.00258568
0.00258571
0.00258571
0.00258571
0.00258573
0.00258573
0.00258573
0.00258575
0.00258575
0.00258575
0.00258575
0.00258575
0.00258575
0.00258575
0.00258575
0.00258575
0.00258575
0.00258575
0.00258575
0.00258574
0.00258574
0.00258574
0.00258575
0.00258575
0.00258575
0.00258578
0.00258578
0.00258578
0.00258586
0.00258586
0.00258586
0.002586
0.002586
0.002586
0.00258626
0.00258626
0.00258626
0.00258669
0.00258669
0.00258669
0.00258738
0.00258738
0.00258738
0.00258845
0.00258845
0.00258845
0.00259011
0.00259011
0.00259011
0.00259263
0.00259263
0.00259263
0.00259647
0.00259647
0.00259647
0.00260231
0.00260231
0.00260231
0.00261117
0.00261117
0.00261117
0.00258557
0.00258557
0.00258557
0.00258559
0.00258559
0.00258559
0.00258561
0.00258561
0.00258561
0.00258565
0.00258565
0.00258565
0.00258568
0.00258568
0.00258568
0.00258571
0.00258571
0.00258571
0.00258573
0.00258573
0.00258573
0.00258575
0.00258575
0.00258575
0.00258575
0.00258575
0.00258575
0.00258575
0.00258575
0.00258575
0.00258575
0.00258575
0.00258575
0.00258574
0.00258574
0.00258574
0.00258575
0.00258575
0.00258575
0.00258578
0.00258578
0.00258578
0.00258586
0.00258586
0.00258586
0.002586
0.002586
0.002586
0.00258626
0.00258626
0.00258626
0.00258669
0.00258669
0.00258669
0.00258738
0.00258738
0.00258738
0.00258845
0.00258845
0.00258845
0.00259011
0.00259011
0.00259011
0.00259263
0.00259263
0.00259263
0.00259647
0.00259647
0.00259647
0.00260231
0.00260231
0.00260231
0.00261117
0.00261117
0.00261117
)
;
    }
    baffle_slave
    {
        type            calculated;
        value           nonuniform List<scalar> 
150
(
0.000887661
0.000889457
0.000889457
0.000875998
0.000877796
0.000877796
0.000864579
0.000866371
0.000866371
0.000853012
0.000854798
0.000854798
0.000841193
0.00084297
0.00084297
0.000829015
0.000830781
0.000830781
0.000816372
0.000818125
0.000818125
0.000803165
0.000804903
0.000804903
0.000789308
0.00079103
0.000791029
0.000774737
0.00077644
0.00077644
0.000759421
0.000761105
0.000761105
0.000743372
0.000745034
0.000745033
0.000726643
0.000728277
0.000728276
0.000709313
0.000710912
0.000710912
0.000691476
0.00069303
0.000693029
0.000673234
0.000674732
0.000674731
0.000654767
0.000656196
0.000656194
0.00063652
0.000637872
0.000637869
0.00061966
0.00062093
0.000620926
0.000607005
0.000608196
0.00060819
0.000604934
0.000606052
0.000606043
0.00062684
0.000627881
0.000627868
0.00069561
0.000696521
0.000696503
0.000829172
0.000829795
0.000829773
0.00100042
0.00100059
0.00100057
0.000889457
0.000887661
0.000889457
0.000877796
0.000875998
0.000877796
0.000866371
0.000864579
0.000866371
0.000854798
0.000853012
0.000854798
0.00084297
0.000841193
0.00084297
0.000830781
0.000829015
0.000830781
0.000818125
0.000816372
0.000818125
0.000804903
0.000803166
0.000804903
0.00079103
0.000789308
0.00079103
0.00077644
0.000774737
0.00077644
0.000761105
0.000759421
0.000761105
0.000745033
0.000743372
0.000745033
0.000728276
0.000726643
0.000728276
0.000710912
0.000709313
0.000710912
0.00069303
0.000691476
0.00069303
0.000674732
0.000673235
0.000674732
0.000656196
0.000654767
0.000656196
0.000637871
0.00063652
0.000637872
0.00062093
0.00061966
0.00062093
0.000608195
0.000607004
0.000608195
0.000606052
0.000604934
0.000606051
0.000627881
0.000626839
0.000627879
0.000696521
0.000695609
0.000696518
0.000829795
0.000829172
0.00082979
0.00100059
0.00100042
0.00100059
)
;
    }
}


// ************************************************************************* //
