/*--------------------------------*- C++ -*----------------------------------*\
| =========                 |                                                 |
| \\      /  F ield         | OpenFOAM: The Open Source CFD Toolbox           |
|  \\    /   O peration     | Version:  2212                                  |
|   \\  /    A nd           | Website:  www.openfoam.com                      |
|    \\/     M anipulation  |                                                 |
\*---------------------------------------------------------------------------*/
FoamFile
{
    version     2.0;
    format      ascii;
    arch        "LSB;label=32;scalar=64";
    class       surfaceScalarField;
    location    "39/fluidRegion";
    object      alphaRhoPhi;
}
// * * * * * * * * * * * * * * * * * * * * * * * * * * * * * * * * * * * * * //

dimensions      [1 0 -1 0 0 0 0];

oriented        oriented;

internalField   nonuniform List<scalar> 
661
(
-0.00584923
-2.62065e-10
-0.00584922
-2.84077e-10
-0.00584921
-2.34218e-10
-0.00584921
-2.19018e-10
-0.00584922
-2.46083e-10
-0.00584925
-2.52765e-10
-0.0058493
-1.94337e-10
-0.00584936
-7.40187e-11
-0.00584944
7.13837e-11
-0.00584952
2.01934e-10
-0.0058496
2.9779e-10
-0.00584968
3.62211e-10
-0.00584974
4.07494e-10
-0.0058498
4.38597e-10
-0.00584985
4.46806e-10
-0.00584988
4.15953e-10
-0.0058499
3.35733e-10
-0.00584989
2.11491e-10
-0.00584986
6.41715e-11
-0.00584982
-7.91273e-11
-0.00584977
-1.94835e-10
-0.0058497
-2.58394e-10
-0.00584963
-2.17268e-10
-0.00584956
-1.10098e-10
-2.99055e-10
-0.00584923
-0.00584922
-0.00584921
-0.00584921
-0.00584922
-0.00584925
-0.0058493
-0.00584936
-0.00584944
-0.00584952
-0.0058496
-0.00584968
-0.00584974
-0.0058498
-0.00584985
-0.00584988
-0.0058499
-0.00584989
-0.00584986
-0.00584982
-0.00584977
-0.0058497
-0.00584963
-0.00584956
-0.0093859
6.42359e-07
-0.00938613
3.16386e-07
-0.00938641
3.5251e-07
-0.00938666
3.27038e-07
-0.00938689
3.07243e-07
-0.00938711
2.89812e-07
-0.00938732
2.74458e-07
-0.00938751
2.59474e-07
-0.00938769
2.40881e-07
-0.00938785
2.10937e-07
-0.00938797
1.57519e-07
-0.00938802
6.37262e-08
-0.00938794
-8.7131e-08
-0.00938769
-3.02543e-07
-0.00938718
-5.82479e-07
-0.00938637
-9.08327e-07
-0.00938524
-1.25443e-06
-0.00938377
-1.60471e-06
-0.00938193
-1.97107e-06
-0.00937966
-2.40333e-06
-0.00937682
-2.99249e-06
-0.00937313
-3.83329e-06
-0.00936831
-4.95208e-06
-0.00936262
-5.83736e-06
-7.1207e-06
-0.00930208
-2.00313e-08
-1.774e-08
-0.00930162
-8.4185e-08
-8.395e-08
-0.00930114
-8.16659e-08
-8.10127e-08
-0.00930069
-7.30685e-08
-7.21679e-08
-0.00930028
-6.59078e-08
-6.46618e-08
-0.0092999
-5.93157e-08
-5.7754e-08
-0.00929955
-5.32103e-08
-5.12454e-08
-0.00929922
-4.71778e-08
-4.46617e-08
-0.00929893
-4.00939e-08
-3.68324e-08
-0.00929868
-2.97898e-08
-2.55817e-08
-0.00929852
-1.25085e-08
-7.04295e-09
-0.0092985
1.66127e-08
2.37536e-08
-0.00929872
6.2127e-08
7.16038e-08
-0.00929928
1.31166e-07
1.43787e-07
-0.0093003
2.21617e-07
2.38593e-07
-0.00930185
3.29149e-07
3.52396e-07
-0.00930399
4.4597e-07
4.78332e-07
-0.00930673
5.67025e-07
6.12932e-07
-0.0093101
6.96235e-07
7.62412e-07
-0.00931424
8.50704e-07
9.46256e-07
-0.00931942
1.05912e-06
1.1969e-06
-0.00932604
1.34845e-06
1.53688e-06
-0.00933453
1.6954e-06
1.94232e-06
-0.00934415
1.81013e-06
2.0826e-06
1.77047e-06
1.98329e-06
-0.00939965
3.19159e-07
-0.00939998
3.10933e-07
-0.00940031
3.06656e-07
-0.00940061
2.81296e-07
-0.00940088
2.59521e-07
-0.00940113
2.39983e-07
-0.00940136
2.21997e-07
-0.00940157
2.03581e-07
-0.00940175
1.80041e-07
-0.00940189
1.42805e-07
-0.00940197
7.83513e-08
-0.00940193
-3.03033e-08
-0.0094017
-2.00641e-07
-0.00940119
-4.41863e-07
-0.00940031
-7.5131e-07
-0.00939898
-1.10872e-06
-0.00939717
-1.48739e-06
-0.00939486
-1.87245e-06
-0.00939201
-2.27976e-06
-0.00938851
-2.76502e-06
-0.00938413
-3.42049e-06
-0.00937851
-4.33546e-06
-0.00937136
-5.44498e-06
-0.00936339
-6.10148e-06
-6.35138e-06
-0.00932088
1.27577e-09
-0.0093206
-3.27417e-10
-0.00932033
-2.26929e-10
-0.00932008
-2.60978e-10
-0.00931985
-2.26581e-10
-0.00931964
-1.94948e-10
-0.00931945
-1.89373e-10
-0.00931927
-1.28461e-10
-0.00931911
-5.54851e-11
-0.00931899
3.21022e-11
-0.00931892
2.25007e-10
-0.00931895
5.50684e-10
-0.00931914
1.02319e-09
-0.00931955
1.74882e-09
-0.00932025
2.80386e-09
-0.0093213
4.39798e-09
-0.00932272
6.89177e-09
-0.00932452
1.07995e-08
-0.00932673
1.64277e-08
-0.00932943
2.43802e-08
-0.0093328
3.53221e-08
-0.0093371
4.78625e-08
-0.00934255
6.09559e-08
-0.0093487
6.3985e-08
4.92463e-08
-0.00932089
-3.16462e-07
-0.00932061
-3.1171e-07
-0.00932034
-3.07116e-07
-0.00932009
-2.8183e-07
-0.00931986
-2.6002e-07
-0.00931965
-2.40469e-07
-0.00931946
-2.22498e-07
-0.00931928
-2.04027e-07
-0.00931913
-1.8043e-07
-0.009319
-1.43116e-07
-0.00931893
-7.8446e-08
-0.00931896
3.0596e-08
-0.00931915
2.01503e-07
-0.00931956
4.43612e-07
-0.00932026
7.54389e-07
-0.00932131
1.11393e-06
-0.00932273
1.49619e-06
-0.00932453
1.88723e-06
-0.00932674
2.30385e-06
-0.00932944
2.80347e-06
-0.00933281
3.48095e-06
-0.00933711
4.42546e-06
-0.00934256
5.5734e-06
-0.00934871
6.25184e-06
6.49472e-06
-0.00939965
1.78714e-08
-0.00939998
8.40014e-08
-0.00940031
8.1314e-08
-0.00940061
7.2726e-08
-0.00940088
6.55913e-08
-0.00940113
5.89109e-08
-0.00940136
5.27072e-08
-0.00940157
4.64831e-08
-0.00940175
3.9155e-08
-0.00940189
2.84414e-08
-0.00940197
1.06799e-08
-0.00940193
-1.91646e-08
-0.00940169
-6.57368e-08
-0.00940118
-1.36329e-07
-0.0094003
-2.29059e-07
-0.00939898
-3.3992e-07
-0.00939717
-4.6145e-07
-0.00939486
-5.88894e-07
-0.009392
-7.26845e-07
-0.0093885
-8.92047e-07
-0.00938411
-1.1131e-06
-0.00937849
-1.41465e-06
-0.00937134
-1.76946e-06
-0.00936337
-1.87954e-06
-1.80028e-06
-0.00930208
-6.42501e-07
-1.96188e-08
-0.00930162
-3.16571e-07
-8.37195e-08
-0.00930114
-3.52524e-07
-8.10241e-08
-0.00930069
-3.26955e-07
-7.2186e-08
-0.00930028
-3.07007e-07
-6.477e-08
-0.0092999
-2.89564e-07
-5.79289e-08
-0.00929955
-2.7415e-07
-5.15045e-08
-0.00929922
-2.59159e-07
-4.50685e-08
-0.00929893
-2.40503e-07
-3.74445e-08
-0.00929868
-2.1055e-07
-2.64745e-08
-0.00929852
-1.56973e-07
-8.41956e-09
-0.0092985
-6.29857e-08
2.16183e-08
-0.00929872
8.82087e-08
6.833e-08
-0.00929928
3.04161e-07
1.38718e-07
-0.0093003
5.8504e-07
2.30695e-07
-0.00930185
9.12678e-07
3.39807e-07
-0.00930399
1.26233e-06
4.57696e-07
-0.00930673
1.61986e-06
5.78241e-07
-0.0093101
2.00047e-06
7.03209e-07
-0.00931424
2.46068e-06
8.45061e-07
-0.00931941
3.10416e-06
1.02328e-06
-0.00932604
4.03938e-06
1.25153e-06
-0.00933453
5.31663e-06
1.49482e-06
-0.00934415
6.37021e-06
1.48912e-06
7.77588e-06
1.36755e-06
-0.0093859
-0.00938613
-0.00938641
-0.00938666
-0.00938689
-0.00938711
-0.00938732
-0.00938751
-0.00938769
-0.00938785
-0.00938797
-0.00938802
-0.00938794
-0.00938768
-0.00938718
-0.00938637
-0.00938524
-0.00938376
-0.00938193
-0.00937966
-0.00937681
-0.00937312
-0.0093683
-0.00936261
-0.00932088
-3.19937e-07
1.76994e-09
-0.0093206
-3.11822e-07
2.75908e-10
-0.00932033
-3.07596e-07
4.98257e-10
-0.00932008
-2.82322e-07
5.57177e-10
-0.00931985
-2.60618e-07
6.25023e-10
-0.00931964
-2.41257e-07
7.20591e-10
-0.00931945
-2.23531e-07
8.96118e-10
-0.00931927
-2.05478e-07
1.1097e-09
-0.00931911
-1.82428e-07
1.44007e-09
-0.00931899
-1.45882e-07
1.93602e-09
-0.00931892
-8.22267e-08
2.61536e-09
-0.00931895
2.52962e-08
3.58701e-09
-0.00931914
1.94093e-07
5.08563e-09
-0.00931955
4.33097e-07
7.36338e-09
-0.00932025
7.39233e-07
1.09438e-08
-0.0093213
1.09151e-06
1.66797e-08
-0.00932272
1.462e-06
2.59324e-08
-0.00932452
1.83357e-06
4.11308e-08
-0.00932673
2.21699e-06
6.70181e-08
-0.00932943
2.66079e-06
1.10269e-07
-0.0093328
3.24181e-06
1.832e-07
-0.0093371
4.0335e-06
2.94624e-07
-0.00934256
4.95195e-06
4.54482e-07
-0.00934871
5.39723e-06
5.95628e-07
5.57435e-06
6.1219e-07
-0.00939965
-0.00939998
-0.00940031
-0.00940061
-0.00940088
-0.00940113
-0.00940136
-0.00940157
-0.00940175
-0.00940189
-0.00940197
-0.00940193
-0.0094017
-0.00940119
-0.00940031
-0.00939898
-0.00939718
-0.00939487
-0.00939201
-0.00938851
-0.00938413
-0.00937852
-0.00937138
-0.00936341
-0.00939965
3.16043e-07
-0.00939998
3.11162e-07
-0.00940031
3.06691e-07
-0.00940061
2.81481e-07
-0.00940088
2.59866e-07
-0.00940113
2.40324e-07
-0.00940136
2.22408e-07
-0.00940157
2.03939e-07
-0.00940175
1.804e-07
-0.00940189
1.43016e-07
-0.00940197
7.83992e-08
-0.00940192
-3.06695e-08
-0.00940169
-2.01701e-07
-0.00940118
-4.44155e-07
-0.0094003
-7.55552e-07
-0.00939897
-1.11605e-06
-0.00939717
-1.49935e-06
-0.00939485
-1.89066e-06
-0.009392
-2.30554e-06
-0.0093885
-2.79647e-06
-0.00938411
-3.45062e-06
-0.00937848
-4.3446e-06
-0.00937134
-5.39247e-06
-0.00936338
-5.93983e-06
-6.03423e-06
-0.00932089
-0.00932061
-0.00932034
-0.00932009
-0.00931986
-0.00931965
-0.00931946
-0.00931928
-0.00931912
-0.009319
-0.00931893
-0.00931896
-0.00931915
-0.00931956
-0.00932026
-0.00932131
-0.00932273
-0.00932453
-0.00932674
-0.00932944
-0.0093328
-0.0093371
-0.00934256
-0.00934872
)
;

boundaryField
{
    outletCentralUnloaded
    {
        type            calculated;
        value           nonuniform List<scalar> 2(0.00584923 0.00584923);
    }
    inletCentralUnloaded
    {
        type            calculated;
        value           nonuniform List<scalar> 2(-0.00587369 -0.00587369);
    }
    outletFuelElement
    {
        type            calculated;
        value           nonuniform List<scalar> 
12
(
0.00938533
0.00930273
0.00939937
0.00932116
0.00932117
0.00939938
0.00930273
0.00938533
0.00932116
0.00939937
0.00939938
0.00932117
)
;
    }
    inletFuelElement
    {
        type            calculated;
        value           nonuniform List<scalar> 
12
(
-0.00952892
-0.00952893
-0.00952892
-0.00952892
-0.00952893
-0.00952892
-0.00952893
-0.00952892
-0.00952892
-0.00952892
-0.00952892
-0.00952893
)
;
    }
    defaultFaces
    {
        type            calculated;
        value           nonuniform List<scalar> 
450
(
-8.67923e-24
-2.12814e-23
0
3.90422e-24
-6.93912e-24
0
1.51455e-23
-1.6587e-27
0
-2.18359e-23
-5.73987e-24
0
-9.52353e-24
-1.99942e-23
0
-2.29321e-23
-9.48376e-24
0
-1.44035e-23
-6.30324e-25
0
-1.43544e-23
-4.43462e-24
0
-1.07952e-23
-2.10553e-24
0
-1.66844e-23
-5.64659e-24
0
-1.16686e-23
-5.46917e-24
0
-4.0558e-24
-7.38223e-25
0
4.91544e-24
1.09829e-24
0
2.12163e-23
4.49839e-24
0
3.33115e-23
1.39371e-23
0
6.47692e-23
1.38795e-23
0
1.03936e-22
-1.24462e-23
0
1.27434e-22
6.14617e-23
0
1.27404e-22
-1.14518e-22
0
-8.85132e-23
-1.09534e-22
0
-1.20956e-22
-1.0854e-22
0
1.98682e-22
-1.13979e-22
0
-2.0913e-22
-5.98928e-23
0
-1.6518e-22
-8.0535e-23
0
-1.59643e-22
-2.36686e-22
0
1.48865e-23
0
7.57684e-24
0
0
0
8.00639e-24
0
-6.23397e-24
0
2.172e-24
0
4.57269e-24
0
9.69856e-24
0
-2.59173e-24
0
4.19109e-24
0
3.04033e-24
0
-8.35565e-25
0
-5.57376e-24
0
-4.18298e-24
0
-3.81921e-23
0
-2.21265e-23
0
9.1241e-23
0
-3.12863e-23
0
3.8333e-23
0
-7.21135e-23
0
-1.85647e-22
0
2.86473e-22
0
1.10715e-22
0
-2.24845e-22
0
-2.87865e-22
0
-7.33713e-24
0
0
0
4.09466e-24
-4.27945e-24
-9.00859e-24
0
5.10505e-24
-2.75162e-24
0
4.11416e-25
0
8.24006e-24
9.40674e-24
2.18078e-23
-7.71227e-23
0
-7.57268e-23
-4.75398e-23
6.12771e-23
-1.6238e-22
-2.20126e-22
0
9.58616e-23
0
0
0
0
0
0
0
0
0
0
0
0
0
0
0
0
0
0
0
0
0
0
0
0
0
-1.02344e-23
7.44323e-24
3.78842e-24
7.57683e-24
7.76326e-24
1.94082e-23
-4.00319e-24
-8.00638e-24
8.31195e-24
-6.23397e-24
-8.688e-24
-4.344e-24
-4.57268e-24
-4.57268e-24
-7.27391e-24
-4.84928e-24
1.29586e-23
-5.18345e-24
-5.58812e-24
-4.19109e-24
-2.28024e-24
-1.52016e-24
1.67113e-24
6.26673e-25
5.57376e-24
7.43168e-24
1.67319e-23
1.25489e-23
1.9096e-23
2.387e-23
3.31897e-23
4.4253e-23
-2.60688e-23
7.82064e-23
6.25726e-23
6.25726e-23
-1.53332e-22
7.66658e-23
-1.44227e-22
-7.21133e-23
0
-1.23764e-22
-1.22774e-22
2.04623e-22
-5.53574e-23
-2.2143e-22
0
-1.49896e-22
-3.8382e-22
-1.9191e-22
1.66274e-23
0
1.48493e-23
1.84247e-24
0
0
8.5926e-24
0
-2.32308e-23
-3.42242e-23
0
3.993e-24
1.28159e-23
0
-8.29069e-24
-2.66769e-23
0
4.33284e-24
-2.74665e-23
0
4.56089e-24
-2.09743e-23
0
4.83674e-24
-9.14362e-24
0
-1.034e-23
-1.94613e-23
0
5.57362e-24
-1.58338e-23
0
6.06488e-24
-5.97827e-24
0
2.50021e-24
8.02412e-24
-0
-1.85315e-24
2.62073e-23
-0
-8.34477e-24
4.58215e-23
-0
0
8.30222e-23
-0
-1.10367e-23
9.31702e-23
-0
-5.20179e-23
1.50674e-22
-0
-3.12186e-23
1.54048e-22
-0
-7.65122e-23
-8.45253e-23
-0
4.79886e-23
-1.28879e-22
-0
6.17848e-23
2.58722e-22
-0
8.1744e-23
-1.3527e-22
-0
0
1.13777e-23
-0
1.49816e-22
-1.6229e-22
-0
9.59389e-23
-7.33713e-24
-3.73389e-24
0
0
0
0
0
0
2.55253e-24
-2.75162e-24
1.49701e-24
4.11416e-25
0
-8.24006e-24
1.88135e-23
0
-5.14152e-23
3.08751e-23
-7.57268e-23
0
6.12771e-23
-1.6238e-22
-1.65094e-22
7.46972e-23
9.58616e-23
1.20953e-23
0
1.13653e-23
0
0
0
1.20096e-23
0
-2.07799e-24
0
6.51601e-24
0
9.14537e-24
0
7.27392e-24
0
1.29586e-24
0
4.19109e-24
0
2.28025e-24
0
-1.67113e-24
0
-7.43169e-24
-0
-2.09149e-23
-0
-2.86441e-23
-0
-2.21265e-23
-0
7.82066e-23
-0
-6.25727e-23
-0
1.14999e-22
-0
-1.44227e-22
-0
-1.23765e-22
-0
2.04623e-22
-0
0
-0
-1.49897e-22
-0
-1.9191e-22
-0
-1.11648e-23
7.44323e-24
-7.57683e-24
1.13653e-23
-1.16449e-23
7.76326e-24
-8.00638e-24
-2.20176e-23
-2.07799e-24
8.31195e-24
-6.516e-24
-1.7376e-23
-4.57268e-24
-1.3718e-23
-4.84928e-24
-1.69725e-23
0
-7.77517e-24
-4.19109e-24
-8.38217e-24
-2.66028e-24
-4.56048e-24
8.35564e-25
5.01339e-24
0
2.04371e-23
1.25489e-23
4.18297e-23
2.8644e-23
6.68361e-23
3.31897e-23
1.10632e-22
0
7.82064e-23
3.12863e-23
1.40788e-22
-3.83329e-23
1.34165e-22
0
-1.20189e-22
-6.18822e-23
-3.09411e-23
0
2.86472e-22
1.66072e-22
-1.10715e-22
7.49482e-23
-1.12422e-22
0
-2.39887e-22
-0
-0
-0
-0
-0
-0
-0
-0
-0
-0
-0
0
0
0
0
0
0
0
0
0
0
0
0
0
0
)
;
    }
    baffle_master
    {
        type            calculated;
        value           nonuniform List<scalar> 
150
(
1.13264e-27
0
3.97536e-27
2.1956e-27
0
0
3.75557e-28
0
0
-2.57345e-27
0
3.97634e-27
-1.4185e-26
0
-7.95334e-27
-3.19842e-27
0
0
1.05373e-27
0
0
-1.94693e-28
0
-9.94418e-28
-4.06122e-28
0
0
2.19376e-27
0
0
-1.83705e-27
0
0
2.18619e-28
0
0
2.52443e-27
0
0
-5.44277e-28
0
0
3.71363e-28
0
-7.95999e-27
-6.18047e-27
0
7.96065e-27
-3.10237e-26
0
-1.59226e-26
1.4351e-27
0
0
-3.77195e-27
0
-1.99065e-27
-4.62147e-28
0
9.95407e-28
1.31074e-28
0
0
-1.60336e-26
0
-3.98228e-27
2.74679e-28
0
0
1.47151e-28
0
1.99147e-27
1.12786e-27
0
7.96652e-27
3.97536e-27
-1.14618e-26
0
3.97569e-27
-7.01807e-27
0
3.97601e-27
-9.62694e-27
0
1.1929e-26
-7.13532e-27
0
3.97667e-27
5.25739e-27
0
3.977e-27
-9.03943e-27
0
0
-8.5184e-27
0
9.94418e-28
-2.80053e-27
0
1.989e-27
2.71026e-27
-0
-3.97834e-27
1.06243e-26
-0
-3.97867e-27
1.02314e-26
-0
-7.95801e-27
4.20458e-27
-0
-1.59173e-26
1.06621e-26
-0
0
1.17517e-26
-0
-7.95999e-27
1.59413e-26
-0
0
1.42774e-26
-0
1.59226e-26
1.15579e-26
-0
0
6.23522e-27
-0
1.99065e-27
-6.78652e-28
-0
9.95407e-28
3.15571e-27
0
0
2.56534e-27
0
-7.96456e-27
1.56496e-26
0
-7.96521e-27
-4.21303e-27
0
0
4.34964e-27
0
3.98326e-27
9.2018e-27
0
)
;
    }
    baffle_slave
    {
        type            calculated;
        value           nonuniform List<scalar> 
150
(
-5.82686e-24
-0
0
1.37357e-24
-0
3.73389e-24
5.95608e-25
-0
3.82526e-24
-1.16691e-24
-0
3.94458e-24
-1.36426e-23
-0
-8.18932e-24
3.13138e-24
-0
4.27945e-24
1.61283e-24
-0
0
-6.69201e-25
-0
0
-2.22518e-24
-0
-2.55253e-24
-8.56671e-25
-0
0
-2.42351e-24
-0
-1.49701e-24
6.14801e-25
0
4.11416e-25
4.55706e-25
0
0
-1.02616e-24
0
0
3.51453e-24
0
0
2.03712e-24
0
0
-7.36528e-23
0
-7.71227e-23
-5.76999e-24
0
0
-8.25709e-23
0
-1.1359e-22
-2.07401e-23
0
4.75397e-23
-2.29221e-23
0
-6.12771e-23
1.31664e-22
0
1.6238e-22
0
0
0
9.32922e-24
0
-1.49394e-22
-5.98991e-23
0
-9.58616e-23
-4.36593e-24
2.55925e-23
0
-4.89936e-24
9.36064e-24
0
-4.27601e-25
1.19568e-23
0
-4.761e-24
1.11624e-23
0
-4.50034e-24
-1.50132e-23
0
-3.2892e-24
9.2942e-24
0
1.06699e-24
7.67849e-24
0
-1.3134e-24
4.83312e-24
0
6.94422e-24
8.82127e-24
0
-3.96935e-24
7.96704e-24
0
-9.03191e-25
4.84701e-24
0
5.098e-25
3.27894e-24
0
4.18446e-24
-1.02534e-24
0
7.09946e-24
-6.86243e-24
0
7.28656e-24
-1.02507e-23
0
1.78059e-23
-1.94163e-23
0
-7.94135e-23
-3.64261e-23
0
1.09465e-23
-4.71215e-23
0
-8.39631e-23
-1.29754e-23
0
6.3949e-23
3.7036e-23
0
7.53095e-23
5.34848e-23
0
-1.22477e-22
1.67112e-22
0
-1.29598e-22
-1.23635e-22
0
5.93139e-23
7.46338e-23
0
6.23003e-23
1.91677e-22
0
)
;
    }
}


// ************************************************************************* //
