/*--------------------------------*- C++ -*----------------------------------*\
| =========                 |                                                 |
| \\      /  F ield         | OpenFOAM: The Open Source CFD Toolbox           |
|  \\    /   O peration     | Version:  2212                                  |
|   \\  /    A nd           | Website:  www.openfoam.com                      |
|    \\/     M anipulation  |                                                 |
\*---------------------------------------------------------------------------*/
FoamFile
{
    version     2.0;
    format      ascii;
    arch        "LSB;label=32;scalar=64";
    class       volScalarField;
    location    "39/fluidRegion";
    object      epsilon;
}
// * * * * * * * * * * * * * * * * * * * * * * * * * * * * * * * * * * * * * //

dimensions      [0 2 -3 0 0 0 0];

internalField   nonuniform List<scalar> 
350
(
66.9798
66.9636
66.9474
66.9311
66.9148
66.8985
66.8822
66.8659
66.8497
66.8336
66.8177
66.8021
66.7871
66.7731
66.7607
66.7508
66.7447
66.7445
66.7531
66.7752
66.8176
66.8911
67.0117
67.2046
67.5077
66.9798
66.9636
66.9474
66.9311
66.9148
66.8985
66.8822
66.8659
66.8497
66.8336
66.8177
66.8021
66.7871
66.7731
66.7607
66.7508
66.7447
66.7445
66.7531
66.7752
66.8176
66.8911
67.0117
67.2046
67.5077
7.52198e+06
6.92778e+06
6.26832e+06
5.56396e+06
4.8423e+06
4.12868e+06
3.44516e+06
2.80974e+06
2.23593e+06
1.73267e+06
1.30436e+06
951295
670060
454258
295290
183296
108141
60319.1
31623.5
15503.2
7107.42
3103.2
1382.52
735.497
547.488
7.68424e+06
7.07869e+06
6.40651e+06
5.68798e+06
4.95135e+06
4.22257e+06
3.52421e+06
2.87471e+06
2.28798e+06
1.77318e+06
1.33491e+06
973515
685583
464619
301860
187229
110347
61468.2
32172
15738.7
7196
3131.25
1389.64
736.929
547.91
7.49541e+06
6.90302e+06
6.24575e+06
5.54378e+06
4.82462e+06
4.11352e+06
3.43244e+06
2.79932e+06
2.22762e+06
1.72622e+06
1.29952e+06
947782
667613
452628
294257
182678
107794
60137.3
31535.8
15464.7
7092.35
3097.98
1380.91
735.011
547.315
7.6483e+06
7.0452e+06
6.37576e+06
5.66031e+06
4.92697e+06
4.20153e+06
3.50646e+06
2.86009e+06
2.27624e+06
1.76402e+06
1.32799e+06
968472
682053
462259
300361
186330
109843
61205.3
32046.5
15684.9
7175.81
3124.9
1388.06
736.632
547.829
7.6483e+06
7.0452e+06
6.37576e+06
5.66031e+06
4.92697e+06
4.20153e+06
3.50646e+06
2.86009e+06
2.27624e+06
1.76402e+06
1.32799e+06
968472
682054
462259
300361
186330
109843
61205.3
32046.5
15684.9
7175.81
3124.9
1388.06
736.632
547.83
7.49543e+06
6.90303e+06
6.24576e+06
5.54379e+06
4.82462e+06
4.11352e+06
3.43245e+06
2.79933e+06
2.22762e+06
1.72622e+06
1.29952e+06
947784
667614
452629
294258
182678
107794
60137.3
31535.8
15464.7
7092.35
3097.97
1380.9
735.006
547.312
7.68424e+06
7.07869e+06
6.4065e+06
5.68798e+06
4.95135e+06
4.22257e+06
3.52421e+06
2.87471e+06
2.28798e+06
1.77318e+06
1.33491e+06
973515
685583
464619
301860
187229
110347
61468.2
32172
15738.7
7196.01
3131.25
1389.64
736.93
547.91
7.52198e+06
6.92778e+06
6.26832e+06
5.56396e+06
4.8423e+06
4.12868e+06
3.44516e+06
2.80974e+06
2.23593e+06
1.73267e+06
1.30436e+06
951295
670061
454258
295290
183296
108141
60319.1
31623.5
15503.2
7107.42
3103.19
1382.52
735.49
547.481
7.6483e+06
7.0452e+06
6.37576e+06
5.66031e+06
4.92697e+06
4.20153e+06
3.50646e+06
2.86009e+06
2.27624e+06
1.76402e+06
1.32799e+06
968472
682054
462259
300361
186330
109843
61205.3
32046.5
15684.9
7175.8
3124.89
1388.05
736.63
547.827
7.49541e+06
6.90302e+06
6.24574e+06
5.54378e+06
4.82462e+06
4.11352e+06
3.43244e+06
2.79932e+06
2.22762e+06
1.72622e+06
1.29952e+06
947782
667612
452628
294257
182678
107794
60137.2
31535.8
15464.7
7092.35
3097.98
1380.92
735.024
547.329
7.49543e+06
6.90303e+06
6.24576e+06
5.54379e+06
4.82462e+06
4.11352e+06
3.43245e+06
2.79933e+06
2.22762e+06
1.72622e+06
1.29952e+06
947784
667614
452629
294258
182678
107794
60137.4
31535.8
15464.7
7092.35
3097.97
1380.9
735.009
547.315
7.6483e+06
7.0452e+06
6.37576e+06
5.66032e+06
4.92697e+06
4.20153e+06
3.50646e+06
2.86009e+06
2.27624e+06
1.76402e+06
1.32799e+06
968472
682054
462259
300361
186330
109843
61205.3
32046.5
15684.9
7175.8
3124.89
1388.05
736.623
547.819
)
;

boundaryField
{
    outletCentralUnloaded
    {
        type            zeroGradient;
    }
    inletCentralUnloaded
    {
        type            zeroGradient;
    }
    outletFuelElement
    {
        type            zeroGradient;
    }
    inletFuelElement
    {
        type            zeroGradient;
    }
    defaultFaces
    {
        type            zeroGradient;
    }
    baffle_master
    {
        type            zeroGradient;
    }
    baffle_slave
    {
        type            zeroGradient;
    }
}


// ************************************************************************* //
