/*--------------------------------*- C++ -*----------------------------------*\
| =========                 |                                                 |
| \\      /  F ield         | OpenFOAM: The Open Source CFD Toolbox           |
|  \\    /   O peration     | Version:  2212                                  |
|   \\  /    A nd           | Website:  www.openfoam.com                      |
|    \\/     M anipulation  |                                                 |
\*---------------------------------------------------------------------------*/
FoamFile
{
    version     2.0;
    format      ascii;
    arch        "LSB;label=32;scalar=64";
    class       volScalarField;
    location    "39/fluidRegion";
    object      htc;
}
// * * * * * * * * * * * * * * * * * * * * * * * * * * * * * * * * * * * * * //

dimensions      [1 0 -3 -1 0 0 0];

internalField   nonuniform List<scalar> 
350
(
3101.2
3101.22
3101.23
3101.24
3101.26
3101.29
3101.32
3101.36
3101.4
3101.45
3101.5
3101.55
3101.6
3101.64
3101.68
3101.72
3101.74
3101.76
3101.77
3101.77
3101.77
3101.76
3101.75
3101.74
3106.9
3101.2
3101.22
3101.23
3101.24
3101.26
3101.29
3101.32
3101.36
3101.4
3101.45
3101.5
3101.55
3101.6
3101.64
3101.68
3101.72
3101.74
3101.76
3101.77
3101.77
3101.77
3101.76
3101.75
3101.74
3106.9
27134.7
27056.6
26874.2
26566.8
26135.8
25583.3
24912.3
24126.7
23231.7
22234.4
21144.4
19974.3
18739
17455.3
16139.6
14805.7
13463.8
12122
10789.7
9482.86
8229.77
7076.92
6095.15
5377.44
4938.88
27222.9
27144.5
26962.8
26655.4
26223.9
25670.5
24997.9
24209.9
23311.6
22310
21214.4
20037.2
18793.9
17501.6
16177.5
14836
13487.7
12140.6
10803.6
9492.35
8234.7
7077.39
6092.12
5373.22
4936.93
27120.7
27042.3
26859.9
26552.5
26121.5
25569.3
24898.6
24113.4
23218.9
22222.4
21133.3
19964.3
18730.2
17447.9
16133.5
14800.7
13459.8
12118.8
10787.1
9480.86
8228.38
7076.09
6094.74
5377.18
4938.74
27203.3
27125.1
26943.1
26635.7
26204.3
25651
24978.7
24191.2
23293.7
22293
21198.6
20023
18781.5
17491.2
16168.9
14829.1
13482.3
12136.4
10800.5
9490.27
8233.66
7077.38
6092.93
5374.31
4937.45
27203.3
27125.1
26943.1
26635.7
26204.3
25651
24978.7
24191.2
23293.7
22293
21198.6
20023
18781.5
17491.2
16168.9
14829.1
13482.3
12136.4
10800.5
9490.27
8233.66
7077.38
6092.93
5374.31
4937.45
27120.7
27042.3
26859.9
26552.5
26121.5
25569.3
24898.6
24113.4
23218.9
22222.4
21133.3
19964.3
18730.2
17447.9
16133.5
14800.7
13459.8
12118.8
10787.1
9480.85
8228.37
7076.08
6094.73
5377.17
4938.73
27222.9
27144.5
26962.8
26655.4
26223.9
25670.5
24997.9
24209.9
23311.6
22310
21214.4
20037.2
18793.9
17501.6
16177.5
14836
13487.7
12140.6
10803.6
9492.35
8234.7
7077.39
6092.12
5373.22
4936.93
27134.7
27056.6
26874.2
26566.8
26135.8
25583.3
24912.3
24126.7
23231.7
22234.4
21144.4
19974.3
18739
17455.3
16139.6
14805.7
13463.8
12122
10789.7
9482.86
8229.77
7076.91
6095.15
5377.44
4938.88
27203.3
27125.1
26943.1
26635.7
26204.3
25651
24978.7
24191.2
23293.7
22293
21198.6
20023
18781.5
17491.2
16168.9
14829.1
13482.3
12136.4
10800.5
9490.27
8233.66
7077.39
6092.93
5374.32
4937.45
27120.7
27042.3
26859.9
26552.5
26121.5
25569.3
24898.6
24113.4
23218.9
22222.4
21133.3
19964.3
18730.2
17447.9
16133.5
14800.7
13459.8
12118.8
10787.1
9480.86
8228.38
7076.09
6094.75
5377.18
4938.74
27120.7
27042.3
26859.9
26552.5
26121.5
25569.3
24898.6
24113.4
23218.9
22222.4
21133.3
19964.3
18730.2
17447.9
16133.5
14800.7
13459.8
12118.7
10787.1
9480.85
8228.37
7076.08
6094.73
5377.17
4938.73
27203.3
27125.1
26943.1
26635.7
26204.3
25651
24978.7
24191.2
23293.7
22293
21198.6
20023
18781.5
17491.2
16168.9
14829.1
13482.3
12136.4
10800.5
9490.26
8233.66
7077.38
6092.92
5374.32
4937.45
)
;

boundaryField
{
    outletCentralUnloaded
    {
        type            zeroGradient;
    }
    inletCentralUnloaded
    {
        type            zeroGradient;
    }
    outletFuelElement
    {
        type            zeroGradient;
    }
    inletFuelElement
    {
        type            zeroGradient;
    }
    defaultFaces
    {
        type            zeroGradient;
    }
    baffle_master
    {
        type            zeroGradient;
    }
    baffle_slave
    {
        type            zeroGradient;
    }
}


// ************************************************************************* //
