/*--------------------------------*- C++ -*----------------------------------*\
| =========                 |                                                 |
| \\      /  F ield         | OpenFOAM: The Open Source CFD Toolbox           |
|  \\    /   O peration     | Version:  2212                                  |
|   \\  /    A nd           | Website:  www.openfoam.com                      |
|    \\/     M anipulation  |                                                 |
\*---------------------------------------------------------------------------*/
FoamFile
{
    version     2.0;
    format      ascii;
    arch        "LSB;label=32;scalar=64";
    class       volTensorField;
    location    "39/fluidRegion";
    object      Kd;
}
// * * * * * * * * * * * * * * * * * * * * * * * * * * * * * * * * * * * * * //

dimensions      [1 -3 -1 0 0 0 0];

internalField   nonuniform List<tensor> 
350
(
(84.7375 0 0 0 84.7375 0 0 0 84.7375)
(84.7374 0 0 0 84.7374 0 0 0 84.7374)
(84.7373 0 0 0 84.7373 0 0 0 84.7373)
(84.7372 0 0 0 84.7372 0 0 0 84.7372)
(84.7373 0 0 0 84.7373 0 0 0 84.7373)
(84.7375 0 0 0 84.7375 0 0 0 84.7375)
(84.7379 0 0 0 84.7379 0 0 0 84.7379)
(84.7385 0 0 0 84.7385 0 0 0 84.7385)
(84.7393 0 0 0 84.7393 0 0 0 84.7393)
(84.7402 0 0 0 84.7402 0 0 0 84.7402)
(84.741 0 0 0 84.741 0 0 0 84.741)
(84.7419 0 0 0 84.7419 0 0 0 84.7419)
(84.7426 0 0 0 84.7426 0 0 0 84.7426)
(84.7433 0 0 0 84.7433 0 0 0 84.7433)
(84.7439 0 0 0 84.7439 0 0 0 84.7439)
(84.7443 0 0 0 84.7443 0 0 0 84.7443)
(84.7446 0 0 0 84.7446 0 0 0 84.7446)
(84.7446 0 0 0 84.7446 0 0 0 84.7446)
(84.7445 0 0 0 84.7445 0 0 0 84.7445)
(84.7441 0 0 0 84.7441 0 0 0 84.7441)
(84.7436 0 0 0 84.7436 0 0 0 84.7436)
(84.7429 0 0 0 84.7429 0 0 0 84.7429)
(84.7422 0 0 0 84.7422 0 0 0 84.7422)
(84.7414 0 0 0 84.7414 0 0 0 84.7414)
(84.8733 0 0 0 84.8733 0 0 0 84.8733)
(84.7375 0 0 0 84.7375 0 0 0 84.7375)
(84.7374 0 0 0 84.7374 0 0 0 84.7374)
(84.7373 0 0 0 84.7373 0 0 0 84.7373)
(84.7372 0 0 0 84.7372 0 0 0 84.7372)
(84.7373 0 0 0 84.7373 0 0 0 84.7373)
(84.7375 0 0 0 84.7375 0 0 0 84.7375)
(84.7379 0 0 0 84.7379 0 0 0 84.7379)
(84.7385 0 0 0 84.7385 0 0 0 84.7385)
(84.7393 0 0 0 84.7393 0 0 0 84.7393)
(84.7402 0 0 0 84.7402 0 0 0 84.7402)
(84.741 0 0 0 84.741 0 0 0 84.741)
(84.7419 0 0 0 84.7419 0 0 0 84.7419)
(84.7426 0 0 0 84.7426 0 0 0 84.7426)
(84.7433 0 0 0 84.7433 0 0 0 84.7433)
(84.7439 0 0 0 84.7439 0 0 0 84.7439)
(84.7443 0 0 0 84.7443 0 0 0 84.7443)
(84.7446 0 0 0 84.7446 0 0 0 84.7446)
(84.7446 0 0 0 84.7446 0 0 0 84.7446)
(84.7445 0 0 0 84.7445 0 0 0 84.7445)
(84.7441 0 0 0 84.7441 0 0 0 84.7441)
(84.7436 0 0 0 84.7436 0 0 0 84.7436)
(84.7429 0 0 0 84.7429 0 0 0 84.7429)
(84.7422 0 0 0 84.7422 0 0 0 84.7422)
(84.7414 0 0 0 84.7414 0 0 0 84.7414)
(84.8733 0 0 0 84.8733 0 0 0 84.8733)
(682.083 0 0 0 682.083 0 0 0 682.083)
(681.593 0 0 0 681.593 0 0 0 681.593)
(681.605 0 0 0 681.605 0 0 0 681.605)
(681.608 0 0 0 681.608 0 0 0 681.608)
(681.599 0 0 0 681.599 0 0 0 681.599)
(681.578 0 0 0 681.578 0 0 0 681.578)
(681.543 0 0 0 681.543 0 0 0 681.543)
(681.492 0 0 0 681.492 0 0 0 681.492)
(681.423 0 0 0 681.423 0 0 0 681.423)
(681.334 0 0 0 681.334 0 0 0 681.334)
(681.225 0 0 0 681.225 0 0 0 681.225)
(681.094 0 0 0 681.094 0 0 0 681.094)
(680.942 0 0 0 680.942 0 0 0 680.942)
(680.77 0 0 0 680.77 0 0 0 680.77)
(680.575 0 0 0 680.575 0 0 0 680.575)
(680.346 0 0 0 680.346 0 0 0 680.346)
(680.067 0 0 0 680.067 0 0 0 680.067)
(679.721 0 0 0 679.721 0 0 0 679.721)
(679.302 0 0 0 679.302 0 0 0 679.302)
(678.864 0 0 0 678.864 0 0 0 678.864)
(678.588 0 0 0 678.588 0 0 0 678.588)
(679.025 0 0 0 679.025 0 0 0 679.025)
(681.495 0 0 0 681.495 0 0 0 681.495)
(688.322 0 0 0 688.322 0 0 0 688.322)
(692.702 0 0 0 692.702 0 0 0 692.702)
(677.564 0 0 0 677.564 0 0 0 677.564)
(677.002 0 0 0 677.002 0 0 0 677.002)
(676.976 0 0 0 676.976 0 0 0 676.976)
(676.939 0 0 0 676.939 0 0 0 676.939)
(676.894 0 0 0 676.894 0 0 0 676.894)
(676.839 0 0 0 676.839 0 0 0 676.839)
(676.772 0 0 0 676.772 0 0 0 676.772)
(676.692 0 0 0 676.692 0 0 0 676.692)
(676.596 0 0 0 676.596 0 0 0 676.596)
(676.483 0 0 0 676.483 0 0 0 676.483)
(676.353 0 0 0 676.353 0 0 0 676.353)
(676.211 0 0 0 676.211 0 0 0 676.211)
(676.062 0 0 0 676.062 0 0 0 676.062)
(675.917 0 0 0 675.917 0 0 0 675.917)
(675.781 0 0 0 675.781 0 0 0 675.781)
(675.655 0 0 0 675.655 0 0 0 675.655)
(675.527 0 0 0 675.527 0 0 0 675.527)
(675.381 0 0 0 675.381 0 0 0 675.381)
(675.212 0 0 0 675.212 0 0 0 675.212)
(675.078 0 0 0 675.078 0 0 0 675.078)
(675.175 0 0 0 675.175 0 0 0 675.175)
(676.083 0 0 0 676.083 0 0 0 676.083)
(679.18 0 0 0 679.18 0 0 0 679.18)
(686.844 0 0 0 686.844 0 0 0 686.844)
(692.222 0 0 0 692.222 0 0 0 692.222)
(682.838 0 0 0 682.838 0 0 0 682.838)
(682.345 0 0 0 682.345 0 0 0 682.345)
(682.361 0 0 0 682.361 0 0 0 682.361)
(682.367 0 0 0 682.367 0 0 0 682.367)
(682.36 0 0 0 682.36 0 0 0 682.36)
(682.341 0 0 0 682.341 0 0 0 682.341)
(682.307 0 0 0 682.307 0 0 0 682.307)
(682.257 0 0 0 682.257 0 0 0 682.257)
(682.188 0 0 0 682.188 0 0 0 682.188)
(682.1 0 0 0 682.1 0 0 0 682.1)
(681.989 0 0 0 681.989 0 0 0 681.989)
(681.855 0 0 0 681.855 0 0 0 681.855)
(681.697 0 0 0 681.697 0 0 0 681.697)
(681.515 0 0 0 681.515 0 0 0 681.515)
(681.303 0 0 0 681.303 0 0 0 681.303)
(681.05 0 0 0 681.05 0 0 0 681.05)
(680.739 0 0 0 680.739 0 0 0 680.739)
(680.353 0 0 0 680.353 0 0 0 680.353)
(679.884 0 0 0 679.884 0 0 0 679.884)
(679.387 0 0 0 679.387 0 0 0 679.387)
(679.039 0 0 0 679.039 0 0 0 679.039)
(679.385 0 0 0 679.385 0 0 0 679.385)
(681.741 0 0 0 681.741 0 0 0 681.741)
(688.433 0 0 0 688.433 0 0 0 688.433)
(692.719 0 0 0 692.719 0 0 0 692.719)
(678.575 0 0 0 678.575 0 0 0 678.575)
(678.034 0 0 0 678.034 0 0 0 678.034)
(678.018 0 0 0 678.018 0 0 0 678.018)
(677.992 0 0 0 677.992 0 0 0 677.992)
(677.958 0 0 0 677.958 0 0 0 677.958)
(677.912 0 0 0 677.912 0 0 0 677.912)
(677.854 0 0 0 677.854 0 0 0 677.854)
(677.782 0 0 0 677.782 0 0 0 677.782)
(677.694 0 0 0 677.694 0 0 0 677.694)
(677.588 0 0 0 677.588 0 0 0 677.588)
(677.465 0 0 0 677.465 0 0 0 677.465)
(677.327 0 0 0 677.327 0 0 0 677.327)
(677.18 0 0 0 677.18 0 0 0 677.18)
(677.03 0 0 0 677.03 0 0 0 677.03)
(676.883 0 0 0 676.883 0 0 0 676.883)
(676.735 0 0 0 676.735 0 0 0 676.735)
(676.574 0 0 0 676.574 0 0 0 676.574)
(676.384 0 0 0 676.384 0 0 0 676.384)
(676.159 0 0 0 676.159 0 0 0 676.159)
(675.957 0 0 0 675.957 0 0 0 675.957)
(675.97 0 0 0 675.97 0 0 0 675.97)
(676.772 0 0 0 676.772 0 0 0 676.772)
(679.726 0 0 0 679.726 0 0 0 679.726)
(687.2 0 0 0 687.2 0 0 0 687.2)
(692.341 0 0 0 692.341 0 0 0 692.341)
(678.575 0 0 0 678.575 0 0 0 678.575)
(678.034 0 0 0 678.034 0 0 0 678.034)
(678.018 0 0 0 678.018 0 0 0 678.018)
(677.992 0 0 0 677.992 0 0 0 677.992)
(677.958 0 0 0 677.958 0 0 0 677.958)
(677.912 0 0 0 677.912 0 0 0 677.912)
(677.854 0 0 0 677.854 0 0 0 677.854)
(677.782 0 0 0 677.782 0 0 0 677.782)
(677.694 0 0 0 677.694 0 0 0 677.694)
(677.588 0 0 0 677.588 0 0 0 677.588)
(677.465 0 0 0 677.465 0 0 0 677.465)
(677.327 0 0 0 677.327 0 0 0 677.327)
(677.18 0 0 0 677.18 0 0 0 677.18)
(677.03 0 0 0 677.03 0 0 0 677.03)
(676.882 0 0 0 676.882 0 0 0 676.882)
(676.735 0 0 0 676.735 0 0 0 676.735)
(676.574 0 0 0 676.574 0 0 0 676.574)
(676.384 0 0 0 676.384 0 0 0 676.384)
(676.159 0 0 0 676.159 0 0 0 676.159)
(675.957 0 0 0 675.957 0 0 0 675.957)
(675.97 0 0 0 675.97 0 0 0 675.97)
(676.772 0 0 0 676.772 0 0 0 676.772)
(679.726 0 0 0 679.726 0 0 0 679.726)
(687.2 0 0 0 687.2 0 0 0 687.2)
(692.341 0 0 0 692.341 0 0 0 692.341)
(682.838 0 0 0 682.838 0 0 0 682.838)
(682.345 0 0 0 682.345 0 0 0 682.345)
(682.361 0 0 0 682.361 0 0 0 682.361)
(682.367 0 0 0 682.367 0 0 0 682.367)
(682.36 0 0 0 682.36 0 0 0 682.36)
(682.341 0 0 0 682.341 0 0 0 682.341)
(682.307 0 0 0 682.307 0 0 0 682.307)
(682.257 0 0 0 682.257 0 0 0 682.257)
(682.188 0 0 0 682.188 0 0 0 682.188)
(682.099 0 0 0 682.099 0 0 0 682.099)
(681.988 0 0 0 681.988 0 0 0 681.988)
(681.854 0 0 0 681.854 0 0 0 681.854)
(681.697 0 0 0 681.697 0 0 0 681.697)
(681.514 0 0 0 681.514 0 0 0 681.514)
(681.302 0 0 0 681.302 0 0 0 681.302)
(681.049 0 0 0 681.049 0 0 0 681.049)
(680.739 0 0 0 680.739 0 0 0 680.739)
(680.352 0 0 0 680.352 0 0 0 680.352)
(679.884 0 0 0 679.884 0 0 0 679.884)
(679.386 0 0 0 679.386 0 0 0 679.386)
(679.038 0 0 0 679.038 0 0 0 679.038)
(679.384 0 0 0 679.384 0 0 0 679.384)
(681.739 0 0 0 681.739 0 0 0 681.739)
(688.432 0 0 0 688.432 0 0 0 688.432)
(692.719 0 0 0 692.719 0 0 0 692.719)
(677.564 0 0 0 677.564 0 0 0 677.564)
(677.002 0 0 0 677.002 0 0 0 677.002)
(676.976 0 0 0 676.976 0 0 0 676.976)
(676.939 0 0 0 676.939 0 0 0 676.939)
(676.894 0 0 0 676.894 0 0 0 676.894)
(676.839 0 0 0 676.839 0 0 0 676.839)
(676.772 0 0 0 676.772 0 0 0 676.772)
(676.692 0 0 0 676.692 0 0 0 676.692)
(676.596 0 0 0 676.596 0 0 0 676.596)
(676.483 0 0 0 676.483 0 0 0 676.483)
(676.353 0 0 0 676.353 0 0 0 676.353)
(676.211 0 0 0 676.211 0 0 0 676.211)
(676.062 0 0 0 676.062 0 0 0 676.062)
(675.917 0 0 0 675.917 0 0 0 675.917)
(675.781 0 0 0 675.781 0 0 0 675.781)
(675.655 0 0 0 675.655 0 0 0 675.655)
(675.527 0 0 0 675.527 0 0 0 675.527)
(675.381 0 0 0 675.381 0 0 0 675.381)
(675.212 0 0 0 675.212 0 0 0 675.212)
(675.078 0 0 0 675.078 0 0 0 675.078)
(675.175 0 0 0 675.175 0 0 0 675.175)
(676.083 0 0 0 676.083 0 0 0 676.083)
(679.18 0 0 0 679.18 0 0 0 679.18)
(686.844 0 0 0 686.844 0 0 0 686.844)
(692.222 0 0 0 692.222 0 0 0 692.222)
(682.083 0 0 0 682.083 0 0 0 682.083)
(681.593 0 0 0 681.593 0 0 0 681.593)
(681.605 0 0 0 681.605 0 0 0 681.605)
(681.608 0 0 0 681.608 0 0 0 681.608)
(681.599 0 0 0 681.599 0 0 0 681.599)
(681.578 0 0 0 681.578 0 0 0 681.578)
(681.543 0 0 0 681.543 0 0 0 681.543)
(681.492 0 0 0 681.492 0 0 0 681.492)
(681.423 0 0 0 681.423 0 0 0 681.423)
(681.334 0 0 0 681.334 0 0 0 681.334)
(681.225 0 0 0 681.225 0 0 0 681.225)
(681.094 0 0 0 681.094 0 0 0 681.094)
(680.942 0 0 0 680.942 0 0 0 680.942)
(680.77 0 0 0 680.77 0 0 0 680.77)
(680.575 0 0 0 680.575 0 0 0 680.575)
(680.346 0 0 0 680.346 0 0 0 680.346)
(680.067 0 0 0 680.067 0 0 0 680.067)
(679.721 0 0 0 679.721 0 0 0 679.721)
(679.302 0 0 0 679.302 0 0 0 679.302)
(678.864 0 0 0 678.864 0 0 0 678.864)
(678.588 0 0 0 678.588 0 0 0 678.588)
(679.025 0 0 0 679.025 0 0 0 679.025)
(681.494 0 0 0 681.494 0 0 0 681.494)
(688.322 0 0 0 688.322 0 0 0 688.322)
(692.702 0 0 0 692.702 0 0 0 692.702)
(678.575 0 0 0 678.575 0 0 0 678.575)
(678.034 0 0 0 678.034 0 0 0 678.034)
(678.018 0 0 0 678.018 0 0 0 678.018)
(677.992 0 0 0 677.992 0 0 0 677.992)
(677.958 0 0 0 677.958 0 0 0 677.958)
(677.912 0 0 0 677.912 0 0 0 677.912)
(677.854 0 0 0 677.854 0 0 0 677.854)
(677.782 0 0 0 677.782 0 0 0 677.782)
(677.694 0 0 0 677.694 0 0 0 677.694)
(677.588 0 0 0 677.588 0 0 0 677.588)
(677.465 0 0 0 677.465 0 0 0 677.465)
(677.327 0 0 0 677.327 0 0 0 677.327)
(677.18 0 0 0 677.18 0 0 0 677.18)
(677.03 0 0 0 677.03 0 0 0 677.03)
(676.882 0 0 0 676.882 0 0 0 676.882)
(676.735 0 0 0 676.735 0 0 0 676.735)
(676.574 0 0 0 676.574 0 0 0 676.574)
(676.384 0 0 0 676.384 0 0 0 676.384)
(676.159 0 0 0 676.159 0 0 0 676.159)
(675.957 0 0 0 675.957 0 0 0 675.957)
(675.97 0 0 0 675.97 0 0 0 675.97)
(676.772 0 0 0 676.772 0 0 0 676.772)
(679.727 0 0 0 679.727 0 0 0 679.727)
(687.201 0 0 0 687.201 0 0 0 687.201)
(692.341 0 0 0 692.341 0 0 0 692.341)
(682.838 0 0 0 682.838 0 0 0 682.838)
(682.345 0 0 0 682.345 0 0 0 682.345)
(682.361 0 0 0 682.361 0 0 0 682.361)
(682.367 0 0 0 682.367 0 0 0 682.367)
(682.36 0 0 0 682.36 0 0 0 682.36)
(682.341 0 0 0 682.341 0 0 0 682.341)
(682.307 0 0 0 682.307 0 0 0 682.307)
(682.257 0 0 0 682.257 0 0 0 682.257)
(682.188 0 0 0 682.188 0 0 0 682.188)
(682.1 0 0 0 682.1 0 0 0 682.1)
(681.989 0 0 0 681.989 0 0 0 681.989)
(681.855 0 0 0 681.855 0 0 0 681.855)
(681.697 0 0 0 681.697 0 0 0 681.697)
(681.515 0 0 0 681.515 0 0 0 681.515)
(681.303 0 0 0 681.303 0 0 0 681.303)
(681.05 0 0 0 681.05 0 0 0 681.05)
(680.74 0 0 0 680.74 0 0 0 680.74)
(680.353 0 0 0 680.353 0 0 0 680.353)
(679.885 0 0 0 679.885 0 0 0 679.885)
(679.387 0 0 0 679.387 0 0 0 679.387)
(679.039 0 0 0 679.039 0 0 0 679.039)
(679.386 0 0 0 679.386 0 0 0 679.386)
(681.741 0 0 0 681.741 0 0 0 681.741)
(688.434 0 0 0 688.434 0 0 0 688.434)
(692.72 0 0 0 692.72 0 0 0 692.72)
(682.838 0 0 0 682.838 0 0 0 682.838)
(682.345 0 0 0 682.345 0 0 0 682.345)
(682.361 0 0 0 682.361 0 0 0 682.361)
(682.367 0 0 0 682.367 0 0 0 682.367)
(682.36 0 0 0 682.36 0 0 0 682.36)
(682.341 0 0 0 682.341 0 0 0 682.341)
(682.307 0 0 0 682.307 0 0 0 682.307)
(682.257 0 0 0 682.257 0 0 0 682.257)
(682.188 0 0 0 682.188 0 0 0 682.188)
(682.099 0 0 0 682.099 0 0 0 682.099)
(681.988 0 0 0 681.988 0 0 0 681.988)
(681.854 0 0 0 681.854 0 0 0 681.854)
(681.697 0 0 0 681.697 0 0 0 681.697)
(681.514 0 0 0 681.514 0 0 0 681.514)
(681.302 0 0 0 681.302 0 0 0 681.302)
(681.049 0 0 0 681.049 0 0 0 681.049)
(680.739 0 0 0 680.739 0 0 0 680.739)
(680.352 0 0 0 680.352 0 0 0 680.352)
(679.883 0 0 0 679.883 0 0 0 679.883)
(679.386 0 0 0 679.386 0 0 0 679.386)
(679.038 0 0 0 679.038 0 0 0 679.038)
(679.384 0 0 0 679.384 0 0 0 679.384)
(681.739 0 0 0 681.739 0 0 0 681.739)
(688.432 0 0 0 688.432 0 0 0 688.432)
(692.719 0 0 0 692.719 0 0 0 692.719)
(678.575 0 0 0 678.575 0 0 0 678.575)
(678.034 0 0 0 678.034 0 0 0 678.034)
(678.018 0 0 0 678.018 0 0 0 678.018)
(677.992 0 0 0 677.992 0 0 0 677.992)
(677.958 0 0 0 677.958 0 0 0 677.958)
(677.912 0 0 0 677.912 0 0 0 677.912)
(677.854 0 0 0 677.854 0 0 0 677.854)
(677.782 0 0 0 677.782 0 0 0 677.782)
(677.694 0 0 0 677.694 0 0 0 677.694)
(677.588 0 0 0 677.588 0 0 0 677.588)
(677.465 0 0 0 677.465 0 0 0 677.465)
(677.327 0 0 0 677.327 0 0 0 677.327)
(677.18 0 0 0 677.18 0 0 0 677.18)
(677.03 0 0 0 677.03 0 0 0 677.03)
(676.882 0 0 0 676.882 0 0 0 676.882)
(676.735 0 0 0 676.735 0 0 0 676.735)
(676.574 0 0 0 676.574 0 0 0 676.574)
(676.384 0 0 0 676.384 0 0 0 676.384)
(676.159 0 0 0 676.159 0 0 0 676.159)
(675.957 0 0 0 675.957 0 0 0 675.957)
(675.969 0 0 0 675.969 0 0 0 675.969)
(676.772 0 0 0 676.772 0 0 0 676.772)
(679.726 0 0 0 679.726 0 0 0 679.726)
(687.201 0 0 0 687.201 0 0 0 687.201)
(692.341 0 0 0 692.341 0 0 0 692.341)
)
;

boundaryField
{
    outletCentralUnloaded
    {
        type            zeroGradient;
    }
    inletCentralUnloaded
    {
        type            zeroGradient;
    }
    outletFuelElement
    {
        type            zeroGradient;
    }
    inletFuelElement
    {
        type            zeroGradient;
    }
    defaultFaces
    {
        type            zeroGradient;
    }
    baffle_master
    {
        type            zeroGradient;
    }
    baffle_slave
    {
        type            zeroGradient;
    }
}


// ************************************************************************* //
