/*--------------------------------*- C++ -*----------------------------------*\
| =========                 |                                                 |
| \\      /  F ield         | OpenFOAM: The Open Source CFD Toolbox           |
|  \\    /   O peration     | Version:  2212                                  |
|   \\  /    A nd           | Website:  www.openfoam.com                      |
|    \\/     M anipulation  |                                                 |
\*---------------------------------------------------------------------------*/
FoamFile
{
    version     2.0;
    format      ascii;
    arch        "LSB;label=32;scalar=64";
    class       volScalarField;
    location    "39/fluidRegion";
    object      Re;
}
// * * * * * * * * * * * * * * * * * * * * * * * * * * * * * * * * * * * * * //

dimensions      [0 0 0 0 0 0 0];

internalField   nonuniform List<scalar> 
350
(
174020
174020
174019
174019
174019
174020
174021
174023
174025
174027
174030
174032
174034
174036
174037
174039
174039
174039
174039
174038
174037
174035
174033
174031
174392
174020
174020
174019
174019
174019
174020
174021
174023
174025
174027
174030
174032
174034
174036
174037
174039
174039
174039
174039
174038
174037
174035
174033
174031
174392
55370.2
55317.2
55318.6
55318.9
55317.9
55315.6
55311.8
55306.2
55298.8
55289.2
55277.4
55263.2
55246.8
55228.2
55207
55182.3
55152.2
55114.8
55069.4
55022.1
54992.3
55039.5
55306.6
56046.6
56522.6
54881.6
54821
54818.1
54814.2
54809.3
54803.4
54796.2
54787.5
54777.1
54764.9
54750.9
54735.6
54719.5
54703.8
54689.2
54675.6
54661.8
54646.1
54627.8
54613.4
54623.8
54721.8
55056.2
55886.2
56470.3
55452
55398.6
55400.4
55401
55400.3
55398.2
55394.5
55389.1
55381.6
55372
55360
55345.5
55328.5
55308.7
55285.8
55258.5
55224.9
55183.1
55132.4
55078.6
55041
55078.5
55333.2
56058.7
56524.5
54990.9
54932.4
54930.7
54927.9
54924.2
54919.3
54913
54905.2
54895.7
54884.3
54871
54856.1
54840.2
54824
54808.1
54792.1
54774.8
54754.3
54730
54708.2
54709.5
54796.1
55115.3
55924.8
56483.3
54990.9
54932.4
54930.7
54927.9
54924.2
54919.3
54913
54905.2
54895.7
54884.3
54871
54856.1
54840.2
54824
54808.1
54792.1
54774.8
54754.3
54730
54708.2
54709.5
54796.1
55115.3
55924.8
56483.3
55452
55398.6
55400.4
55401
55400.3
55398.1
55394.5
55389
55381.6
55372
55360
55345.5
55328.4
55308.7
55285.7
55258.4
55224.8
55183
55132.3
55078.5
55040.9
55078.3
55333
56058.5
56524.4
54881.6
54821
54818.1
54814.2
54809.3
54803.4
54796.2
54787.5
54777.1
54764.9
54750.9
54735.6
54719.5
54703.8
54689.2
54675.6
54661.8
54646.1
54627.8
54613.4
54623.8
54721.8
55056.2
55886.2
56470.3
55370.2
55317.2
55318.6
55318.9
55317.9
55315.6
55311.8
55306.2
55298.8
55289.2
55277.4
55263.2
55246.8
55228.2
55207
55182.3
55152.2
55114.8
55069.4
55022.1
54992.3
55039.5
55306.5
56046.6
56522.6
54990.9
54932.4
54930.7
54927.9
54924.2
54919.3
54913
54905.2
54895.7
54884.3
54871
54856.1
54840.2
54824
54808.1
54792.1
54774.8
54754.3
54730
54708.2
54709.5
54796.2
55115.3
55924.9
56483.4
55452
55398.6
55400.4
55401
55400.3
55398.2
55394.5
55389.1
55381.6
55372
55360
55345.5
55328.5
55308.7
55285.8
55258.5
55224.9
55183.1
55132.4
55078.7
55041
55078.5
55333.2
56058.7
56524.5
55452
55398.6
55400.4
55401
55400.3
55398.1
55394.5
55389
55381.6
55372
55360
55345.5
55328.4
55308.7
55285.7
55258.4
55224.8
55183
55132.3
55078.5
55040.9
55078.3
55333
56058.5
56524.4
54990.9
54932.4
54930.7
54927.9
54924.2
54919.3
54913
54905.2
54895.7
54884.3
54871
54856.1
54840.2
54824
54808.1
54792.1
54774.8
54754.3
54730
54708.1
54709.5
54796.1
55115.3
55924.9
56483.4
)
;

boundaryField
{
    outletCentralUnloaded
    {
        type            zeroGradient;
    }
    inletCentralUnloaded
    {
        type            zeroGradient;
    }
    outletFuelElement
    {
        type            zeroGradient;
    }
    inletFuelElement
    {
        type            zeroGradient;
    }
    defaultFaces
    {
        type            zeroGradient;
    }
    baffle_master
    {
        type            zeroGradient;
    }
    baffle_slave
    {
        type            zeroGradient;
    }
}


// ************************************************************************* //
