/*--------------------------------*- C++ -*----------------------------------*\
| =========                 |                                                 |
| \\      /  F ield         | OpenFOAM: The Open Source CFD Toolbox           |
|  \\    /   O peration     | Version:  2212                                  |
|   \\  /    A nd           | Website:  www.openfoam.com                      |
|    \\/     M anipulation  |                                                 |
\*---------------------------------------------------------------------------*/
FoamFile
{
    version     2.0;
    format      ascii;
    arch        "LSB;label=32;scalar=64";
    class       volScalarField;
    location    "39/fluidRegion";
    object      T.fuelAvForNeutronics;
}
// * * * * * * * * * * * * * * * * * * * * * * * * * * * * * * * * * * * * * //

dimensions      [0 0 0 1 0 0 0];

internalField   nonuniform List<scalar> 
350
(
0
0
0
0
0
0
0
0
0
0
0
0
0
0
0
0
0
0
0
0
0
0
0
0
0
0
0
0
0
0
0
0
0
0
0
0
0
0
0
0
0
0
0
0
0
0
0
0
0
0
2179.03
2964.58
3719.62
4432.63
5092.72
5689.75
6214.54
6658.99
7016.26
7280.81
7448.55
7516.91
7484.87
7353.01
7123.48
6799.94
6387.41
5891.96
5320.29
4679.18
3974.33
3209.26
2384.05
1498.51
566.064
2210.78
3005.52
3769.32
4490.53
5158.14
5761.89
6292.49
6741.76
7102.78
7369.95
7539.14
7607.75
7574.76
7440.74
7207.89
6879.93
6461.96
5960.16
5381.37
4732.49
4019.31
3245.38
2410.68
1514.89
571.562
2173.88
2957.99
3711.65
4423.37
5082.28
5678.26
6202.14
6645.84
7002.53
7266.67
7434.19
7502.52
7470.64
7339.13
7110.12
6787.29
6375.62
5881.18
5310.64
4670.76
3967.24
3203.58
2379.87
1495.95
565.197
2203.62
2996.23
3757.99
4477.31
5143.17
5745.35
6274.61
6722.76
7082.9
7349.46
7518.31
7586.85
7554.07
7420.54
7188.45
6861.5
6444.78
5944.45
5367.3
4720.21
4008.94
3237.06
2404.54
1511.11
570.295
2203.62
2996.23
3757.99
4477.31
5143.17
5745.35
6274.61
6722.76
7082.9
7349.46
7518.31
7586.85
7554.07
7420.54
7188.45
6861.5
6444.78
5944.45
5367.3
4720.21
4008.94
3237.06
2404.54
1511.11
570.295
2173.88
2957.99
3711.65
4423.38
5082.28
5678.26
6202.14
6645.85
7002.53
7266.67
7434.2
7502.52
7470.64
7339.13
7110.12
6787.29
6375.62
5881.18
5310.64
4670.76
3967.24
3203.58
2379.87
1495.95
565.197
2210.78
3005.52
3769.32
4490.54
5158.14
5761.89
6292.49
6741.76
7102.78
7369.95
7539.14
7607.75
7574.75
7440.74
7207.89
6879.93
6461.96
5960.16
5381.37
4732.49
4019.31
3245.38
2410.68
1514.89
571.562
2179.03
2964.58
3719.62
4432.63
5092.72
5689.75
6214.54
6658.99
7016.26
7280.81
7448.55
7516.91
7484.87
7353.01
7123.48
6799.94
6387.41
5891.96
5320.29
4679.18
3974.33
3209.26
2384.05
1498.51
566.064
2203.62
2996.23
3757.99
4477.31
5143.17
5745.35
6274.61
6722.76
7082.9
7349.46
7518.31
7586.85
7554.07
7420.54
7188.45
6861.5
6444.78
5944.45
5367.3
4720.21
4008.94
3237.06
2404.54
1511.11
570.295
2173.88
2957.99
3711.65
4423.37
5082.28
5678.26
6202.14
6645.84
7002.53
7266.67
7434.19
7502.52
7470.64
7339.12
7110.12
6787.29
6375.62
5881.18
5310.64
4670.76
3967.23
3203.58
2379.87
1495.95
565.197
2173.88
2957.99
3711.65
4423.38
5082.28
5678.26
6202.14
6645.85
7002.53
7266.67
7434.2
7502.52
7470.64
7339.13
7110.12
6787.29
6375.62
5881.18
5310.64
4670.76
3967.24
3203.58
2379.87
1495.95
565.197
2203.62
2996.23
3757.99
4477.31
5143.17
5745.35
6274.61
6722.76
7082.9
7349.46
7518.31
7586.85
7554.07
7420.54
7188.45
6861.5
6444.78
5944.45
5367.3
4720.21
4008.94
3237.06
2404.54
1511.11
570.295
)
;

boundaryField
{
    outletCentralUnloaded
    {
        type            zeroGradient;
    }
    inletCentralUnloaded
    {
        type            zeroGradient;
    }
    outletFuelElement
    {
        type            zeroGradient;
    }
    inletFuelElement
    {
        type            zeroGradient;
    }
    defaultFaces
    {
        type            zeroGradient;
    }
    baffle_master
    {
        type            zeroGradient;
    }
    baffle_slave
    {
        type            zeroGradient;
    }
}


// ************************************************************************* //
