/*--------------------------------*- C++ -*----------------------------------*\
| =========                 |                                                 |
| \\      /  F ield         | OpenFOAM: The Open Source CFD Toolbox           |
|  \\    /   O peration     | Version:  2212                                  |
|   \\  /    A nd           | Website:  www.openfoam.com                      |
|    \\/     M anipulation  |                                                 |
\*---------------------------------------------------------------------------*/
FoamFile
{
    version     2.0;
    format      ascii;
    arch        "LSB;label=32;scalar=64";
    class       volScalarField;
    location    "39/fluidRegion";
    object      Tco.nuclearFuelPin;
}
// * * * * * * * * * * * * * * * * * * * * * * * * * * * * * * * * * * * * * //

dimensions      [0 0 0 1 0 0 0];

internalField   nonuniform List<scalar> 
350
(
0
0
0
0
0
0
0
0
0
0
0
0
0
0
0
0
0
0
0
0
0
0
0
0
0
0
0
0
0
0
0
0
0
0
0
0
0
0
0
0
0
0
0
0
0
0
0
0
0
0
1829
1856.33
1870.97
1873.11
1863.03
1841.16
1808.08
1764.48
1711.19
1649.14
1579.39
1503.1
1421.52
1336
1247.95
1158.82
1069.92
982.224
896.034
810.396
722.263
625.225
508.508
360.119
181.616
1857.1
1884.92
1899.84
1902.03
1891.78
1869.53
1835.86
1791.47
1737.21
1674.02
1602.99
1525.27
1442.15
1354.99
1265.23
1174.34
1083.68
994.297
906.528
819.464
730.053
631.803
513.721
363.516
182.765
1824.43
1851.7
1866.32
1868.47
1858.43
1836.65
1803.67
1760.21
1707.09
1645.24
1575.7
1499.65
1418.32
1333.06
1245.29
1156.44
1067.81
980.383
894.44
809.024
721.092
624.248
507.745
359.626
181.441
1850.78
1878.48
1893.32
1895.48
1885.25
1863.08
1829.53
1785.31
1731.26
1668.32
1597.58
1520.18
1437.41
1350.62
1261.25
1170.76
1080.5
991.506
904.101
817.366
728.25
630.279
512.512
362.728
182.499
1850.78
1878.48
1893.32
1895.48
1885.25
1863.08
1829.53
1785.31
1731.26
1668.32
1597.58
1520.18
1437.41
1350.62
1261.25
1170.76
1080.5
991.506
904.101
817.366
728.25
630.279
512.512
362.728
182.499
1824.43
1851.7
1866.32
1868.47
1858.43
1836.65
1803.67
1760.22
1707.09
1645.24
1575.71
1499.65
1418.32
1333.06
1245.29
1156.44
1067.81
980.384
894.44
809.025
721.093
624.249
507.746
359.627
181.441
1857.1
1884.92
1899.84
1902.03
1891.78
1869.53
1835.86
1791.47
1737.21
1674.02
1602.99
1525.27
1442.15
1354.99
1265.23
1174.34
1083.68
994.297
906.528
819.464
730.053
631.803
513.721
363.516
182.765
1829
1856.33
1870.97
1873.11
1863.03
1841.16
1808.08
1764.48
1711.19
1649.14
1579.39
1503.1
1421.52
1336
1247.95
1158.82
1069.92
982.224
896.034
810.396
722.263
625.226
508.509
360.119
181.616
1850.78
1878.48
1893.32
1895.48
1885.25
1863.08
1829.53
1785.31
1731.26
1668.32
1597.58
1520.18
1437.41
1350.62
1261.25
1170.76
1080.5
991.506
904.101
817.366
728.25
630.279
512.512
362.728
182.499
1824.43
1851.7
1866.32
1868.47
1858.43
1836.65
1803.67
1760.21
1707.09
1645.24
1575.7
1499.65
1418.32
1333.06
1245.29
1156.44
1067.81
980.383
894.439
809.024
721.092
624.248
507.745
359.626
181.441
1824.43
1851.7
1866.32
1868.47
1858.43
1836.65
1803.67
1760.22
1707.09
1645.24
1575.71
1499.65
1418.32
1333.06
1245.29
1156.44
1067.81
980.384
894.44
809.025
721.093
624.249
507.746
359.627
181.441
1850.78
1878.48
1893.32
1895.48
1885.25
1863.08
1829.53
1785.31
1731.26
1668.32
1597.58
1520.18
1437.41
1350.62
1261.25
1170.76
1080.5
991.506
904.101
817.366
728.25
630.279
512.512
362.727
182.499
)
;

boundaryField
{
    outletCentralUnloaded
    {
        type            zeroGradient;
    }
    inletCentralUnloaded
    {
        type            zeroGradient;
    }
    outletFuelElement
    {
        type            zeroGradient;
    }
    inletFuelElement
    {
        type            zeroGradient;
    }
    defaultFaces
    {
        type            zeroGradient;
    }
    baffle_master
    {
        type            zeroGradient;
    }
    baffle_slave
    {
        type            zeroGradient;
    }
}


// ************************************************************************* //
