/*--------------------------------*- C++ -*----------------------------------*\
| =========                 |                                                 |
| \\      /  F ield         | OpenFOAM: The Open Source CFD Toolbox           |
|  \\    /   O peration     | Version:  2212                                  |
|   \\  /    A nd           | Website:  www.openfoam.com                      |
|    \\/     M anipulation  |                                                 |
\*---------------------------------------------------------------------------*/
FoamFile
{
    version     2.0;
    format      ascii;
    arch        "LSB;label=32;scalar=64";
    class       volScalarField;
    location    "39/fluidRegion";
    object      Tfi.nuclearFuelPin;
}
// * * * * * * * * * * * * * * * * * * * * * * * * * * * * * * * * * * * * * //

dimensions      [0 0 0 1 0 0 0];

internalField   nonuniform List<scalar> 
350
(
0
0
0
0
0
0
0
0
0
0
0
0
0
0
0
0
0
0
0
0
0
0
0
0
0
0
0
0
0
0
0
0
0
0
0
0
0
0
0
0
0
0
0
0
0
0
0
0
0
0
2360.3
3545.77
4691.32
5779.31
6792.91
7716.44
8535.56
9237.55
9811.48
10248.4
10541.6
10686.4
10680.7
10524.5
10220.6
9773.58
9190.55
8480.22
7652.66
6718.74
5688.77
4571.54
3372.85
2098.84
769.169
2393.9
3593.14
4751.93
5852.42
6877.61
7811.6
8639.91
9349.67
9929.85
10371.4
10667.4
10813.4
10807
10648.5
10340.3
9887.54
9297.12
8578
7740.4
6795.36
5753.34
4623.22
3410.77
2122.06
776.958
2354.86
3538.15
4681.61
5767.62
6779.41
7701.29
8518.96
9219.72
9792.67
10228.9
10521.6
10666.2
10660.6
10504.9
10201.6
9755.52
9173.66
8464.73
7638.77
6706.61
5678.56
4563.37
3366.88
2095.19
767.937
2386.31
3582.36
4738.09
5835.69
6858.2
7789.77
8615.95
9323.91
9902.64
10343.1
10638.5
10784.2
10777.9
10619.9
10312.8
9861.3
9272.58
8555.48
7720.2
6777.71
5738.47
4611.31
3402.04
2116.71
775.164
2386.31
3582.36
4738.09
5835.69
6858.2
7789.77
8615.95
9323.91
9902.64
10343.1
10638.5
10784.2
10777.9
10619.9
10312.8
9861.3
9272.58
8555.48
7720.2
6777.71
5738.47
4611.31
3402.04
2116.71
775.164
2354.86
3538.15
4681.61
5767.63
6779.41
7701.29
8518.96
9219.72
9792.67
10228.9
10521.6
10666.2
10660.6
10504.9
10201.6
9755.52
9173.66
8464.73
7638.77
6706.61
5678.55
4563.38
3366.88
2095.19
767.937
2393.9
3593.14
4751.93
5852.43
6877.61
7811.6
8639.91
9349.67
9929.85
10371.4
10667.4
10813.4
10807
10648.5
10340.3
9887.54
9297.12
8578
7740.4
6795.36
5753.34
4623.22
3410.77
2122.06
776.958
2360.3
3545.77
4691.32
5779.31
6792.91
7716.44
8535.56
9237.54
9811.48
10248.4
10541.6
10686.4
10680.7
10524.5
10220.6
9773.58
9190.55
8480.22
7652.66
6718.74
5688.77
4571.54
3372.86
2098.84
769.169
2386.31
3582.36
4738.09
5835.69
6858.2
7789.77
8615.95
9323.91
9902.64
10343.1
10638.5
10784.2
10777.9
10619.9
10312.8
9861.3
9272.58
8555.48
7720.2
6777.71
5738.47
4611.31
3402.04
2116.71
775.164
2354.86
3538.15
4681.61
5767.63
6779.41
7701.29
8518.96
9219.72
9792.67
10228.9
10521.6
10666.2
10660.6
10504.9
10201.6
9755.52
9173.66
8464.73
7638.77
6706.61
5678.55
4563.37
3366.88
2095.19
767.937
2354.86
3538.15
4681.61
5767.63
6779.41
7701.29
8518.96
9219.72
9792.67
10228.9
10521.6
10666.2
10660.6
10504.9
10201.6
9755.52
9173.66
8464.73
7638.77
6706.61
5678.55
4563.38
3366.88
2095.19
767.937
2386.31
3582.36
4738.09
5835.69
6858.2
7789.77
8615.95
9323.91
9902.64
10343.1
10638.5
10784.2
10777.9
10619.9
10312.8
9861.3
9272.58
8555.48
7720.2
6777.71
5738.47
4611.31
3402.04
2116.71
775.164
)
;

boundaryField
{
    outletCentralUnloaded
    {
        type            zeroGradient;
    }
    inletCentralUnloaded
    {
        type            zeroGradient;
    }
    outletFuelElement
    {
        type            zeroGradient;
    }
    inletFuelElement
    {
        type            zeroGradient;
    }
    defaultFaces
    {
        type            zeroGradient;
    }
    baffle_master
    {
        type            zeroGradient;
    }
    baffle_slave
    {
        type            zeroGradient;
    }
}


// ************************************************************************* //
