/*--------------------------------*- C++ -*----------------------------------*\
| =========                 |                                                 |
| \\      /  F ield         | OpenFOAM: The Open Source CFD Toolbox           |
|  \\    /   O peration     | Version:  2212                                  |
|   \\  /    A nd           | Website:  www.openfoam.com                      |
|    \\/     M anipulation  |                                                 |
\*---------------------------------------------------------------------------*/
FoamFile
{
    version     2.0;
    format      ascii;
    arch        "LSB;label=32;scalar=64";
    class       scalarFieldField;
    location    "39/fluidRegion";
    object      Trad.nuclearFuelPin;
}
// * * * * * * * * * * * * * * * * * * * * * * * * * * * * * * * * * * * * * //


350
(
0()
0()
0()
0()
0()
0()
0()
0()
0()
0()
0()
0()
0()
0()
0()
0()
0()
0()
0()
0()
0()
0()
0()
0()
0()
0()
0()
0()
0()
0()
0()
0()
0()
0()
0()
0()
0()
0()
0()
0()
0()
0()
0()
0()
0()
0()
0()
0()
0()
0()

20
(
2360.3
2358.72
2353.97
2346.06
2334.96
2320.67
2303.17
2282.44
2258.46
2231.2
2200.62
2166.71
2129.43
2088.73
2044.59
1996.96
1839.84
1836.11
1832.5
1829
)


20
(
3545.77
3540.65
3525.29
3499.69
3463.84
3417.71
3361.3
3294.58
3217.52
3130.09
3032.27
2924.01
2805.28
2676.05
2536.26
2385.89
1890.56
1878.78
1867.37
1856.33
)


20
(
4691.32
4682.75
4657.03
4614.16
4554.13
4476.92
4382.5
4270.87
4141.98
3995.8
3832.3
3651.45
3453.2
3237.5
3004.32
2753.61
1928.06
1908.4
1889.39
1870.97
)


20
(
5779.31
5767.42
5731.75
5672.3
5589.05
5481.99
5351.09
5196.33
5017.67
4815.08
4588.52
4337.96
4063.35
3764.64
3441.79
3094.75
1952.13
1924.92
1898.6
1873.11
)


20
(
6792.91
6777.9
6732.85
6657.77
6552.63
6417.43
6252.12
6056.7
5831.12
5575.35
5289.34
4973.06
4626.46
4249.49
3842.11
3404.25
1962.73
1928.4
1895.19
1863.03
)


20
(
7716.44
7698.54
7644.83
7555.31
7429.95
7268.75
7071.68
6838.7
6569.78
6264.89
5923.98
5547.01
5133.93
4684.69
4199.23
3677.51
1959.96
1919.06
1879.48
1841.16
)


20
(
8535.56
8515.06
8453.54
8351
8207.42
8022.78
7797.06
7530.23
7222.25
6873.08
6482.67
6050.99
5577.98
5063.59
4507.76
3910.44
1944.09
1897.26
1851.95
1808.08
)


20
(
9237.55
9214.76
9146.41
9032.48
8872.95
8667.81
8417.03
8120.57
7778.41
7390.5
6956.79
6477.24
5951.79
5380.4
4763.01
4099.56
1915.55
1863.54
1813.21
1764.48
)


20
(
9811.48
9786.78
9712.68
9589.16
9416.21
9193.82
8921.95
8600.57
8229.65
7809.14
7339
6819.17
6249.62
5630.28
4961.1
4242.02
1874.93
1818.55
1764.01
1711.19
)


20
(
10248.4
10222.2
10143.5
10012.4
9828.75
9592.63
9303.98
8962.77
8568.96
8122.51
7623.38
7071.52
6466.88
5809.39
5099.01
4335.69
1822.96
1763.11
1705.21
1649.14
)


20
(
10541.6
10514.2
10432.2
10295.5
10104.1
9858.03
9557.17
9201.53
8791.08
8325.77
7805.55
7230.38
6600.21
5914.99
5174.65
4379.15
1760.54
1698.17
1637.83
1579.39
)


20
(
10686.4
10658.4
10574.3
10434.3
10238.1
9985.92
9677.62
9313.18
8892.57
8415.76
7882.69
7293.32
6647.59
5945.47
5186.89
4371.79
1688.71
1624.8
1562.97
1503.1
)


20
(
10680.7
10652.4
10567.7
10426.4
10228.7
9974.35
9663.47
9296
8871.9
8391.13
7853.64
7259.39
6608.33
5900.41
5135.58
4313.78
1608.65
1544.22
1481.89
1421.52
)


20
(
10524.5
10496.5
10412.4
10272.2
10075.9
9823.56
9515.04
9150.36
8729.47
8252.35
7718.94
7129.22
6483.12
5780.6
5021.61
4206.1
1521.7
1457.76
1395.9
1336
)


20
(
10220.6
10193.2
10111.1
9974.16
9782.49
9536.02
9234.74
8878.61
8467.6
8001.67
7480.79
6904.92
6274
5587.99
4846.85
4050.53
1429.29
1366.85
1306.45
1247.95
)


20
(
9773.58
9747.3
9668.44
9537
9352.96
9116.31
8827.03
8485.09
8090.46
7643.1
7142.99
6590.07
5984.32
5325.67
4614.1
3849.55
1332.92
1272.97
1214.98
1158.82
)


20
(
9190.55
9165.77
9091.43
8967.52
8794.04
8570.95
8298.25
7975.92
7603.91
7182.21
6710.77
6189.56
5618.55
4997.69
4326.93
3606.25
1234.02
1177.52
1122.85
1069.92
)


20
(
8480.22
8457.34
8388.7
8274.29
8114.1
7908.11
7656.31
7358.68
7015.19
6625.82
6190.52
5709.27
5182.04
4608.78
3989.46
3324.05
1133.75
1081.58
1031.1
982.224
)


20
(
7652.66
7632.05
7570.19
7467.09
7322.73
7137.11
6910.21
6642
6332.47
5981.59
5589.33
5155.66
4680.55
4163.98
3605.9
3006.28
1032.57
985.561
940.08
896.034
)


20
(
6718.74
6700.71
6646.62
6556.46
6430.23
6267.91
6069.49
5834.95
5564.28
5257.45
4914.43
4535.21
4119.76
3668.04
3180.02
2655.69
929.793
888.682
848.912
810.396
)


20
(
5688.77
5673.62
5628.15
5552.36
5446.25
5309.8
5143.01
4945.86
4718.34
4460.42
4172.08
3853.31
3504.08
3124.37
2714.15
2273.4
822.627
788.07
754.639
722.263
)


20
(
4571.54
4559.49
4523.37
4463.15
4378.83
4270.41
4137.88
3981.23
3800.44
3595.5
3366.39
3113.1
2835.61
2533.9
2207.94
1857.73
704.972
677.514
650.95
625.225
)


20
(
3372.85
3364.11
3337.89
3294.18
3232.97
3154.28
3058.08
2944.37
2813.14
2664.38
2498.09
2314.24
2112.83
1893.84
1657.25
1403.07
566.388
546.459
527.179
508.508
)


20
(
2098.84
2093.54
2077.61
2051.07
2013.9
1966.12
1907.71
1838.66
1758.99
1668.67
1567.72
1456.11
1333.84
1200.91
1057.31
903.04
395.248
383.152
371.451
360.119
)


20
(
769.169
767.371
761.976
752.985
740.397
724.215
704.438
681.066
654.102
623.546
589.4
551.664
510.34
465.429
416.933
364.854
193.474
189.391
185.441
181.616
)


20
(
2393.9
2392.3
2387.51
2379.51
2368.31
2353.87
2336.2
2315.26
2291.03
2263.49
2232.6
2198.34
2160.67
2119.55
2074.95
2026.83
1868.05
1864.28
1860.63
1857.1
)


20
(
3593.14
3587.97
3572.44
3546.56
3510.31
3463.67
3406.64
3339.18
3261.27
3172.87
3073.96
2964.51
2844.46
2713.79
2572.44
2420.39
1919.54
1907.62
1896.09
1884.92
)


20
(
4751.93
4743.26
4717.26
4673.91
4613.21
4535.13
4439.66
4326.77
4196.43
4048.61
3883.28
3700.39
3499.9
3281.78
3045.97
2792.44
1957.57
1937.69
1918.47
1899.84
)


20
(
5852.42
5840.4
5804.34
5744.21
5660.03
5551.76
5419.38
5262.87
5082.19
4877.31
4648.2
4394.8
4117.08
3815
3488.49
3137.52
1981.95
1954.43
1927.81
1902.03
)


20
(
6877.61
6862.42
6816.87
6740.93
6634.61
6497.87
6330.69
6133.05
5904.92
5646.25
5357
5037.13
4686.6
4305.35
3893.34
3450.51
1992.62
1957.9
1924.31
1891.78
)


20
(
7811.6
7793.49
7739.18
7648.64
7521.86
7358.83
7159.52
6923.89
6651.93
6343.57
5998.79
5617.53
5199.76
4745.41
4254.43
3726.77
1989.68
1948.31
1908.29
1869.53
)


20
(
8639.91
8619.17
8556.95
8453.25
8308.04
8121.3
7893.02
7623.15
7311.67
6958.53
6563.68
6127.09
5648.69
5128.44
4566.29
3962.17
1973.42
1926.05
1880.23
1835.86
)


20
(
9349.67
9326.63
9257.5
9142.27
8980.93
8773.45
8519.82
8219.99
7873.93
7481.6
7042.95
6557.94
6026.51
5448.61
4824.18
4153.17
1944.27
1891.65
1840.76
1791.47
)


20
(
9929.85
9904.87
9829.92
9704.99
9530.08
9305.15
9030.19
8705.15
8330
7904.7
7429.2
6903.45
6327.41
5701.01
5024.19
4296.91
1902.82
1845.79
1790.63
1737.21
)


20
(
10371.4
10344.9
10265.3
10132.7
9946.94
9708.13
9416.19
9071.09
8672.79
8221.26
7716.44
7158.28
6546.74
5881.75
5163.27
4391.23
1849.83
1789.29
1730.73
1674.02
)


20
(
10667.4
10639.8
10556.9
10418.6
10225
9976.11
9671.82
9312.12
8896.99
8426.36
7900.22
7318.49
6681.13
5988.08
5239.29
4434.71
1786.2
1723.12
1662.09
1602.99
)


20
(
10813.4
10785.1
10700.1
10558.4
10360
10104.9
9793.11
9424.52
8999.11
8516.86
7977.7
7381.61
6728.52
6018.37
5251.13
4426.73
1713
1648.36
1585.83
1525.27
)


20
(
10807
10778.5
10692.7
10549.9
10349.9
10092.6
9778.23
9406.56
8977.62
8491.36
7947.74
7346.7
6688.21
5972.21
5198.64
4367.45
1631.43
1566.26
1503.21
1442.15
)


20
(
10648.5
10620.1
10535.1
10393.3
10194.8
9939.5
9627.46
9258.61
8832.92
8350.35
7810.85
7214.39
6560.92
5850.37
5082.72
4257.89
1542.82
1478.14
1415.58
1354.99
)


20
(
10340.3
10312.7
10229.6
10091.1
9897.27
9647.99
9343.26
8983.07
8567.36
8096.12
7569.29
6986.83
6348.71
5654.87
4905.26
4099.83
1448.64
1385.49
1324.4
1265.23
)


20
(
9887.54
9860.95
9781.19
9648.25
9462.11
9222.76
8930.18
8584.33
8185.19
7732.73
7226.9
6667.67
6054.99
5388.82
4669.11
3895.82
1350.43
1289.8
1231.14
1174.34
)


20
(
9297.12
9272.06
9196.87
9071.55
8896.08
8670.45
8394.63
8068.61
7692.36
7265.84
6789.01
6261.85
5684.31
5056.35
4377.94
3649.01
1249.67
1192.52
1137.23
1083.68
)


20
(
8578
8554.86
8485.43
8369.71
8207.69
7999.35
7744.68
7443.65
7096.24
6702.41
6262.14
5775.39
5242.13
4662.32
4035.92
3362.9
1147.55
1094.78
1043.73
994.297
)


20
(
7740.4
7719.55
7656.99
7552.71
7406.7
7218.96
6989.46
6718.19
6405.12
6050.23
5653.48
5214.86
4734.32
4211.84
3647.38
3040.91
1044.63
997.078
951.077
906.528
)


20
(
6795.36
6777.13
6722.42
6631.23
6503.55
6339.38
6138.69
5901.47
5627.71
5317.37
4970.43
4586.88
4166.67
3709.78
3216.19
2685.86
940.226
898.645
858.42
819.464
)


20
(
5753.34
5738.01
5692.03
5615.37
5508.05
5370.05
5201.35
5001.95
4771.82
4510.95
4219.32
3896.9
3543.68
3159.63
2744.72
2298.93
831.565
796.612
762.799
730.053
)


20
(
4623.22
4611.04
4574.49
4513.59
4428.31
4318.65
4184.61
4026.17
3843.31
3636.03
3404.3
3148.12
2867.45
2562.29
2232.62
1878.4
712.461
684.689
657.822
631.803
)


20
(
3410.77
3401.93
3375.41
3331.2
3269.3
3189.7
3092.4
2977.4
2844.67
2694.22
2526.02
2340.08
2136.36
1914.87
1675.59
1418.5
572.262
552.105
532.605
513.721
)


20
(
2122.06
2116.69
2100.58
2073.73
2036.15
1987.82
1928.74
1858.91
1778.33
1686.99
1584.88
1472
1348.34
1213.9
1068.66
912.628
399.045
386.812
374.977
363.516
)


20
(
776.958
775.139
769.684
760.591
747.862
731.498
711.498
687.863
660.595
629.694
595.162
557
515.209
469.791
420.747
368.078
194.757
190.628
186.633
182.765
)


20
(
2354.86
2353.28
2348.54
2340.64
2329.56
2315.29
2297.82
2277.12
2253.18
2225.96
2195.44
2161.58
2124.36
2083.73
2039.66
1992.11
1835.25
1831.53
1827.92
1824.43
)


20
(
3538.15
3533.04
3517.71
3492.16
3456.36
3410.32
3354.01
3287.4
3210.48
3123.21
3025.56
2917.49
2798.97
2669.97
2530.43
2380.32
1885.88
1874.11
1862.72
1851.7
)


20
(
4681.61
4673.05
4647.38
4604.59
4544.67
4467.59
4373.35
4261.91
4133.25
3987.34
3824.13
3643.6
3445.7
3230.39
2997.63
2747.37
1923.3
1903.68
1884.7
1866.32
)


20
(
5767.62
5755.76
5720.16
5660.81
5577.72
5470.84
5340.18
5185.69
5007.36
4805.13
4578.99
4328.88
4054.76
3756.59
3434.32
3087.9
1947.35
1920.19
1893.91
1868.47
)


20
(
6779.41
6764.42
6719.46
6644.51
6539.56
6404.6
6239.59
6044.52
5819.35
5564.04
5278.55
4962.84
4616.87
4240.58
3833.93
3396.87
1957.96
1923.69
1890.54
1858.43
)


20
(
7701.29
7683.42
7629.81
7540.44
7415.32
7254.41
7057.69
6825.13
6556.7
6252.36
5912.07
5535.78
5123.45
4675.02
4190.44
3669.66
1955.23
1914.4
1874.9
1836.65
)


20
(
8518.96
8498.49
8437.08
8334.73
8191.41
8007.11
7781.8
7515.45
7208.02
6859.48
6469.79
6038.89
5566.73
5053.27
4498.45
3902.22
1939.44
1892.69
1847.47
1803.67
)


20
(
9219.72
9196.98
9128.75
9015.02
8855.79
8651.02
8400.69
8104.77
7763.23
7376.02
6943.1
6464.42
5939.92
5369.57
4753.3
4091.06
1911.01
1859.09
1808.86
1760.21
)


20
(
9792.67
9768.02
9694.05
9570.76
9398.12
9176.13
8904.76
8583.96
8213.71
7793.97
7324.68
6805.8
6237.28
5619.06
4951.1
4233.33
1870.53
1814.26
1759.81
1707.09
)


20
(
10228.9
10202.7
10124.2
9993.28
9809.99
9574.29
9286.16
8945.57
8552.48
8106.85
7608.62
7057.76
6454.22
5797.93
5088.84
4326.9
1818.74
1759
1701.21
1645.24
)


20
(
10521.6
10494.3
10412.5
10276
10085
9839.3
9538.98
9183.99
8774.28
8309.81
7790.54
7216.42
6587.4
5903.42
5164.43
4370.37
1756.52
1694.26
1634.03
1575.7
)


20
(
10666.2
10638.3
10554.4
10414.6
10218.8
9967.05
9659.3
9295.52
8875.68
8399.73
7867.63
7279.33
6634.78
5933.94
5176.73
4363.12
1684.92
1621.13
1559.41
1499.65
)


20
(
10660.6
10632.4
10547.8
10406.8
10209.4
9955.59
9645.28
9278.48
8855.15
8375.25
7838.74
7245.57
6595.7
5889.06
5125.62
4305.32
1605.11
1540.8
1478.58
1418.32
)


20
(
10504.9
10476.9
10393
10253
10057.1
9805.19
9497.23
9133.2
8713.08
8236.83
7704.39
7115.74
6470.82
5769.58
5011.97
4197.94
1518.43
1454.6
1392.86
1333.06
)


20
(
10201.6
10174.2
10092.3
9955.62
9764.3
9518.28
9217.54
8862.06
8451.8
7986.72
7466.79
6891.96
6262.19
5577.43
4837.64
4042.76
1426.3
1363.97
1303.68
1245.29
)


20
(
9755.52
9729.28
9650.57
9519.37
9335.66
9099.45
8810.69
8469.37
8075.46
7628.92
7129.71
6577.8
5973.15
5315.7
4605.43
3842.27
1330.22
1270.38
1212.5
1156.44
)


20
(
9173.66
9148.93
9074.72
8951.04
8777.87
8555.19
8282.99
7961.24
7589.91
7168.97
6698.39
6178.14
5608.16
4988.43
4318.9
3599.53
1231.62
1175.22
1120.65
1067.81
)


20
(
8464.73
8441.89
8373.37
8259.17
8099.27
7893.66
7642.32
7345.23
7002.37
6613.7
6179.2
5698.82
5172.55
4600.34
3982.15
3317.94
1131.63
1079.55
1029.17
980.383
)


20
(
7638.77
7618.19
7556.44
7453.53
7309.43
7124.15
6897.66
6629.94
6320.97
5970.73
5579.18
5146.31
4672.07
4156.43
3599.37
3000.85
1030.73
983.803
938.405
894.44
)


20
(
6706.61
6688.61
6634.62
6544.62
6418.62
6256.6
6058.54
5824.43
5554.25
5247.97
4905.59
4527.05
4112.35
3661.46
3174.34
2650.96
928.204
887.168
847.47
809.024
)


20
(
5678.56
5663.43
5618.04
5542.39
5436.47
5300.28
5133.79
4937
4709.89
4452.44
4164.63
3846.44
3497.84
3118.82
2709.35
2269.41
821.273
786.779
753.409
721.092
)


20
(
4563.37
4551.35
4515.29
4455.18
4371.02
4262.8
4130.51
3974.14
3793.68
3589.11
3360.42
3107.59
2830.61
2529.44
2204.08
1854.51
703.849
676.441
649.926
624.248
)


20
(
3366.88
3358.15
3331.98
3288.34
3227.25
3148.7
3052.67
2939.17
2808.18
2659.7
2493.7
2310.19
2109.14
1890.55
1654.4
1400.68
565.52
545.627
526.382
507.745
)


20
(
2095.19
2089.89
2074
2047.5
2010.41
1962.71
1904.4
1835.49
1755.95
1665.8
1565.03
1453.62
1331.58
1198.89
1055.55
901.56
394.691
382.617
370.937
359.626
)


20
(
767.937
766.142
760.756
751.781
739.217
723.063
703.322
679.992
653.077
622.576
588.49
550.822
509.572
464.743
416.334
364.349
193.278
189.202
185.26
181.441
)


20
(
2386.31
2384.72
2379.93
2371.96
2360.77
2346.37
2328.74
2307.85
2283.68
2256.2
2225.39
2191.21
2153.62
2112.6
2068.11
2020.1
1861.71
1857.94
1854.3
1850.78
)


20
(
3582.36
3577.2
3561.72
3535.9
3499.74
3453.22
3396.33
3329.04
3251.33
3163.16
3064.5
2955.32
2835.57
2705.23
2564.25
2412.58
1913.01
1901.12
1889.61
1878.48
)


20
(
4738.09
4729.45
4703.51
4660.27
4599.72
4521.84
4426.62
4314.01
4184.01
4036.57
3871.66
3689.24
3489.27
3271.71
3036.5
2783.62
1950.9
1931.07
1911.89
1893.32
)


20
(
5835.69
5823.7
5787.73
5727.76
5643.79
5535.8
5403.76
5247.65
5067.44
4863.09
4634.56
4381.82
4104.82
3803.51
3477.84
3127.78
1975.19
1947.74
1921.19
1895.48
)


20
(
6858.2
6843.05
6797.62
6721.88
6615.82
6479.44
6312.69
6115.56
5888.02
5630.01
5341.51
5022.47
4672.85
4292.58
3881.64
3439.95
1985.83
1951.2
1917.7
1885.25
)


20
(
7789.77
7771.71
7717.53
7627.23
7500.78
7338.17
7139.37
6904.36
6633.09
6325.53
5981.64
5601.38
5184.68
4731.5
4241.8
3715.51
1982.92
1941.65
1901.73
1863.08
)


20
(
8615.95
8595.27
8533.21
8429.77
8284.94
8098.68
7870.99
7601.82
7291.14
6938.92
6545.1
6109.63
5632.48
5113.58
4552.88
3950.33
1966.73
1919.49
1873.79
1829.53
)


20
(
9323.91
9300.93
9231.98
9117.05
8956.12
8749.19
8496.21
8197.15
7851.99
7460.68
7023.17
6539.41
6009.36
5432.96
4810.15
4140.88
1937.71
1885.23
1834.47
1785.31
)


20
(
9902.64
9877.72
9802.97
9678.37
9503.91
9279.56
9005.31
8681.11
8306.94
7882.74
7408.47
6884.09
6309.54
5684.76
5009.71
4284.32
1896.44
1839.56
1784.54
1731.26
)


20
(
10343.1
10316.7
10237.3
10105
9919.76
9681.57
9390.38
9046.18
8648.92
8198.55
7695.04
7138.34
6528.38
5865.12
5148.51
4378.47
1843.67
1783.3
1724.89
1668.32
)


20
(
10638.5
10610.9
10528.2
10390.3
10197.2
9948.95
9645.45
9286.68
8872.62
8403.23
7878.44
7298.22
6662.52
5971.27
5224.43
4421.94
1780.31
1717.39
1656.52
1597.58
)


20
(
10784.2
10755.9
10671.1
10529.8
10332
10077.6
9766.54
9398.9
8974.6
8493.59
7955.84
7361.29
6709.9
6001.6
5236.35
4414.09
1707.42
1642.95
1580.58
1520.18
)


20
(
10777.9
10749.4
10664
10521.5
10322
10065.4
9751.81
9381.12
8953.29
8468.29
7926.08
7326.61
6669.83
5955.68
5184.13
4355.1
1626.19
1561.19
1498.3
1437.41
)


20
(
10619.9
10591.7
10506.8
10365.4
10167.4
9912.81
9601.58
9233.69
8809.1
8327.79
7789.69
7194.78
6543.01
5834.31
5068.65
4245.97
1537.95
1473.45
1411.05
1350.62
)


20
(
10312.8
10285.1
10202.3
10064.2
9870.84
9622.21
9318.27
8959.01
8544.39
8074.37
7548.91
6967.97
6331.5
5639.46
4891.81
4088.48
1444.18
1381.19
1320.26
1261.25
)


20
(
9861.3
9834.78
9755.23
9622.63
9436.98
9198.25
8906.42
8561.48
8163.38
7712.09
7207.57
6649.8
6038.71
5374.27
4656.44
3885.16
1346.39
1285.92
1227.41
1170.76
)


20
(
9272.58
9247.58
9172.59
9047.59
8872.58
8647.53
8372.44
8047.27
7671.99
7246.58
6770.99
6245.2
5669.16
5042.84
4366.18
3639.16
1246.06
1189.05
1133.91
1080.5
)


20
(
8555.48
8532.4
8463.15
8347.73
8186.13
7978.34
7724.33
7424.08
7077.57
6684.77
6245.64
5760.16
5228.28
4649.98
4025.22
3353.94
1144.36
1091.73
1040.82
991.506
)


20
(
7720.2
7699.4
7637
7532.99
7387.36
7200.11
6971.21
6700.64
6388.38
6034.42
5638.7
5201.22
4721.93
4200.81
3637.82
3032.93
1041.84
994.416
948.534
904.101
)


20
(
6777.71
6759.53
6704.96
6614.01
6486.66
6322.91
6122.75
5886.15
5613.1
5303.56
4957.53
4574.97
4155.86
3700.16
3207.86
2678.91
937.814
896.341
856.22
817.366
)


20
(
5738.47
5723.18
5677.31
5600.86
5493.81
5356.17
5187.91
4989.03
4759.5
4499.31
4208.43
3886.86
3534.56
3151.5
2737.67
2293.04
829.497
794.636
760.911
728.25
)


20
(
4611.31
4599.16
4562.71
4501.97
4416.91
4307.54
4173.84
4015.81
3833.43
3626.69
3395.57
3140.05
2860.11
2555.75
2226.93
1873.63
710.728
683.028
656.231
630.279
)


20
(
3402.04
3393.22
3366.76
3322.67
3260.93
3181.54
3084.49
2969.79
2837.41
2687.34
2519.58
2334.12
2130.94
1910.02
1671.36
1414.94
570.901
550.797
531.347
512.512
)


20
(
2116.71
2111.35
2095.29
2068.51
2031.02
1982.82
1923.89
1854.25
1773.87
1682.77
1580.92
1468.33
1345
1210.9
1066.04
910.414
398.164
385.963
374.159
362.728
)


20
(
775.164
773.35
767.908
758.839
746.143
729.82
709.871
686.297
659.099
628.278
593.835
555.771
514.087
468.786
419.867
367.334
194.46
190.342
186.358
182.499
)


20
(
2386.31
2384.72
2379.93
2371.96
2360.77
2346.37
2328.74
2307.85
2283.68
2256.2
2225.39
2191.21
2153.62
2112.6
2068.11
2020.1
1861.71
1857.94
1854.3
1850.78
)


20
(
3582.36
3577.2
3561.72
3535.9
3499.74
3453.22
3396.33
3329.04
3251.33
3163.16
3064.5
2955.32
2835.57
2705.23
2564.25
2412.58
1913.01
1901.12
1889.61
1878.48
)


20
(
4738.09
4729.45
4703.51
4660.27
4599.72
4521.84
4426.62
4314.02
4184.01
4036.57
3871.66
3689.24
3489.27
3271.71
3036.51
2783.62
1950.9
1931.07
1911.89
1893.32
)


20
(
5835.69
5823.7
5787.73
5727.76
5643.79
5535.8
5403.76
5247.65
5067.44
4863.09
4634.56
4381.82
4104.82
3803.51
3477.84
3127.78
1975.19
1947.74
1921.19
1895.48
)


20
(
6858.2
6843.05
6797.62
6721.88
6615.82
6479.44
6312.69
6115.56
5888.02
5630.01
5341.51
5022.47
4672.85
4292.58
3881.64
3439.95
1985.83
1951.2
1917.7
1885.25
)


20
(
7789.77
7771.71
7717.53
7627.23
7500.78
7338.17
7139.37
6904.36
6633.09
6325.53
5981.64
5601.38
5184.68
4731.5
4241.8
3715.51
1982.92
1941.65
1901.73
1863.08
)


20
(
8615.95
8595.27
8533.21
8429.77
8284.94
8098.68
7870.99
7601.82
7291.14
6938.92
6545.1
6109.63
5632.48
5113.58
4552.88
3950.33
1966.73
1919.49
1873.79
1829.53
)


20
(
9323.91
9300.93
9231.98
9117.05
8956.12
8749.18
8496.21
8197.15
7851.99
7460.68
7023.17
6539.41
6009.36
5432.96
4810.15
4140.88
1937.71
1885.23
1834.47
1785.31
)


20
(
9902.64
9877.72
9802.97
9678.37
9503.91
9279.56
9005.31
8681.11
8306.94
7882.74
7408.47
6884.09
6309.54
5684.76
5009.71
4284.32
1896.44
1839.56
1784.54
1731.26
)


20
(
10343.1
10316.7
10237.3
10105
9919.76
9681.57
9390.38
9046.18
8648.92
8198.55
7695.04
7138.34
6528.38
5865.12
5148.51
4378.47
1843.67
1783.3
1724.89
1668.32
)


20
(
10638.5
10610.9
10528.2
10390.3
10197.2
9948.95
9645.44
9286.68
8872.62
8403.23
7878.44
7298.22
6662.52
5971.27
5224.43
4421.94
1780.31
1717.39
1656.52
1597.58
)


20
(
10784.2
10755.9
10671.1
10529.8
10332
10077.6
9766.54
9398.9
8974.6
8493.59
7955.84
7361.29
6709.9
6001.6
5236.35
4414.09
1707.42
1642.95
1580.58
1520.18
)


20
(
10777.9
10749.4
10664
10521.5
10322
10065.4
9751.81
9381.12
8953.29
8468.29
7926.08
7326.61
6669.83
5955.68
5184.13
4355.1
1626.19
1561.19
1498.3
1437.41
)


20
(
10619.9
10591.7
10506.8
10365.4
10167.4
9912.81
9601.58
9233.69
8809.1
8327.79
7789.69
7194.78
6543
5834.31
5068.65
4245.97
1537.95
1473.45
1411.05
1350.62
)


20
(
10312.8
10285.1
10202.3
10064.2
9870.84
9622.21
9318.27
8959.01
8544.39
8074.37
7548.91
6967.97
6331.5
5639.46
4891.8
4088.48
1444.18
1381.19
1320.26
1261.25
)


20
(
9861.3
9834.78
9755.23
9622.63
9436.98
9198.25
8906.42
8561.48
8163.38
7712.09
7207.57
6649.79
6038.71
5374.27
4656.44
3885.16
1346.39
1285.92
1227.41
1170.76
)


20
(
9272.58
9247.58
9172.59
9047.59
8872.58
8647.53
8372.44
8047.27
7671.99
7246.58
6770.99
6245.2
5669.16
5042.84
4366.18
3639.16
1246.06
1189.05
1133.91
1080.5
)


20
(
8555.48
8532.4
8463.15
8347.73
8186.13
7978.34
7724.33
7424.08
7077.57
6684.77
6245.64
5760.16
5228.28
4649.98
4025.22
3353.94
1144.36
1091.73
1040.82
991.506
)


20
(
7720.2
7699.4
7636.99
7532.99
7387.36
7200.11
6971.21
6700.64
6388.38
6034.42
5638.7
5201.22
4721.93
4200.81
3637.82
3032.93
1041.84
994.416
948.534
904.101
)


20
(
6777.71
6759.52
6704.96
6614.01
6486.66
6322.91
6122.75
5886.15
5613.09
5303.56
4957.53
4574.97
4155.86
3700.16
3207.86
2678.91
937.814
896.341
856.22
817.366
)


20
(
5738.47
5723.18
5677.31
5600.86
5493.81
5356.17
5187.91
4989.03
4759.5
4499.31
4208.43
3886.86
3534.56
3151.5
2737.67
2293.04
829.497
794.636
760.911
728.25
)


20
(
4611.31
4599.16
4562.72
4501.97
4416.91
4307.54
4173.84
4015.81
3833.43
3626.69
3395.57
3140.05
2860.12
2555.75
2226.93
1873.63
710.728
683.028
656.231
630.279
)


20
(
3402.04
3393.22
3366.76
3322.67
3260.93
3181.54
3084.49
2969.79
2837.41
2687.34
2519.59
2334.12
2130.94
1910.02
1671.36
1414.94
570.901
550.797
531.348
512.512
)


20
(
2116.71
2111.35
2095.29
2068.51
2031.02
1982.82
1923.89
1854.25
1773.87
1682.77
1580.92
1468.33
1345
1210.9
1066.04
910.414
398.164
385.963
374.159
362.728
)


20
(
775.164
773.35
767.908
758.839
746.143
729.82
709.871
686.297
659.099
628.278
593.835
555.771
514.087
468.786
419.867
367.334
194.46
190.342
186.358
182.499
)


20
(
2354.86
2353.28
2348.54
2340.64
2329.56
2315.29
2297.82
2277.13
2253.18
2225.96
2195.44
2161.58
2124.36
2083.73
2039.66
1992.12
1835.26
1831.53
1827.92
1824.43
)


20
(
3538.15
3533.04
3517.71
3492.16
3456.36
3410.32
3354.01
3287.4
3210.48
3123.21
3025.56
2917.49
2798.97
2669.97
2530.43
2380.32
1885.88
1874.11
1862.73
1851.7
)


20
(
4681.61
4673.06
4647.38
4604.59
4544.67
4467.59
4373.35
4261.91
4133.25
3987.34
3824.13
3643.6
3445.7
3230.4
2997.64
2747.38
1923.31
1903.69
1884.7
1866.32
)


20
(
5767.63
5755.76
5720.16
5660.82
5577.72
5470.85
5340.18
5185.69
5007.36
4805.13
4578.99
4328.88
4054.76
3756.59
3434.32
3087.91
1947.35
1920.19
1893.91
1868.47
)


20
(
6779.41
6764.42
6719.46
6644.51
6539.56
6404.6
6239.59
6044.52
5819.35
5564.04
5278.55
4962.84
4616.87
4240.58
3833.93
3396.87
1957.96
1923.69
1890.54
1858.43
)


20
(
7701.29
7683.42
7629.81
7540.44
7415.32
7254.41
7057.69
6825.13
6556.7
6252.36
5912.07
5535.78
5123.45
4675.02
4190.44
3669.67
1955.23
1914.4
1874.9
1836.65
)


20
(
8518.96
8498.49
8437.08
8334.73
8191.41
8007.11
7781.8
7515.45
7208.02
6859.49
6469.79
6038.89
5566.73
5053.27
4498.46
3902.23
1939.44
1892.7
1847.47
1803.67
)


20
(
9219.72
9196.98
9128.75
9015.02
8855.79
8651.02
8400.69
8104.77
7763.23
7376.02
6943.1
6464.42
5939.93
5369.57
4753.3
4091.06
1911.02
1859.09
1808.86
1760.22
)


20
(
9792.67
9768.02
9694.05
9570.76
9398.13
9176.14
8904.76
8583.96
8213.71
7793.97
7324.68
6805.8
6237.28
5619.07
4951.1
4233.33
1870.54
1814.26
1759.81
1707.09
)


20
(
10228.9
10202.7
10124.2
9993.28
9809.99
9574.29
9286.17
8945.57
8552.48
8106.85
7608.62
7057.77
6454.22
5797.93
5088.84
4326.9
1818.74
1759
1701.21
1645.24
)


20
(
10521.6
10494.3
10412.5
10276
10085
9839.3
9538.98
9183.99
8774.28
8309.81
7790.54
7216.42
6587.4
5903.42
5164.43
4370.37
1756.52
1694.26
1634.03
1575.71
)


20
(
10666.2
10638.3
10554.4
10414.6
10218.8
9967.05
9659.3
9295.52
8875.68
8399.73
7867.63
7279.33
6634.79
5933.94
5176.73
4363.12
1684.92
1621.13
1559.41
1499.65
)


20
(
10660.6
10632.4
10547.8
10406.8
10209.4
9955.59
9645.28
9278.48
8855.15
8375.25
7838.74
7245.57
6595.7
5889.06
5125.62
4305.32
1605.11
1540.8
1478.58
1418.32
)


20
(
10504.9
10476.9
10393
10253
10057.1
9805.19
9497.23
9133.2
8713.08
8236.83
7704.39
7115.74
6470.82
5769.58
5011.97
4197.94
1518.43
1454.6
1392.86
1333.06
)


20
(
10201.6
10174.2
10092.3
9955.62
9764.3
9518.28
9217.54
8862.06
8451.8
7986.72
7466.79
6891.96
6262.19
5577.43
4837.64
4042.76
1426.3
1363.97
1303.68
1245.29
)


20
(
9755.52
9729.29
9650.57
9519.37
9335.67
9099.45
8810.69
8469.37
8075.46
7628.92
7129.72
6577.81
5973.15
5315.71
4605.43
3842.27
1330.22
1270.38
1212.5
1156.44
)


20
(
9173.66
9148.93
9074.72
8951.04
8777.87
8555.19
8282.99
7961.24
7589.91
7168.97
6698.39
6178.14
5608.16
4988.43
4318.9
3599.53
1231.62
1175.22
1120.65
1067.81
)


20
(
8464.73
8441.89
8373.37
8259.17
8099.27
7893.66
7642.32
7345.23
7002.37
6613.7
6179.2
5698.82
5172.55
4600.34
3982.15
3317.94
1131.63
1079.55
1029.17
980.384
)


20
(
7638.77
7618.19
7556.44
7453.53
7309.44
7124.15
6897.66
6629.94
6320.97
5970.73
5579.18
5146.31
4672.07
4156.43
3599.37
3000.85
1030.73
983.804
938.406
894.44
)


20
(
6706.61
6688.61
6634.62
6544.62
6418.62
6256.6
6058.54
5824.43
5554.25
5247.98
4905.59
4527.06
4112.36
3661.46
3174.34
2650.96
928.204
887.169
847.47
809.025
)


20
(
5678.55
5663.43
5618.04
5542.39
5436.47
5300.28
5133.79
4937
4709.89
4452.44
4164.63
3846.44
3497.84
3118.82
2709.35
2269.41
821.274
786.78
753.41
721.093
)


20
(
4563.38
4551.36
4515.29
4455.18
4371.02
4262.8
4130.51
3974.14
3793.68
3589.11
3360.42
3107.59
2830.61
2529.44
2204.08
1854.51
703.85
676.442
649.927
624.249
)


20
(
3366.88
3358.16
3331.98
3288.35
3227.25
3148.7
3052.68
2939.17
2808.19
2659.7
2493.71
2310.19
2109.14
1890.55
1654.4
1400.68
565.52
545.628
526.383
507.746
)


20
(
2095.19
2089.9
2074
2047.5
2010.41
1962.71
1904.4
1835.49
1755.95
1665.8
1565.03
1453.62
1331.58
1198.89
1055.55
901.56
394.691
382.618
370.938
359.627
)


20
(
767.937
766.142
760.757
751.782
739.217
723.063
703.322
679.993
653.077
622.576
588.491
550.822
509.573
464.743
416.334
364.349
193.278
189.202
185.26
181.441
)


20
(
2393.9
2392.3
2387.51
2379.51
2368.31
2353.87
2336.2
2315.26
2291.03
2263.49
2232.6
2198.34
2160.67
2119.55
2074.95
2026.83
1868.05
1864.28
1860.63
1857.1
)


20
(
3593.14
3587.97
3572.44
3546.56
3510.31
3463.67
3406.64
3339.18
3261.27
3172.87
3073.96
2964.51
2844.46
2713.79
2572.44
2420.39
1919.54
1907.62
1896.09
1884.92
)


20
(
4751.93
4743.27
4717.26
4673.91
4613.21
4535.13
4439.66
4326.77
4196.43
4048.61
3883.28
3700.39
3499.91
3281.78
3045.98
2792.44
1957.57
1937.69
1918.47
1899.84
)


20
(
5852.43
5840.4
5804.34
5744.22
5660.03
5551.76
5419.38
5262.87
5082.19
4877.31
4648.2
4394.8
4117.08
3815
3488.49
3137.52
1981.95
1954.43
1927.81
1902.03
)


20
(
6877.61
6862.42
6816.87
6740.93
6634.61
6497.87
6330.69
6133.05
5904.92
5646.25
5357
5037.13
4686.6
4305.35
3893.34
3450.51
1992.62
1957.9
1924.31
1891.78
)


20
(
7811.6
7793.49
7739.18
7648.64
7521.86
7358.83
7159.52
6923.89
6651.92
6343.57
5998.79
5617.53
5199.76
4745.41
4254.43
3726.77
1989.68
1948.31
1908.29
1869.53
)


20
(
8639.91
8619.17
8556.95
8453.25
8308.04
8121.3
7893.02
7623.15
7311.67
6958.53
6563.68
6127.09
5648.69
5128.44
4566.29
3962.17
1973.42
1926.05
1880.23
1835.86
)


20
(
9349.67
9326.63
9257.5
9142.27
8980.93
8773.45
8519.82
8219.99
7873.93
7481.6
7042.95
6557.94
6026.51
5448.61
4824.18
4153.17
1944.27
1891.65
1840.76
1791.47
)


20
(
9929.85
9904.87
9829.92
9704.99
9530.08
9305.15
9030.19
8705.15
8330
7904.7
7429.2
6903.45
6327.41
5701.01
5024.19
4296.91
1902.82
1845.79
1790.63
1737.21
)


20
(
10371.4
10344.9
10265.3
10132.7
9946.94
9708.13
9416.19
9071.09
8672.79
8221.26
7716.44
7158.28
6546.74
5881.75
5163.27
4391.23
1849.83
1789.29
1730.73
1674.02
)


20
(
10667.4
10639.8
10556.9
10418.6
10225
9976.11
9671.82
9312.12
8896.98
8426.36
7900.21
7318.49
6681.13
5988.08
5239.29
4434.71
1786.2
1723.12
1662.09
1602.99
)


20
(
10813.4
10785.1
10700.1
10558.4
10360
10104.9
9793.11
9424.52
8999.11
8516.86
7977.7
7381.61
6728.51
6018.37
5251.13
4426.73
1713
1648.36
1585.83
1525.27
)


20
(
10807
10778.4
10692.7
10549.9
10349.9
10092.6
9778.23
9406.56
8977.62
8491.36
7947.74
7346.7
6688.21
5972.21
5198.64
4367.45
1631.43
1566.26
1503.21
1442.15
)


20
(
10648.5
10620.1
10535.1
10393.3
10194.8
9939.5
9627.46
9258.61
8832.92
8350.35
7810.85
7214.39
6560.92
5850.37
5082.72
4257.89
1542.82
1478.14
1415.58
1354.99
)


20
(
10340.3
10312.7
10229.6
10091.1
9897.27
9647.99
9343.26
8983.06
8567.36
8096.11
7569.29
6986.83
6348.71
5654.87
4905.26
4099.83
1448.64
1385.49
1324.4
1265.23
)


20
(
9887.54
9860.95
9781.19
9648.25
9462.11
9222.76
8930.18
8584.33
8185.19
7732.73
7226.9
6667.67
6054.99
5388.82
4669.11
3895.83
1350.43
1289.8
1231.14
1174.34
)


20
(
9297.12
9272.06
9196.87
9071.55
8896.08
8670.45
8394.63
8068.61
7692.36
7265.84
6789.01
6261.85
5684.31
5056.35
4377.94
3649.01
1249.67
1192.52
1137.23
1083.68
)


20
(
8578
8554.86
8485.43
8369.71
8207.69
7999.35
7744.68
7443.65
7096.23
6702.41
6262.14
5775.39
5242.13
4662.32
4035.92
3362.9
1147.55
1094.78
1043.73
994.297
)


20
(
7740.4
7719.55
7656.99
7552.71
7406.7
7218.96
6989.46
6718.19
6405.12
6050.23
5653.48
5214.86
4734.32
4211.84
3647.38
3040.91
1044.63
997.078
951.077
906.528
)


20
(
6795.36
6777.13
6722.42
6631.23
6503.55
6339.38
6138.69
5901.47
5627.71
5317.37
4970.43
4586.88
4166.67
3709.78
3216.19
2685.86
940.226
898.645
858.42
819.464
)


20
(
5753.34
5738.01
5692.03
5615.37
5508.05
5370.04
5201.35
5001.94
4771.82
4510.95
4219.32
3896.9
3543.68
3159.63
2744.72
2298.93
831.565
796.612
762.799
730.053
)


20
(
4623.22
4611.04
4574.49
4513.59
4428.31
4318.65
4184.61
4026.17
3843.31
3636.03
3404.3
3148.12
2867.46
2562.29
2232.62
1878.4
712.461
684.689
657.822
631.803
)


20
(
3410.77
3401.93
3375.41
3331.2
3269.3
3189.7
3092.4
2977.4
2844.67
2694.22
2526.02
2340.08
2136.36
1914.87
1675.59
1418.5
572.262
552.105
532.605
513.721
)


20
(
2122.06
2116.69
2100.58
2073.73
2036.15
1987.82
1928.74
1858.91
1778.33
1686.99
1584.88
1472
1348.34
1213.9
1068.66
912.628
399.045
386.812