# Region      : all neutroRegion
# Cells       : 350
# Volume      : 2.936810e-03
# Time        	volIntegrate(powerDensity)
