/*--------------------------------*- C++ -*----------------------------------*\
| =========                 |                                                 |
| \\      /  F ield         | OpenFOAM: The Open Source CFD Toolbox           |
|  \\    /   O peration     | Version:  2212                                  |
|   \\  /    A nd           | Website:  www.openfoam.com                      |
|    \\/     M anipulation  |                                                 |
\*---------------------------------------------------------------------------*/
FoamFile
{
    version     2.0;
    format      ascii;
    arch        "LSB;label=32;scalar=64";
    class       volScalarField;
    location    "77/fluidRegion";
    object      heatFlux.structure;
}
// * * * * * * * * * * * * * * * * * * * * * * * * * * * * * * * * * * * * * //

dimensions      [1 0 -3 0 0 0 0];

internalField   nonuniform List<scalar> 
350
(
-258309
-258313
-258317
-258322
-258324
-258326
-258326
-258327
-258329
-258332
-258336
-258340
-258344
-258349
-258352
-258355
-258357
-258359
-258362
-258364
-258367
-258370
-258374
-258377
-258808
-258309
-258313
-258317
-258322
-258324
-258326
-258326
-258327
-258329
-258332
-258336
-258340
-258344
-258349
-258352
-258355
-258357
-258359
-258362
-258364
-258367
-258370
-258374
-258377
-258808
450334
1.34412e+06
2.21671e+06
3.05434e+06
3.8438e+06
4.57263e+06
5.22935e+06
5.8036e+06
6.28632e+06
6.6699e+06
6.94829e+06
7.1171e+06
7.17367e+06
7.11711e+06
6.94831e+06
6.66993e+06
6.28636e+06
5.80365e+06
5.22938e+06
4.5727e+06
3.84387e+06
3.05445e+06
2.2168e+06
1.34419e+06
450449
455491
1.35952e+06
2.2421e+06
3.08933e+06
3.88783e+06
4.62501e+06
5.28925e+06
5.87008e+06
6.35833e+06
6.7463e+06
7.02788e+06
7.19863e+06
7.25585e+06
7.19864e+06
7.0279e+06
6.74633e+06
6.35837e+06
5.87013e+06
5.28928e+06
4.62508e+06
3.8879e+06
3.08944e+06
2.24219e+06
1.35958e+06
455609
449513
1.34167e+06
2.21267e+06
3.04877e+06
3.83679e+06
4.56429e+06
5.21981e+06
5.79301e+06
6.27485e+06
6.65773e+06
6.93562e+06
7.10412e+06
7.16059e+06
7.10413e+06
6.93563e+06
6.65776e+06
6.27489e+06
5.79306e+06
5.21984e+06
4.56435e+06
3.83686e+06
3.04888e+06
2.21275e+06
1.34174e+06
449627
454304
1.35598e+06
2.23626e+06
3.08127e+06
3.87769e+06
4.61295e+06
5.27546e+06
5.85478e+06
6.34175e+06
6.72871e+06
7.00956e+06
7.17986e+06
7.23693e+06
7.17987e+06
7.00958e+06
6.72874e+06
6.34179e+06
5.85482e+06
5.2755e+06
4.61302e+06
3.87776e+06
3.08138e+06
2.23634e+06
1.35604e+06
454421
454304
1.35598e+06
2.23626e+06
3.08127e+06
3.87769e+06
4.61295e+06
5.27546e+06
5.85477e+06
6.34175e+06
6.72871e+06
7.00956e+06
7.17986e+06
7.23693e+06
7.17987e+06
7.00958e+06
6.72874e+06
6.34179e+06
5.85482e+06
5.2755e+06
4.61302e+06
3.87776e+06
3.08138e+06
2.23634e+06
1.35604e+06
454421
449513
1.34167e+06
2.21267e+06
3.04877e+06
3.83679e+06
4.56429e+06
5.21981e+06
5.79301e+06
6.27485e+06
6.65773e+06
6.93562e+06
7.10412e+06
7.16059e+06
7.10413e+06
6.93563e+06
6.65776e+06
6.27489e+06
5.79306e+06
5.21984e+06
4.56435e+06
3.83686e+06
3.04888e+06
2.21275e+06
1.34174e+06
449627
455491
1.35952e+06
2.2421e+06
3.08933e+06
3.88783e+06
4.62501e+06
5.28925e+06
5.87008e+06
6.35833e+06
6.7463e+06
7.02788e+06
7.19863e+06
7.25585e+06
7.19864e+06
7.0279e+06
6.74633e+06
6.35837e+06
5.87013e+06
5.28928e+06
4.62508e+06
3.8879e+06
3.08944e+06
2.24219e+06
1.35958e+06
455609
450334
1.34412e+06
2.21671e+06
3.05434e+06
3.8438e+06
4.57263e+06
5.22935e+06
5.8036e+06
6.28632e+06
6.6699e+06
6.94829e+06
7.1171e+06
7.17367e+06
7.11711e+06
6.94831e+06
6.66993e+06
6.28636e+06
5.80364e+06
5.22938e+06
4.5727e+06
3.84387e+06
3.05445e+06
2.2168e+06
1.34419e+06
450449
454304
1.35598e+06
2.23626e+06
3.08127e+06
3.87769e+06
4.61295e+06
5.27546e+06
5.85477e+06
6.34175e+06
6.72871e+06
7.00956e+06
7.17986e+06
7.23693e+06
7.17987e+06
7.00958e+06
6.72874e+06
6.34179e+06
5.85482e+06
5.27549e+06
4.61302e+06
3.87776e+06
3.08138e+06
2.23634e+06
1.35604e+06
454421
449513
1.34167e+06
2.21267e+06
3.04877e+06
3.83679e+06
4.56429e+06
5.21981e+06
5.79301e+06
6.27485e+06
6.65773e+06
6.93562e+06
7.10412e+06
7.16059e+06
7.10413e+06
6.93563e+06
6.65776e+06
6.27489e+06
5.79306e+06
5.21984e+06
4.56435e+06
3.83685e+06
3.04887e+06
2.21275e+06
1.34173e+06
449627
449513
1.34167e+06
2.21267e+06
3.04877e+06
3.83679e+06
4.56429e+06
5.21981e+06
5.79301e+06
6.27485e+06
6.65773e+06
6.93562e+06
7.10412e+06
7.16059e+06
7.10413e+06
6.93563e+06
6.65776e+06
6.27489e+06
5.79306e+06
5.21984e+06
4.56436e+06
3.83686e+06
3.04888e+06
2.21275e+06
1.34174e+06
449627
454304
1.35598e+06
2.23626e+06
3.08127e+06
3.87769e+06
4.61295e+06
5.27546e+06
5.85477e+06
6.34175e+06
6.72871e+06
7.00956e+06
7.17986e+06
7.23693e+06
7.17987e+06
7.00958e+06
6.72874e+06
6.34179e+06
5.85482e+06
5.2755e+06
4.61302e+06
3.87776e+06
3.08138e+06
2.23634e+06
1.35604e+06
454421
)
;

boundaryField
{
    outletCentralUnloaded
    {
        type            zeroGradient;
    }
    inletCentralUnloaded
    {
        type            zeroGradient;
    }
    outletFuelElement
    {
        type            zeroGradient;
    }
    inletFuelElement
    {
        type            zeroGradient;
    }
    defaultFaces
    {
        type            zeroGradient;
    }
    baffle_master
    {
        type            zeroGradient;
    }
    baffle_slave
    {
        type            zeroGradient;
    }
}


// ************************************************************************* //
