/*--------------------------------*- C++ -*----------------------------------*\
| =========                 |                                                 |
| \\      /  F ield         | OpenFOAM: The Open Source CFD Toolbox           |
|  \\    /   O peration     | Version:  2212                                  |
|   \\  /    A nd           | Website:  www.openfoam.com                      |
|    \\/     M anipulation  |                                                 |
\*---------------------------------------------------------------------------*/
FoamFile
{
    version     2.0;
    format      ascii;
    arch        "LSB;label=32;scalar=64";
    class       volScalarField;
    location    "77/fluidRegion";
    object      Tfo.nuclearFuelPin;
}
// * * * * * * * * * * * * * * * * * * * * * * * * * * * * * * * * * * * * * //

dimensions      [0 0 0 1 0 0 0];

internalField   nonuniform List<scalar> 
350
(
0
0
0
0
0
0
0
0
0
0
0
0
0
0
0
0
0
0
0
0
0
0
0
0
0
0
0
0
0
0
0
0
0
0
0
0
0
0
0
0
0
0
0
0
0
0
0
0
0
0
2022.8
2412.01
2779.95
3121.21
3430.73
3703.88
3936.58
4125.32
4267.25
4360.25
4402.89
4394.56
4335.44
4226.51
4069.56
3867.1
3622.25
3338.43
3019.05
2666.84
2282.95
1865.61
1408.93
906.001
363.86
2053.28
2447.13
2819.38
3164.57
3477.57
3753.71
3988.85
4179.46
4322.66
4416.28
4458.92
4449.94
4389.53
4278.68
4119.22
3913.7
3665.29
3377.53
3053.89
2697.2
2308.64
1886.42
1424.47
915.668
367.11
2017.85
2406.35
2773.62
3114.27
3423.25
3695.95
3928.27
4116.73
4258.48
4351.38
4394.04
4385.82
4326.91
4218.29
4061.74
3859.77
3615.48
3332.29
3013.58
2662.08
2278.93
1862.37
1406.52
904.51
363.351
2046.42
2439.18
2810.43
3154.7
3466.88
3742.32
3976.88
4167.05
4309.94
4403.41
4446.04
4437.2
4377.08
4266.67
4107.78
3902.96
3655.37
3368.52
3045.86
2690.2
2302.72
1881.62
1420.89
913.436
366.36
2046.42
2439.18
2810.43
3154.7
3466.88
3742.32
3976.88
4167.05
4309.94
4403.41
4446.04
4437.2
4377.08
4266.67
4107.78
3902.96
3655.37
3368.52
3045.86
2690.2
2302.72
1881.62
1420.89
913.436
366.361
2017.86
2406.35
2773.62
3114.28
3423.26
3695.95
3928.27
4116.73
4258.48
4351.39
4394.04
4385.82
4326.91
4218.3
4061.75
3859.78
3615.48
3332.29
3013.58
2662.08
2278.93
1862.37
1406.52
904.51
363.351
2053.28
2447.13
2819.38
3164.57
3477.57
3753.71
3988.85
4179.46
4322.66
4416.28
4458.92
4449.94
4389.52
4278.68
4119.22
3913.7
3665.29
3377.53
3053.89
2697.2
2308.64
1886.42
1424.47
915.668
367.11
2022.8
2412.01
2779.95
3121.21
3430.73
3703.88
3936.58
4125.32
4267.25
4360.25
4402.89
4394.56
4335.44
4226.51
4069.56
3867.1
3622.25
3338.43
3019.05
2666.84
2282.95
1865.61
1408.93
906.001
363.86
2046.42
2439.18
2810.43
3154.7
3466.88
3742.32
3976.88
4167.05
4309.94
4403.41
4446.04
4437.2
4377.08
4266.67
4107.78
3902.96
3655.37
3368.52
3045.86
2690.2
2302.72
1881.62
1420.89
913.436
366.361
2017.85
2406.35
2773.62
3114.28
3423.25
3695.95
3928.27
4116.73
4258.48
4351.38
4394.04
4385.82
4326.91
4218.29
4061.74
3859.77
3615.48
3332.29
3013.58
2662.08
2278.93
1862.37
1406.52
904.51
363.351
2017.86
2406.35
2773.62
3114.28
3423.25
3695.95
3928.27
4116.73
4258.48
4351.39
4394.04
4385.82
4326.91
4218.3
4061.75
3859.77
3615.48
3332.29
3013.58
2662.08
2278.93
1862.37
1406.52
904.51
363.351
2046.42
2439.18
2810.43
3154.7
3466.88
3742.32
3976.88
4167.05
4309.94
4403.41
4446.04
4437.2
4377.08
4266.67
4107.78
3902.96
3655.37
3368.52
3045.86
2690.2
2302.72
1881.62
1420.89
913.436
366.36
)
;

boundaryField
{
    outletCentralUnloaded
    {
        type            zeroGradient;
    }
    inletCentralUnloaded
    {
        type            zeroGradient;
    }
    outletFuelElement
    {
        type            zeroGradient;
    }
    inletFuelElement
    {
        type            zeroGradient;
    }
    defaultFaces
    {
        type            zeroGradient;
    }
    baffle_master
    {
        type            zeroGradient;
    }
    baffle_slave
    {
        type            zeroGradient;
    }
}


// ************************************************************************* //
