/*--------------------------------*- C++ -*----------------------------------*\
| =========                 |                                                 |
| \\      /  F ield         | OpenFOAM: The Open Source CFD Toolbox           |
|  \\    /   O peration     | Version:  2212                                  |
|   \\  /    A nd           | Website:  www.openfoam.com                      |
|    \\/     M anipulation  |                                                 |
\*---------------------------------------------------------------------------*/
FoamFile
{
    version     2.0;
    format      ascii;
    arch        "LSB;label=32;scalar=64";
    class       volScalarField;
    location    "51/neutroRegion";
    object      TClad;
}
// * * * * * * * * * * * * * * * * * * * * * * * * * * * * * * * * * * * * * //

dimensions      [0 0 0 1 0 0 0];

internalField   nonuniform List<scalar> 
350
(
0
0
0
0
0
0
0
0
0
0
0
0
0
0
0
0
0
0
0
0
0
0
0
0
0
0
0
0
0
0
0
0
0
0
0
0
0
0
0
0
0
0
0
0
0
0
0
0
0
0
1844.31
1882.48
1907.71
1919.99
1919.45
1906.35
1881.13
1844.35
1796.72
1739.09
1672.44
1597.86
1516.58
1429.93
1339.36
1246.32
1152.21
1058.08
964.338
870.158
772.609
665.413
537.847
377.831
186.972
1872.72
1911.51
1937.13
1949.57
1948.96
1935.57
1909.84
1872.35
1823.81
1765.09
1697.17
1621.19
1538.36
1450.06
1357.73
1262.89
1166.95
1071.05
975.639
879.929
780.991
672.464
543.411
381.446
188.194
1839.69
1877.79
1902.97
1915.25
1914.73
1901.7
1876.58
1839.93
1792.46
1735.01
1668.57
1594.22
1513.19
1426.82
1336.52
1243.77
1149.95
1056.1
962.616
868.675
771.345
664.36
537.029
377.304
186.786
1866.33
1904.96
1930.48
1942.87
1942.26
1928.92
1903.3
1865.95
1817.61
1759.13
1691.5
1615.83
1533.35
1445.42
1353.5
1259.07
1163.55
1068.06
973.026
877.669
779.052
670.832
542.121
380.607
187.912
1866.33
1904.96
1930.48
1942.87
1942.26
1928.92
1903.3
1865.95
1817.61
1759.13
1691.5
1615.83
1533.35
1445.42
1353.5
1259.07
1163.55
1068.06
973.026
877.669
779.052
670.832
542.121
380.607
187.912
1839.69
1877.79
1902.98
1915.25
1914.73
1901.7
1876.58
1839.93
1792.46
1735.02
1668.57
1594.22
1513.2
1426.82
1336.52
1243.78
1149.95
1056.1
962.617
868.676
771.346
664.361
537.03
377.304
186.786
1872.72
1911.51
1937.13
1949.57
1948.96
1935.57
1909.84
1872.35
1823.81
1765.09
1697.17
1621.19
1538.36
1450.06
1357.73
1262.89
1166.95
1071.05
975.639
879.929
780.991
672.464
543.411
381.446
188.194
1844.31
1882.48
1907.71
1919.99
1919.45
1906.35
1881.13
1844.35
1796.72
1739.09
1672.44
1597.86
1516.58
1429.93
1339.36
1246.32
1152.21
1058.08
964.338
870.158
772.609
665.413
537.847
377.831
186.972
1866.33
1904.96
1930.48
1942.87
1942.26
1928.92
1903.3
1865.95
1817.61
1759.13
1691.5
1615.83
1533.35
1445.42
1353.5
1259.07
1163.55
1068.06
973.026
877.669
779.052
670.832
542.121
380.607
187.912
1839.69
1877.79
1902.97
1915.25
1914.73
1901.7
1876.58
1839.93
1792.46
1735.01
1668.57
1594.22
1513.19
1426.82
1336.52
1243.77
1149.95
1056.1
962.616
868.675
771.345
664.36
537.029
377.304
186.786
1839.69
1877.79
1902.98
1915.25
1914.73
1901.7
1876.58
1839.93
1792.46
1735.02
1668.57
1594.22
1513.2
1426.82
1336.52
1243.78
1149.95
1056.1
962.617
868.676
771.346
664.361
537.03
377.304
186.786
1866.33
1904.96
1930.48
1942.87
1942.26
1928.92
1903.3
1865.95
1817.61
1759.13
1691.5
1615.83
1533.35
1445.42
1353.5
1259.07
1163.55
1068.05
973.026
877.669
779.052
670.832
542.121
380.607
187.912
)
;

boundaryField
{
    outletCentralUnloaded
    {
        type            zeroGradient;
    }
    inletCentralUnloaded
    {
        type            zeroGradient;
    }
    outletFuelElement
    {
        type            zeroGradient;
    }
    inletFuelElement
    {
        type            zeroGradient;
    }
    defaultFaces
    {
        type            zeroGradient;
    }
}


// ************************************************************************* //
