/*--------------------------------*- C++ -*----------------------------------*\
| =========                 |                                                 |
| \\      /  F ield         | OpenFOAM: The Open Source CFD Toolbox           |
|  \\    /   O peration     | Version:  2212                                  |
|   \\  /    A nd           | Website:  www.openfoam.com                      |
|    \\/     M anipulation  |                                                 |
\*---------------------------------------------------------------------------*/
FoamFile
{
    version     2.0;
    format      ascii;
    arch        "LSB;label=32;scalar=64";
    class       surfaceScalarField;
    location    "54/fluidRegion";
    object      alphaPhi;
}
// * * * * * * * * * * * * * * * * * * * * * * * * * * * * * * * * * * * * * //

dimensions      [0 3 -1 0 0 0 0];

oriented        oriented;

internalField   nonuniform List<scalar> 
661
(
-0.000538991
-6.27419e-11
-0.00053895
-6.5898e-11
-0.000538907
-3.25074e-11
-0.000538856
1.48695e-11
-0.000538797
6.22488e-11
-0.000538736
9.92239e-11
-0.000538679
1.2054e-10
-0.000538633
1.22798e-10
-0.000538597
1.03841e-10
-0.000538565
6.49958e-11
-0.000538531
1.32752e-11
-0.000538491
-3.96971e-11
-0.000538443
-8.18904e-11
-0.000538389
-1.05461e-10
-0.000538332
-1.09017e-10
-0.000538276
-9.67197e-11
-0.000538225
-7.52819e-11
-0.000538179
-5.08397e-11
-0.000538137
-2.73886e-11
-0.000538096
-7.43563e-12
-0.000538055
6.04174e-12
-0.000538011
8.51978e-12
-0.000537969
3.50812e-12
-0.000537932
2.22894e-11
8.07805e-11
-0.000538991
-0.00053895
-0.000538907
-0.000538856
-0.000538797
-0.000538736
-0.000538679
-0.000538633
-0.000538597
-0.000538565
-0.000538531
-0.000538491
-0.000538443
-0.000538389
-0.000538332
-0.000538276
-0.000538225
-0.000538179
-0.000538137
-0.000538096
-0.000538055
-0.000538011
-0.000537969
-0.000537932
-0.0202216
1.41383e-06
-0.0197941
6.73823e-07
-0.0192503
7.31002e-07
-0.018599
6.58237e-07
-0.0178498
5.95734e-07
-0.0170128
5.37595e-07
-0.016098
4.83692e-07
-0.0151159
4.31526e-07
-0.0140774
3.75316e-07
-0.0129935
3.05674e-07
-0.0118762
2.10698e-07
-0.0107383
7.87982e-08
-0.00959399
-9.35658e-08
-0.00845903
-2.92404e-07
-0.00735029
-4.95252e-07
-0.00628493
-6.67968e-07
-0.00527916
-7.83859e-07
-0.00434714
-8.35827e-07
-0.00350044
-8.37663e-07
-0.00274879
-8.13718e-07
-0.00210091
-7.86265e-07
-0.00156618
-7.60688e-07
-0.0011553
-7.2598e-07
-0.000879348
-6.31003e-07
-6.01032e-07
-0.0203515
-4.22933e-08
-3.44477e-08
-0.0199231
-1.78507e-07
-1.72599e-07
-0.0193771
-1.70078e-07
-1.61207e-07
-0.0187228
-1.47841e-07
-1.38071e-07
-0.0179698
-1.28286e-07
-1.19296e-07
-0.0171282
-1.1011e-07
-1.02563e-07
-0.0162081
-9.33644e-08
-8.74973e-08
-0.0152202
-7.75214e-08
-7.2976e-08
-0.0141752
-6.10537e-08
-5.76245e-08
-0.0130842
-4.12896e-08
-3.86487e-08
-0.0119593
-1.45697e-08
-1.23878e-08
-0.0108133
2.27152e-08
2.45072e-08
-0.00966044
7.08015e-08
7.26404e-08
-0.0085167
1.30993e-07
1.32975e-07
-0.00739911
1.93103e-07
1.95435e-07
-0.0063251
2.47314e-07
2.50145e-07
-0.00531114
2.8456e-07
2.8815e-07
-0.00437161
3.01826e-07
3.06436e-07
-0.00351825
3.02897e-07
3.09005e-07
-0.0027609
2.95279e-07
3.0337e-07
-0.00210835
2.85673e-07
2.95911e-07
-0.00157004
2.74766e-07
2.85964e-07
-0.00115675
2.55497e-07
2.66542e-07
-0.000879543
2.01749e-07
2.10822e-07
1.54111e-07
1.59471e-07
-0.0202003
6.91966e-07
-0.0197732
6.52853e-07
-0.0192298
6.2753e-07
-0.018579
5.57844e-07
-0.0178306
4.9594e-07
-0.0169943
4.39311e-07
-0.0160804
3.86929e-07
-0.0150993
3.35652e-07
-0.0140619
2.79021e-07
-0.0129792
2.06744e-07
-0.0118631
1.06144e-07
-0.0107265
-3.35212e-08
-0.00958353
-2.14735e-07
-0.00844996
-4.24169e-07
-0.00734261
-6.34948e-07
-0.0062786
-8.11054e-07
-0.0052741
-9.25266e-07
-0.00434322
-9.71718e-07
-0.00349754
-9.66428e-07
-0.00274676
-9.35311e-07
-0.00209958
-8.99867e-07
-0.00156538
-8.63593e-07
-0.00115486
-8.03461e-07
-0.00087913
-6.65241e-07
-5.40901e-07
-0.0203226
2.81761e-09
-0.0198943
-6.61182e-10
-0.0193487
-4.46765e-10
-0.018695
-5.31507e-10
-0.0179429
-4.87493e-10
-0.0171022
-3.94008e-10
-0.0161833
-3.48874e-10
-0.0151967
-2.01423e-10
-0.014153
-6.9393e-11
-0.0130637
3.72955e-11
-0.0119404
2.42387e-10
-0.0107962
4.57029e-10
-0.00964532
6.8968e-10
-0.00850356
8.92649e-10
-0.00738797
1.0508e-09
-0.00631593
1.15514e-09
-0.00530384
1.28274e-09
-0.00436602
1.46589e-09
-0.00351418
1.60339e-09
-0.00275814
1.73898e-09
-0.00210666
1.80324e-09
-0.00156917
1.56669e-09
-0.00115644
1.15273e-09
-0.000879524
1.0845e-09
1.31777e-09
-0.0203226
-6.85787e-07
-0.0198943
-6.54054e-07
-0.0193487
-6.28041e-07
-0.0186951
-5.58609e-07
-0.0179429
-4.96767e-07
-0.0171022
-4.401e-07
-0.0161833
-3.87691e-07
-0.0151967
-3.36221e-07
-0.0141531
-2.79413e-07
-0.0130637
-2.06973e-07
-0.0119404
-1.06037e-07
-0.0107962
3.39189e-08
-0.00964533
2.15504e-07
-0.00850357
4.25214e-07
-0.00738798
6.36189e-07
-0.00631594
8.12411e-07
-0.00530384
9.26808e-07
-0.00436602
9.73552e-07
-0.00351419
9.68562e-07
-0.00275814
9.37837e-07
-0.00210667
9.02778e-07
-0.00156918
8.6654e-07
-0.00115644
8.06299e-07
-0.000879526
6.68416e-07
5.44659e-07
-0.0202003
3.80873e-08
-0.0197732
1.79627e-07
-0.0192298
1.71867e-07
-0.0185791
1.49955e-07
-0.0178306
1.30078e-07
-0.0169943
1.1121e-07
-0.0160804
9.36952e-08
-0.0150993
7.7227e-08
-0.0140619
6.01194e-08
-0.0129792
3.98472e-08
-0.0118631
1.26449e-08
-0.0107265
-2.48292e-08
-0.00958354
-7.3205e-08
-0.00844997
-1.33574e-07
-0.00734261
-1.9588e-07
-0.0062786
-2.50284e-07
-0.0052741
-2.87702e-07
-0.00434323
-3.05116e-07
-0.00349754
-3.06367e-07
-0.00274676
-2.98863e-07
-0.00209958
-2.89408e-07
-0.00156538
-2.78702e-07
-0.00115486
-2.59675e-07
-0.000879128
-2.05503e-07
-1.54316e-07
-0.0203515
-1.41285e-06
-3.89568e-08
-0.0199231
-6.71354e-07
-1.72955e-07
-0.0193771
-7.26682e-07
-1.62484e-07
-0.0187228
-6.53487e-07
-1.39399e-07
-0.0179698
-5.91627e-07
-1.2045e-07
-0.0171282
-5.345e-07
-1.03559e-07
-0.0162081
-4.817e-07
-8.8277e-08
-0.0152202
-4.30329e-07
-7.37219e-08
-0.0141752
-3.74911e-07
-5.83291e-08
-0.0130842
-3.05783e-07
-3.93713e-08
-0.0119593
-2.11181e-07
-1.33204e-08
-0.0108133
-7.94143e-08
2.34844e-08
-0.00966044
9.29306e-08
7.12396e-08
-0.0085167
2.91848e-07
1.31235e-07
-0.00739911
4.94866e-07
1.9328e-07
-0.0063251
6.67868e-07
2.4747e-07
-0.00531114
7.84316e-07
2.84654e-07
-0.00437161
8.37172e-07
3.01696e-07
-0.00351825
8.40428e-07
3.02444e-07
-0.0027609
8.18501e-07
2.94452e-07
-0.00210835
7.94056e-07
2.83592e-07
-0.00157004
7.71822e-07
2.70117e-07
-0.00115675
7.40873e-07
2.47297e-07
-0.000879543
6.48263e-07
1.90243e-07
6.19637e-07
1.42688e-07
-0.0202216
-0.0197941
-0.0192503
-0.018599
-0.0178498
-0.0170128
-0.016098
-0.0151159
-0.0140774
-0.0129935
-0.0118762
-0.0107383
-0.00959399
-0.00845903
-0.00735029
-0.00628493
-0.00527916
-0.00434714
-0.00350044
-0.00274879
-0.00210091
-0.00156618
-0.0011553
-0.000879348
-0.0203226
-6.94113e-07
3.68675e-09
-0.0198943
-6.55312e-07
2.00166e-10
-0.0193487
-6.30099e-07
6.63993e-10
-0.018695
-5.60552e-07
8.32206e-10
-0.0179429
-4.98584e-07
8.74408e-10
-0.0171022
-4.41919e-07
1.06331e-09
-0.0161833
-3.89501e-07
1.22593e-09
-0.0151967
-3.38106e-07
1.40203e-09
-0.014153
-2.81419e-07
1.55646e-09
-0.0130637
-2.09088e-07
1.76193e-09
-0.0119404
-1.08391e-07
2.00373e-09
-0.0107962
3.14628e-08
1.92195e-09
-0.00964532
2.12818e-07
2.18542e-09
-0.00850356
4.2234e-07
2.36691e-09
-0.00738797
6.33036e-07
2.67091e-09
-0.00631593
8.08891e-07
3.09642e-09
-0.00530384
9.22638e-07
3.71837e-09
-0.00436602
9.68323e-07
4.58822e-09
-0.00351418
9.61538e-07
6.05096e-09
-0.00275814
9.28262e-07
8.06744e-09
-0.00210666
8.88918e-07
1.11836e-08
-0.00156917
8.47433e-07
1.47474e-08
-0.00115644
7.8161e-07
1.90345e-08
-0.000879524
6.39774e-07
2.07208e-08
5.20072e-07
1.66723e-08
-0.0202003
-0.0197732
-0.0192298
-0.018579
-0.0178306
-0.0169943
-0.0160804
-0.0150993
-0.0140619
-0.0129792
-0.0118631
-0.0107265
-0.00958353
-0.00844996
-0.00734261
-0.0062786
-0.0052741
-0.00434323
-0.00349754
-0.00274676
-0.00209958
-0.00156538
-0.00115486
-0.000879132
-0.0202003
6.86984e-07
-0.0197732
6.57424e-07
-0.0192298
6.33863e-07
-0.0185791
5.64997e-07
-0.0178306
5.02311e-07
-0.0169943
4.44142e-07
-0.0160804
3.90077e-07
-0.0150993
3.37401e-07
-0.0140619
2.79423e-07
-0.0129792
2.06182e-07
-0.0118631
1.0458e-07
-0.0107265
-3.54179e-08
-0.00958354
-2.17216e-07
-0.00844997
-4.26908e-07
-0.00734261
-6.37846e-07
-0.0062786
-8.13985e-07
-0.0052741
-9.28093e-07
-0.00434323
-9.74266e-07
-0.00349754
-9.68284e-07
-0.00274676
-9.35715e-07
-0.00209958
-8.9839e-07
-0.00156538
-8.60121e-07
-0.00115486
-7.98234e-07
-0.000879128
-6.58951e-07
-5.31241e-07
-0.0203226
-0.0198943
-0.0193487
-0.0186951
-0.0179429
-0.0171022
-0.0161833
-0.0151967
-0.0141531
-0.0130637
-0.0119404
-0.0107962
-0.00964533
-0.00850357
-0.00738798
-0.00631594
-0.00530384
-0.00436602
-0.00351419
-0.00275814
-0.00210667
-0.00156918
-0.00115644
-0.000879526
)
;

boundaryField
{
    outletCentralUnloaded
    {
        type            calculated;
        value           nonuniform List<scalar> 2(0.000539035 0.000539035);
    }
    inletCentralUnloaded
    {
        type            calculated;
        value           uniform -0.000540134;
    }
    outletFuelElement
    {
        type            calculated;
        value           nonuniform List<scalar> 
12
(
0.0205619
0.0206949
0.0205411
0.0206652
0.0206652
0.0205411
0.0206949
0.0205619
0.0206652
0.0205411
0.0205411
0.0206652
)
;
    }
    inletFuelElement
    {
        type            calculated;
        value           nonuniform List<scalar> 
12
(
-0.000722059
-0.00072206
-0.000722059
-0.000722059
-0.00072206
-0.000722059
-0.00072206
-0.000722059
-0.000722059
-0.000722059
-0.000722059
-0.00072206
)
;
    }
    defaultFaces
    {
        type            calculated;
        value           nonuniform List<scalar> 
450
(
1.42284e-23
-3.67118e-23
0
2.96748e-23
-7.61216e-24
0
2.08983e-23
1.11327e-23
0
-4.91361e-23
-1.68402e-23
0
-1.80338e-23
-3.26435e-23
0
-3.34381e-23
-2.04247e-23
0
-3.09352e-23
-9.09362e-24
0
-2.37299e-23
-1.67124e-23
0
-2.20953e-23
-2.33062e-24
0
-1.96505e-23
-1.34796e-23
0
-1.44127e-23
-3.58808e-24
0
-5.38451e-24
-3.28654e-24
0
8.19197e-24
3.56902e-24
0
2.18148e-23
8.18739e-24
0
2.7081e-23
1.99349e-23
0
3.62581e-23
2.58263e-23
0
2.56785e-23
-4.75045e-24
0
5.17008e-23
4.19574e-23
0
4.57438e-23
-4.17696e-23
0
-1.32508e-23
-2.99427e-23
0
-1.16425e-23
-1.67382e-23
0
2.50131e-23
-1.95122e-24
0
-1.67345e-23
9.18985e-24
0
-2.65987e-23
-1.95524e-23
0
-1.42383e-23
-1.95756e-23
0
3.00851e-23
0
2.40681e-23
0
0
0
1.60454e-23
0
-1.2034e-23
0
1.2034e-23
0
1.2034e-23
0
8.0227e-24
0
-2.00567e-24
0
6.01702e-24
0
3.00851e-24
0
-1.00284e-24
0
-6.01702e-24
0
-1.2034e-23
0
-2.40681e-23
0
-2.40681e-23
0
4.81362e-23
0
-3.20908e-23
0
0
0
-3.20908e-23
0
-4.01135e-23
0
5.61589e-23
0
8.0227e-24
0
-3.20908e-23
0
-1.60454e-23
0
0
-1.60454e-23
8.0227e-24
-8.0227e-24
1.60454e-23
-8.0227e-24
-8.0227e-24
-8.0227e-24
1.2034e-23
0
0
1.00284e-24
4.01135e-24
8.0227e-24
8.0227e-24
3.20908e-23
-3.20908e-23
1.60454e-23
-1.60454e-23
3.20908e-23
0
-3.20908e-23
-1.60454e-23
0
8.0227e-24
0
0
0
0
0
0
0
0
0
0
0
0
0
0
0
0
0
0
0
0
0
0
0
0
0
-1.2034e-23
1.60454e-23
8.0227e-24
2.40681e-23
1.60454e-23
4.81362e-23
-1.60454e-23
-1.2034e-23
1.2034e-23
-8.0227e-24
-1.60454e-23
-8.0227e-24
-8.0227e-24
-1.2034e-23
-8.0227e-24
-8.0227e-24
2.00567e-23
-4.01135e-24
-6.01702e-24
-6.01702e-24
-4.01135e-24
-2.00567e-24
-1.00284e-24
1.25355e-24
4.01135e-24
6.01702e-24
8.0227e-24
1.2034e-23
2.40681e-23
2.40681e-23
2.40681e-23
2.40681e-23
-3.20908e-23
4.81362e-23
3.20908e-23
2.40681e-23
-6.41816e-23
4.81362e-23
-4.81362e-23
-3.20908e-23
0
-3.20908e-23
-2.40681e-23
4.01135e-23
-2.40681e-23
-3.20908e-23
0
-2.40681e-23
-2.40681e-23
-1.2034e-23
-1.13696e-23
0
0
1.12485e-23
0
-8.0227e-24
1.33048e-23
0
-4.81362e-23
-5.94914e-23
0
1.60454e-23
1.61317e-23
0
0
-4.90957e-23
0
8.0227e-24
-3.72967e-23
0
8.0227e-24
-4.32424e-23
0
8.0227e-24
-2.27177e-23
0
-8.0227e-24
-3.02477e-23
0
8.0227e-24
-1.75344e-23
0
4.01135e-24
-7.44003e-24
0
0
9.97104e-24
-0
-2.00567e-24
2.57873e-23
-0
-4.01135e-24
4.31055e-23
-0
0
5.2241e-23
-0
-2.40681e-23
3.77903e-23
-0
-1.60454e-23
6.58741e-23
-0
-1.60454e-23
4.29948e-23
-0
-1.60454e-23
-2.19987e-23
-0
3.20908e-23
-1.91851e-23
-0
0
2.21269e-23
-0
0
-1.30598e-23
-0
0
-1.23119e-23
-0
2.40681e-23
-9.8989e-24
-0
0
0
-8.0227e-24
-8.0227e-24
-1.60454e-23
8.0227e-24
-8.0227e-24
-8.0227e-24
-8.0227e-24
-4.01135e-24
-4.01135e-24
-2.00567e-24
5.01419e-25
4.01135e-24
0
0
1.60454e-23
-1.60454e-23
3.20908e-23
-6.41816e-23
0
1.60454e-23
-3.20908e-23
-1.60454e-23
8.0227e-24
0
3.20908e-23
0
3.20908e-23
0
-8.0227e-24
0
2.40681e-23
0
-4.01135e-24
0
8.0227e-24
0
8.0227e-24
0
8.0227e-24
0
-4.01135e-24
0
6.01702e-24
0
2.50709e-24
0
-2.00567e-24
0
-2.00567e-24
-0
-1.60454e-23
-0
-2.40681e-23
-0
-4.01135e-23
-0
4.81362e-23
-0
-3.20908e-23
-0
4.81362e-23
-0
-4.81362e-23
-0
-2.40681e-23
-0
2.40681e-23
-0
1.60454e-23
-0
-3.20908e-23
-0
-2.40681e-23
-0
-1.90539e-23
0
-8.0227e-24
1.60454e-23
-1.60454e-23
2.40681e-23
-1.2034e-23
-4.41248e-23
4.01135e-24
1.60454e-23
-1.2034e-23
-3.61021e-23
-8.0227e-24
-2.80794e-23
-8.0227e-24
-2.80794e-23
4.01135e-24
-1.2034e-23
-4.01135e-24
-1.40397e-23
-2.50709e-24
-4.01135e-24
0
4.51277e-24
4.01135e-24
1.60454e-23
1.2034e-23
4.01135e-23
1.60454e-23
5.61589e-23
1.60454e-23
7.22043e-23
8.0227e-24
4.01135e-23
1.60454e-23
8.82497e-23
-1.60454e-23
5.61589e-23
0
-1.60454e-23
0
-3.20908e-23
-1.60454e-23
2.40681e-23
2.40681e-23
-2.40681e-23
0
-2.00567e-23
0
-2.00567e-23
-0
-0
-0
-0
-0
-0
-0
-0
-0
-0
-0
0
0
0
0
0
0
0
0
0
0
0
0
0
0
)
;
    }
    baffle_master
    {
        type            calculated;
        value           nonuniform List<scalar> 
150
(
-1.50992e-28
0
1.46518e-27
-1.00396e-28
0
-1.46518e-27
-4.60705e-28
0
-7.32588e-28
-1.56712e-28
0
-1.83147e-28
3.53131e-27
0
1.46518e-27
-1.32224e-28
0
0
9.78055e-29
0
-1.46518e-27
7.15709e-28
0
0
-7.31487e-28
0
1.46518e-27
1.05105e-27
0
1.46518e-27
-1.36569e-28
0
0
8.32512e-30
0
-7.32588e-28
2.33103e-28
0
0
-4.78659e-29
0
-1.46518e-27
3.26812e-28
0
0
-7.70807e-29
0
-1.46518e-27
6.24379e-27
0
5.8607e-27
7.14862e-28
0
0
1.5994e-27
0
7.32588e-28
-6.96778e-29
0
1.83147e-28
2.88658e-29
0
0
4.50075e-28
0
1.83147e-28
3.75168e-29
0
4.57867e-29
-1.67548e-28
0
-7.32588e-28
-1.22539e-27
0
0
2.93035e-27
-3.07596e-27
0
0
-1.88599e-27
0
7.32588e-28
-1.45627e-27
0
-1.83147e-28
4.3694e-28
-0
0
-6.03481e-28
-0
-1.46518e-27
4.31371e-27
-0
-1.46518e-27
5.16335e-27
-0
-2.93035e-27
4.8006e-27
-0
1.46518e-27
4.81221e-27
-0
0
1.5235e-27
-0
-1.83147e-28
4.97196e-28
-0
1.46518e-27
-1.59893e-27
0
2.93035e-27
-2.51877e-27
0
1.46518e-27
-3.74218e-27
0
2.93035e-27
-3.48659e-27
0
2.93035e-27
-4.20435e-27
0
-2.93035e-27
-2.5397e-27
0
0
-1.43653e-27
0
-3.66294e-28
4.08138e-28
0
9.15735e-29
1.93437e-28
0
0
-9.42677e-29
-0
3.66294e-28
-4.1812e-28
-0
1.3736e-28
1.31997e-28
-0
0
-8.31881e-28
-0
0
-2.75608e-27
-0
)
;
    }
    baffle_slave
    {
        type            calculated;
        value           nonuniform List<scalar> 
150
(
-4.76348e-24
-0
0
1.00284e-24
-0
0
2.7578e-24
-0
8.0227e-24
-5.01419e-25
-0
8.0227e-24
-2.7578e-23
-0
-1.60454e-23
1.25355e-24
-0
0
-2.50709e-24
-0
8.0227e-24
5.01419e-25
-0
0
5.64096e-24
-0
0
3.76064e-25
-0
0
1.56693e-24
-0
0
3.76064e-25
0
-5.01419e-25
-1.25355e-25
0
0
5.64096e-25
0
0
0
0
8.0227e-24
-1.75497e-24
0
-1.60454e-23
-4.77601e-23
0
-4.81362e-23
2.50709e-25
0
0
-3.88599e-23
0
-3.20908e-23
1.75497e-24
0
0
7.52128e-24
0
-3.20908e-23
2.35667e-23
0
6.41816e-23
0
0
0
-3.00851e-24
0
-1.60454e-23
-1.50426e-24
0
-8.0227e-24
-5.96318e-24
5.6911e-23
0
-9.80172e-24
2.08089e-23
0
3.19177e-24
2.60738e-23
0
-6.61178e-24
2.10596e-23
0
-1.10375e-23
-3.00851e-23
0
-1.84584e-24
1.5544e-23
0
-7.48965e-24
1.05298e-23
0
-5.48918e-24
8.90018e-24
0
9.382e-24
1.10312e-23
0
-2.06566e-24
1.09529e-23
0
-5.00777e-24
6.4871e-24
0
8.51987e-25
4.07403e-24
0
6.63949e-24
-8.77483e-25
0
5.986e-24
-6.51844e-24
0
1.14544e-24
-1.24101e-23
0
-9.21529e-25
-1.27862e-23
0
-6.07869e-23
-1.61708e-23
0
1.75502e-23
-2.26892e-23
0
-2.81853e-23
-4.51277e-24
0
-3.00236e-24
1.04044e-23
0
-1.6406e-23
1.02791e-23
0
-1.94861e-23
2.30653e-23
0
-3.29356e-23
-1.65468e-23
0
3.52112e-24
1.15326e-23
0
-2.58567e-24
1.15326e-23
0
)
;
    }
}


// ************************************************************************* //
