/*--------------------------------*- C++ -*----------------------------------*\
| =========                 |                                                 |
| \\      /  F ield         | OpenFOAM: The Open Source CFD Toolbox           |
|  \\    /   O peration     | Version:  2212                                  |
|   \\  /    A nd           | Website:  www.openfoam.com                      |
|    \\/     M anipulation  |                                                 |
\*---------------------------------------------------------------------------*/
FoamFile
{
    version     2.0;
    format      ascii;
    arch        "LSB;label=32;scalar=64";
    class       volScalarField;
    location    "54/fluidRegion";
    object      alphat;
}
// * * * * * * * * * * * * * * * * * * * * * * * * * * * * * * * * * * * * * //

dimensions      [1 -1 -1 0 0 0 0];

internalField   nonuniform List<scalar> 
350
(
0.00258566
0.00258565
0.00258563
0.00258563
0.00258562
0.00258562
0.00258562
0.00258562
0.00258562
0.00258563
0.00258566
0.00258571
0.00258579
0.00258591
0.00258608
0.00258632
0.00258665
0.00258713
0.00258783
0.00258887
0.00259045
0.00259286
0.00259656
0.00260225
0.00261099
0.00258566
0.00258565
0.00258563
0.00258563
0.00258562
0.00258562
0.00258562
0.00258562
0.00258562
0.00258563
0.00258566
0.00258571
0.00258579
0.00258591
0.00258608
0.00258632
0.00258665
0.00258713
0.00258783
0.00258887
0.00259045
0.00259286
0.00259656
0.00260225
0.00261099
0.000895841
0.000884231
0.000872817
0.000861244
0.000849404
0.000837192
0.000824504
0.000811241
0.000797317
0.000782668
0.000767263
0.000751108
0.000734246
0.000716748
0.000698693
0.000680177
0.000661376
0.000642747
0.000625468
0.000612376
0.000609867
0.000631325
0.000699558
0.000832274
0.00100214
0.000887985
0.000876389
0.000865011
0.00085348
0.000841691
0.000829538
0.000816915
0.000803723
0.000789875
0.000775307
0.000759988
0.00074393
0.000727184
0.000709833
0.00069197
0.000673699
0.000655195
0.0006369
0.000619973
0.000607223
0.000605028
0.000626813
0.00069561
0.000829577
0.0010014
0.000897094
0.000885471
0.000874048
0.000862462
0.00085061
0.000838384
0.000825681
0.000812401
0.000798461
0.000783794
0.00076837
0.000752194
0.000735308
0.000717779
0.000699687
0.000681126
0.000662271
0.00064358
0.000626237
0.00061308
0.000610509
0.000631904
0.000700053
0.00083261
0.00100226
0.000889789
0.000878194
0.000866811
0.000855273
0.000843474
0.00083131
0.000818674
0.000805467
0.000791602
0.000777016
0.000761677
0.000745596
0.000728823
0.000711437
0.00069353
0.000675202
0.000656629
0.000638257
0.000621248
0.000608419
0.000606152
0.000627862
0.00069653
0.000830209
0.00100157
0.000889789
0.000878194
0.000866811
0.000855273
0.000843474
0.00083131
0.000818674
0.000805467
0.000791602
0.000777016
0.000761677
0.000745596
0.000728823
0.000711438
0.00069353
0.000675202
0.000656629
0.000638257
0.000621249
0.00060842
0.000606152
0.000627862
0.00069653
0.000830208
0.00100157
0.000897094
0.000885471
0.000874047
0.000862462
0.000850609
0.000838383
0.00082568
0.000812401
0.00079846
0.000783794
0.00076837
0.000752194
0.000735308
0.00071778
0.000699688
0.000681127
0.000662272
0.000643582
0.000626238
0.000613082
0.000610511
0.000631906
0.000700055
0.000832613
0.00100226
0.000887985
0.000876389
0.000865011
0.00085348
0.000841691
0.000829538
0.000816915
0.000803723
0.000789875
0.000775307
0.000759988
0.00074393
0.000727184
0.000709833
0.00069197
0.000673699
0.000655194
0.0006369
0.000619973
0.000607223
0.000605029
0.000626813
0.000695609
0.000829576
0.0010014
0.000895841
0.000884231
0.000872817
0.000861244
0.000849404
0.000837192
0.000824504
0.000811241
0.000797317
0.000782668
0.000767263
0.000751108
0.000734246
0.000716748
0.000698693
0.000680177
0.000661377
0.000642747
0.000625469
0.000612379
0.000609871
0.000631331
0.000699567
0.000832285
0.00100215
0.000889789
0.000878194
0.000866811
0.000855273
0.000843475
0.00083131
0.000818674
0.000805467
0.000791602
0.000777016
0.000761677
0.000745596
0.000728823
0.000711438
0.00069353
0.000675202
0.000656629
0.000638257
0.000621249
0.00060842
0.000606153
0.000627864
0.000696533
0.000830212
0.00100158
0.000897094
0.000885471
0.000874048
0.000862462
0.00085061
0.000838384
0.00082568
0.000812401
0.00079846
0.000783794
0.00076837
0.000752194
0.000735307
0.000717779
0.000699687
0.000681125
0.00066227
0.000643578
0.000626234
0.000613076
0.000610502
0.000631894
0.000700038
0.000832592
0.00100224
0.000897094
0.000885471
0.000874048
0.000862462
0.00085061
0.000838384
0.000825681
0.000812402
0.000798461
0.000783795
0.000768371
0.000752195
0.000735309
0.000717781
0.000699689
0.000681128
0.000662273
0.000643583
0.00062624
0.000613084
0.000610512
0.000631906
0.000700054
0.000832611
0.00100226
0.000889789
0.000878194
0.000866811
0.000855273
0.000843475
0.00083131
0.000818674
0.000805467
0.000791602
0.000777016
0.000761677
0.000745596
0.000728823
0.000711438
0.000693531
0.000675203
0.00065663
0.000638259
0.000621251
0.000608423
0.000606158
0.000627871
0.000696543
0.000830225
0.00100159
)
;

boundaryField
{
    outletCentralUnloaded
    {
        type            zeroGradient;
    }
    inletCentralUnloaded
    {
        type            zeroGradient;
    }
    outletFuelElement
    {
        type            zeroGradient;
    }
    inletFuelElement
    {
        type            zeroGradient;
    }
    defaultFaces
    {
        type            zeroGradient;
    }
    baffle_master
    {
        type            calculated;
        value           nonuniform List<scalar> 
150
(
0.00258566
0.00258566
0.00258566
0.00258565
0.00258565
0.00258565
0.00258563
0.00258563
0.00258563
0.00258563
0.00258563
0.00258563
0.00258562
0.00258562
0.00258562
0.00258562
0.00258562
0.00258562
0.00258562
0.00258562
0.00258562
0.00258562
0.00258562
0.00258562
0.00258562
0.00258562
0.00258562
0.00258563
0.00258563
0.00258563
0.00258566
0.00258566
0.00258566
0.00258571
0.00258571
0.00258571
0.00258579
0.00258579
0.00258579
0.00258591
0.00258591
0.00258591
0.00258608
0.00258608
0.00258608
0.00258632
0.00258632
0.00258632
0.00258665
0.00258665
0.00258665
0.00258713
0.00258713
0.00258713
0.00258783
0.00258783
0.00258783
0.00258887
0.00258887
0.00258887
0.00259045
0.00259045
0.00259045
0.00259286
0.00259286
0.00259286
0.00259656
0.00259656
0.00259656
0.00260225
0.00260225
0.00260225
0.00261099
0.00261099
0.00261099
0.00258566
0.00258566
0.00258566
0.00258565
0.00258565
0.00258565
0.00258563
0.00258563
0.00258563
0.00258563
0.00258563
0.00258563
0.00258562
0.00258562
0.00258562
0.00258562
0.00258562
0.00258562
0.00258562
0.00258562
0.00258562
0.00258562
0.00258562
0.00258562
0.00258562
0.00258562
0.00258562
0.00258563
0.00258563
0.00258563
0.00258566
0.00258566
0.00258566
0.00258571
0.00258571
0.00258571
0.00258579
0.00258579
0.00258579
0.00258591
0.00258591
0.00258591
0.00258608
0.00258608
0.00258608
0.00258632
0.00258632
0.00258632
0.00258665
0.00258665
0.00258665
0.00258713
0.00258713
0.00258713
0.00258783
0.00258783
0.00258783
0.00258887
0.00258887
0.00258887
0.00259045
0.00259045
0.00259045
0.00259286
0.00259286
0.00259286
0.00259656
0.00259656
0.00259656
0.00260225
0.00260225
0.00260225
0.00261099
0.00261099
0.00261099
)
;
    }
    baffle_slave
    {
        type            calculated;
        value           nonuniform List<scalar> 
150
(
0.000887985
0.000889789
0.000889789
0.000876389
0.000878194
0.000878194
0.000865011
0.000866811
0.000866811
0.00085348
0.000855273
0.000855273
0.000841691
0.000843474
0.000843475
0.000829538
0.00083131
0.00083131
0.000816915
0.000818674
0.000818674
0.000803723
0.000805467
0.000805467
0.000789875
0.000791602
0.000791602
0.000775307
0.000777016
0.000777016
0.000759988
0.000761677
0.000761677
0.00074393
0.000745596
0.000745596
0.000727184
0.000728823
0.000728823
0.000709833
0.000711437
0.000711438
0.00069197
0.00069353
0.000693531
0.000673699
0.000675202
0.000675203
0.000655195
0.000656629
0.00065663
0.0006369
0.000638257
0.000638259
0.000619973
0.000621248
0.000621251
0.000607223
0.000608419
0.000608423
0.000605028
0.000606152
0.000606158
0.000626813
0.000627862
0.000627871
0.00069561
0.00069653
0.000696543
0.000829577
0.000830209
0.000830225
0.0010014
0.00100157
0.00100159
0.000889789
0.000887985
0.000889789
0.000878194
0.000876389
0.000878194
0.000866811
0.000865011
0.000866811
0.000855273
0.00085348
0.000855273
0.000843474
0.000841691
0.000843475
0.00083131
0.000829538
0.00083131
0.000818674
0.000816915
0.000818674
0.000805467
0.000803723
0.000805467
0.000791602
0.000789875
0.000791602
0.000777016
0.000775307
0.000777016
0.000761677
0.000759988
0.000761677
0.000745596
0.00074393
0.000745596
0.000728823
0.000727184
0.000728823
0.000711438
0.000709833
0.000711438
0.00069353
0.00069197
0.00069353
0.000675202
0.000673699
0.000675202
0.000656629
0.000655194
0.000656629
0.000638257
0.0006369
0.000638257
0.000621249
0.000619973
0.000621249
0.00060842
0.000607223
0.00060842
0.000606152
0.000605029
0.000606153
0.000627862
0.000626813
0.000627864
0.00069653
0.000695609
0.000696533
0.000830208
0.000829576
0.000830212
0.00100157
0.0010014
0.00100158
)
;
    }
}


// ************************************************************************* //
