/*--------------------------------*- C++ -*----------------------------------*\
| =========                 |                                                 |
| \\      /  F ield         | OpenFOAM: The Open Source CFD Toolbox           |
|  \\    /   O peration     | Version:  2212                                  |
|   \\  /    A nd           | Website:  www.openfoam.com                      |
|    \\/     M anipulation  |                                                 |
\*---------------------------------------------------------------------------*/
FoamFile
{
    version     2.0;
    format      ascii;
    arch        "LSB;label=32;scalar=64";
    class       volScalarField;
    location    "54/fluidRegion";
    object      htc;
}
// * * * * * * * * * * * * * * * * * * * * * * * * * * * * * * * * * * * * * //

dimensions      [1 0 -3 -1 0 0 0];

internalField   nonuniform List<scalar> 
350
(
3101.48
3101.51
3101.53
3101.54
3101.51
3101.45
3101.4
3101.39
3101.42
3101.48
3101.55
3101.6
3101.62
3101.61
3101.58
3101.54
3101.51
3101.51
3101.53
3101.56
3101.59
3101.62
3101.65
3101.68
3106.89
3101.48
3101.51
3101.53
3101.54
3101.51
3101.45
3101.4
3101.39
3101.42
3101.48
3101.55
3101.6
3101.62
3101.61
3101.58
3101.54
3101.51
3101.51
3101.53
3101.56
3101.59
3101.62
3101.65
3101.68
3106.89
27248.9
27167.7
26980.7
26668.7
26233.1
25676
25000.3
24209.9
23309.9
22307.6
21212.3
20036.7
18795.8
17506.5
16185.3
14846
13499.1
12152.5
10815.6
9504.27
8246.69
7089.41
6103.59
5383.02
4943.8
27337.8
27256.2
27069.9
26757.9
26321.8
25763.7
25086.4
24293.6
23390.4
22383.7
21282.8
20100.2
18851.2
17553.2
16223.5
14876.5
13523.1
12171.2
10829.6
9513.83
8251.68
7089.91
6100.55
5378.77
4941.83
27234.9
27153.2
26966.2
26654.2
26218.7
25661.8
24986.5
24196.5
23297.1
22295.5
21201.1
20026.6
18787
17499.1
16179.1
14841
13495
12149.2
10813
9502.25
8245.29
7088.58
6103.17
5382.75
4943.65
27318.1
27236.6
27050.1
26738
26302
25744.1
25067.1
24274.8
23372.3
22366.5
21266.9
20085.8
18838.7
17542.7
16214.8
14869.6
13517.7
12167
10826.5
9511.73
8250.63
7089.9
6101.36
5379.87
4942.35
27318.1
27236.6
27050.1
26738
26302
25744.1
25067.1
24274.8
23372.3
22366.5
21266.9
20085.8
18838.7
17542.7
16214.8
14869.6
13517.7
12167
10826.5
9511.73
8250.63
7089.9
6101.36
5379.87
4942.35
27234.9
27153.2
26966.2
26654.3
26218.7
25661.9
24986.5
24196.5
23297.1
22295.5
21201.2
20026.6
18787
17499.1
16179.1
14841
13495
12149.2
10812.9
9502.24
8245.28
7088.57
6103.16
5382.74
4943.65
27337.8
27256.2
27069.9
26757.9
26321.8
25763.7
25086.4
24293.6
23390.4
22383.7
21282.8
20100.2
18851.2
17553.2
16223.5
14876.5
13523.1
12171.2
10829.6
9513.83
8251.68
7089.91
6100.55
5378.77
4941.83
27248.9
27167.7
26980.7
26668.7
26233.1
25676
25000.3
24209.9
23309.9
22307.6
21212.3
20036.7
18795.8
17506.5
16185.3
14846
13499.1
12152.5
10815.6
9504.27
8246.69
7089.41
6103.59
5383.02
4943.8
27318.1
27236.6
27050.1
26738
26302
25744.1
25067.1
24274.8
23372.3
22366.5
21266.9
20085.8
18838.7
17542.7
16214.8
14869.6
13517.7
12167
10826.5
9511.73
8250.63
7089.9
6101.36
5379.87
4942.35
27234.9
27153.2
26966.2
26654.2
26218.7
25661.8
24986.5
24196.5
23297.1
22295.5
21201.1
20026.6
18787
17499.1
16179.1
14841
13495
12149.2
10813
9502.25
8245.29
7088.57
6103.17
5382.76
4943.66
27234.9
27153.2
26966.2
26654.3
26218.7
25661.9
24986.5
24196.5
23297.1
22295.5
21201.2
20026.6
18787
17499.1
16179.1
14841
13495
12149.2
10812.9
9502.24
8245.28
7088.57
6103.16
5382.75
4943.65
27318.1
27236.6
27050.1
26738
26302
25744.1
25067.1
24274.8
23372.3
22366.5
21266.9
20085.8
18838.7
17542.7
16214.8
14869.6
13517.7
12167
10826.5
9511.73
8250.62
7089.9
6101.36
5379.87
4942.35
)
;

boundaryField
{
    outletCentralUnloaded
    {
        type            zeroGradient;
    }
    inletCentralUnloaded
    {
        type            zeroGradient;
    }
    outletFuelElement
    {
        type            zeroGradient;
    }
    inletFuelElement
    {
        type            zeroGradient;
    }
    defaultFaces
    {
        type            zeroGradient;
    }
    baffle_master
    {
        type            zeroGradient;
    }
    baffle_slave
    {
        type            zeroGradient;
    }
}


// ************************************************************************* //
