/*--------------------------------*- C++ -*----------------------------------*\
| =========                 |                                                 |
| \\      /  F ield         | OpenFOAM: The Open Source CFD Toolbox           |
|  \\    /   O peration     | Version:  2212                                  |
|   \\  /    A nd           | Website:  www.openfoam.com                      |
|    \\/     M anipulation  |                                                 |
\*---------------------------------------------------------------------------*/
FoamFile
{
    version     2.0;
    format      ascii;
    arch        "LSB;label=32;scalar=64";
    class       volTensorField;
    location    "54/fluidRegion";
    object      Kd;
}
// * * * * * * * * * * * * * * * * * * * * * * * * * * * * * * * * * * * * * //

dimensions      [1 -3 -1 0 0 0 0];

internalField   nonuniform List<tensor> 
350
(
(84.7447 0 0 0 84.7447 0 0 0 84.7447)
(84.7449 0 0 0 84.7449 0 0 0 84.7449)
(84.7452 0 0 0 84.7452 0 0 0 84.7452)
(84.7449 0 0 0 84.7449 0 0 0 84.7449)
(84.7437 0 0 0 84.7437 0 0 0 84.7437)
(84.7418 0 0 0 84.7418 0 0 0 84.7418)
(84.7401 0 0 0 84.7401 0 0 0 84.7401)
(84.7393 0 0 0 84.7393 0 0 0 84.7393)
(84.7396 0 0 0 84.7396 0 0 0 84.7396)
(84.7408 0 0 0 84.7408 0 0 0 84.7408)
(84.7422 0 0 0 84.7422 0 0 0 84.7422)
(84.7431 0 0 0 84.7431 0 0 0 84.7431)
(84.7432 0 0 0 84.7432 0 0 0 84.7432)
(84.7424 0 0 0 84.7424 0 0 0 84.7424)
(84.7411 0 0 0 84.7411 0 0 0 84.7411)
(84.7397 0 0 0 84.7397 0 0 0 84.7397)
(84.7387 0 0 0 84.7387 0 0 0 84.7387)
(84.7382 0 0 0 84.7382 0 0 0 84.7382)
(84.7382 0 0 0 84.7382 0 0 0 84.7382)
(84.7386 0 0 0 84.7386 0 0 0 84.7386)
(84.739 0 0 0 84.739 0 0 0 84.739)
(84.7393 0 0 0 84.7393 0 0 0 84.7393)
(84.7396 0 0 0 84.7396 0 0 0 84.7396)
(84.7401 0 0 0 84.7401 0 0 0 84.7401)
(84.8731 0 0 0 84.8731 0 0 0 84.8731)
(84.7447 0 0 0 84.7447 0 0 0 84.7447)
(84.7449 0 0 0 84.7449 0 0 0 84.7449)
(84.7452 0 0 0 84.7452 0 0 0 84.7452)
(84.7449 0 0 0 84.7449 0 0 0 84.7449)
(84.7437 0 0 0 84.7437 0 0 0 84.7437)
(84.7418 0 0 0 84.7418 0 0 0 84.7418)
(84.7401 0 0 0 84.7401 0 0 0 84.7401)
(84.7393 0 0 0 84.7393 0 0 0 84.7393)
(84.7396 0 0 0 84.7396 0 0 0 84.7396)
(84.7408 0 0 0 84.7408 0 0 0 84.7408)
(84.7422 0 0 0 84.7422 0 0 0 84.7422)
(84.7431 0 0 0 84.7431 0 0 0 84.7431)
(84.7432 0 0 0 84.7432 0 0 0 84.7432)
(84.7424 0 0 0 84.7424 0 0 0 84.7424)
(84.7411 0 0 0 84.7411 0 0 0 84.7411)
(84.7397 0 0 0 84.7397 0 0 0 84.7397)
(84.7387 0 0 0 84.7387 0 0 0 84.7387)
(84.7382 0 0 0 84.7382 0 0 0 84.7382)
(84.7382 0 0 0 84.7382 0 0 0 84.7382)
(84.7386 0 0 0 84.7386 0 0 0 84.7386)
(84.739 0 0 0 84.739 0 0 0 84.739)
(84.7393 0 0 0 84.7393 0 0 0 84.7393)
(84.7396 0 0 0 84.7396 0 0 0 84.7396)
(84.7401 0 0 0 84.7401 0 0 0 84.7401)
(84.8731 0 0 0 84.8731 0 0 0 84.8731)
(682.612 0 0 0 682.612 0 0 0 682.612)
(682.156 0 0 0 682.156 0 0 0 682.156)
(682.167 0 0 0 682.167 0 0 0 682.167)
(682.169 0 0 0 682.169 0 0 0 682.169)
(682.16 0 0 0 682.16 0 0 0 682.16)
(682.138 0 0 0 682.138 0 0 0 682.138)
(682.102 0 0 0 682.102 0 0 0 682.102)
(682.05 0 0 0 682.05 0 0 0 682.05)
(681.981 0 0 0 681.981 0 0 0 681.981)
(681.892 0 0 0 681.892 0 0 0 681.892)
(681.782 0 0 0 681.782 0 0 0 681.782)
(681.65 0 0 0 681.65 0 0 0 681.65)
(681.498 0 0 0 681.498 0 0 0 681.498)
(681.325 0 0 0 681.325 0 0 0 681.325)
(681.129 0 0 0 681.129 0 0 0 681.129)
(680.899 0 0 0 680.899 0 0 0 680.899)
(680.62 0 0 0 680.62 0 0 0 680.62)
(680.273 0 0 0 680.273 0 0 0 680.273)
(679.851 0 0 0 679.851 0 0 0 679.851)
(679.409 0 0 0 679.409 0 0 0 679.409)
(679.125 0 0 0 679.125 0 0 0 679.125)
(679.552 0 0 0 679.552 0 0 0 679.552)
(682.022 0 0 0 682.022 0 0 0 682.022)
(688.9 0 0 0 688.9 0 0 0 688.9)
(693.408 0 0 0 693.408 0 0 0 693.408)
(678.073 0 0 0 678.073 0 0 0 678.073)
(677.545 0 0 0 677.545 0 0 0 677.545)
(677.518 0 0 0 677.518 0 0 0 677.518)
(677.481 0 0 0 677.481 0 0 0 677.481)
(677.436 0 0 0 677.436 0 0 0 677.436)
(677.381 0 0 0 677.381 0 0 0 677.381)
(677.314 0 0 0 677.314 0 0 0 677.314)
(677.234 0 0 0 677.234 0 0 0 677.234)
(677.138 0 0 0 677.138 0 0 0 677.138)
(677.024 0 0 0 677.024 0 0 0 677.024)
(676.894 0 0 0 676.894 0 0 0 676.894)
(676.751 0 0 0 676.751 0 0 0 676.751)
(676.602 0 0 0 676.602 0 0 0 676.602)
(676.455 0 0 0 676.455 0 0 0 676.455)
(676.318 0 0 0 676.318 0 0 0 676.318)
(676.191 0 0 0 676.191 0 0 0 676.191)
(676.063 0 0 0 676.063 0 0 0 676.063)
(675.916 0 0 0 675.916 0 0 0 675.916)
(675.745 0 0 0 675.745 0 0 0 675.745)
(675.607 0 0 0 675.607 0 0 0 675.607)
(675.696 0 0 0 675.696 0 0 0 675.696)
(676.595 0 0 0 676.595 0 0 0 676.595)
(679.692 0 0 0 679.692 0 0 0 679.692)
(687.411 0 0 0 687.411 0 0 0 687.411)
(692.923 0 0 0 692.923 0 0 0 692.923)
(683.37 0 0 0 683.37 0 0 0 683.37)
(682.91 0 0 0 682.91 0 0 0 682.91)
(682.925 0 0 0 682.925 0 0 0 682.925)
(682.93 0 0 0 682.93 0 0 0 682.93)
(682.923 0 0 0 682.923 0 0 0 682.923)
(682.903 0 0 0 682.903 0 0 0 682.903)
(682.868 0 0 0 682.868 0 0 0 682.868)
(682.818 0 0 0 682.818 0 0 0 682.818)
(682.749 0 0 0 682.749 0 0 0 682.749)
(682.659 0 0 0 682.659 0 0 0 682.659)
(682.548 0 0 0 682.548 0 0 0 682.548)
(682.413 0 0 0 682.413 0 0 0 682.413)
(682.255 0 0 0 682.255 0 0 0 682.255)
(682.072 0 0 0 682.072 0 0 0 682.072)
(681.859 0 0 0 681.859 0 0 0 681.859)
(681.606 0 0 0 681.606 0 0 0 681.606)
(681.295 0 0 0 681.295 0 0 0 681.295)
(680.907 0 0 0 680.907 0 0 0 680.907)
(680.436 0 0 0 680.436 0 0 0 680.436)
(679.934 0 0 0 679.934 0 0 0 679.934)
(679.578 0 0 0 679.578 0 0 0 679.578)
(679.914 0 0 0 679.914 0 0 0 679.914)
(682.269 0 0 0 682.269 0 0 0 682.269)
(689.012 0 0 0 689.012 0 0 0 689.012)
(693.425 0 0 0 693.425 0 0 0 693.425)
(679.089 0 0 0 679.089 0 0 0 679.089)
(678.581 0 0 0 678.581 0 0 0 678.581)
(678.565 0 0 0 678.565 0 0 0 678.565)
(678.539 0 0 0 678.539 0 0 0 678.539)
(678.504 0 0 0 678.504 0 0 0 678.504)
(678.458 0 0 0 678.458 0 0 0 678.458)
(678.4 0 0 0 678.4 0 0 0 678.4)
(678.328 0 0 0 678.328 0 0 0 678.328)
(678.24 0 0 0 678.24 0 0 0 678.24)
(678.134 0 0 0 678.134 0 0 0 678.134)
(678.01 0 0 0 678.01 0 0 0 678.01)
(677.871 0 0 0 677.871 0 0 0 677.871)
(677.723 0 0 0 677.723 0 0 0 677.723)
(677.572 0 0 0 677.572 0 0 0 677.572)
(677.424 0 0 0 677.424 0 0 0 677.424)
(677.275 0 0 0 677.275 0 0 0 677.275)
(677.114 0 0 0 677.114 0 0 0 677.114)
(676.923 0 0 0 676.923 0 0 0 676.923)
(676.695 0 0 0 676.695 0 0 0 676.695)
(676.489 0 0 0 676.489 0 0 0 676.489)
(676.495 0 0 0 676.495 0 0 0 676.495)
(677.287 0 0 0 677.287 0 0 0 677.287)
(680.242 0 0 0 680.242 0 0 0 680.242)
(687.77 0 0 0 687.77 0 0 0 687.77)
(693.044 0 0 0 693.044 0 0 0 693.044)
(679.089 0 0 0 679.089 0 0 0 679.089)
(678.581 0 0 0 678.581 0 0 0 678.581)
(678.565 0 0 0 678.565 0 0 0 678.565)
(678.539 0 0 0 678.539 0 0 0 678.539)
(678.504 0 0 0 678.504 0 0 0 678.504)
(678.458 0 0 0 678.458 0 0 0 678.458)
(678.4 0 0 0 678.4 0 0 0 678.4)
(678.328 0 0 0 678.328 0 0 0 678.328)
(678.24 0 0 0 678.24 0 0 0 678.24)
(678.134 0 0 0 678.134 0 0 0 678.134)
(678.01 0 0 0 678.01 0 0 0 678.01)
(677.871 0 0 0 677.871 0 0 0 677.871)
(677.723 0 0 0 677.723 0 0 0 677.723)
(677.572 0 0 0 677.572 0 0 0 677.572)
(677.424 0 0 0 677.424 0 0 0 677.424)
(677.275 0 0 0 677.275 0 0 0 677.275)
(677.114 0 0 0 677.114 0 0 0 677.114)
(676.923 0 0 0 676.923 0 0 0 676.923)
(676.695 0 0 0 676.695 0 0 0 676.695)
(676.489 0 0 0 676.489 0 0 0 676.489)
(676.494 0 0 0 676.494 0 0 0 676.494)
(677.287 0 0 0 677.287 0 0 0 677.287)
(680.242 0 0 0 680.242 0 0 0 680.242)
(687.77 0 0 0 687.77 0 0 0 687.77)
(693.044 0 0 0 693.044 0 0 0 693.044)
(683.37 0 0 0 683.37 0 0 0 683.37)
(682.91 0 0 0 682.91 0 0 0 682.91)
(682.925 0 0 0 682.925 0 0 0 682.925)
(682.93 0 0 0 682.93 0 0 0 682.93)
(682.923 0 0 0 682.923 0 0 0 682.923)
(682.903 0 0 0 682.903 0 0 0 682.903)
(682.868 0 0 0 682.868 0 0 0 682.868)
(682.817 0 0 0 682.817 0 0 0 682.817)
(682.748 0 0 0 682.748 0 0 0 682.748)
(682.659 0 0 0 682.659 0 0 0 682.659)
(682.548 0 0 0 682.548 0 0 0 682.548)
(682.413 0 0 0 682.413 0 0 0 682.413)
(682.255 0 0 0 682.255 0 0 0 682.255)
(682.071 0 0 0 682.071 0 0 0 682.071)
(681.859 0 0 0 681.859 0 0 0 681.859)
(681.605 0 0 0 681.605 0 0 0 681.605)
(681.294 0 0 0 681.294 0 0 0 681.294)
(680.906 0 0 0 680.906 0 0 0 680.906)
(680.435 0 0 0 680.435 0 0 0 680.435)
(679.933 0 0 0 679.933 0 0 0 679.933)
(679.577 0 0 0 679.577 0 0 0 679.577)
(679.913 0 0 0 679.913 0 0 0 679.913)
(682.268 0 0 0 682.268 0 0 0 682.268)
(689.011 0 0 0 689.011 0 0 0 689.011)
(693.424 0 0 0 693.424 0 0 0 693.424)
(678.073 0 0 0 678.073 0 0 0 678.073)
(677.545 0 0 0 677.545 0 0 0 677.545)
(677.518 0 0 0 677.518 0 0 0 677.518)
(677.481 0 0 0 677.481 0 0 0 677.481)
(677.436 0 0 0 677.436 0 0 0 677.436)
(677.381 0 0 0 677.381 0 0 0 677.381)
(677.314 0 0 0 677.314 0 0 0 677.314)
(677.234 0 0 0 677.234 0 0 0 677.234)
(677.138 0 0 0 677.138 0 0 0 677.138)
(677.024 0 0 0 677.024 0 0 0 677.024)
(676.894 0 0 0 676.894 0 0 0 676.894)
(676.751 0 0 0 676.751 0 0 0 676.751)
(676.602 0 0 0 676.602 0 0 0 676.602)
(676.455 0 0 0 676.455 0 0 0 676.455)
(676.318 0 0 0 676.318 0 0 0 676.318)
(676.191 0 0 0 676.191 0 0 0 676.191)
(676.063 0 0 0 676.063 0 0 0 676.063)
(675.916 0 0 0 675.916 0 0 0 675.916)
(675.745 0 0 0 675.745 0 0 0 675.745)
(675.607 0 0 0 675.607 0 0 0 675.607)
(675.696 0 0 0 675.696 0 0 0 675.696)
(676.595 0 0 0 676.595 0 0 0 676.595)
(679.692 0 0 0 679.692 0 0 0 679.692)
(687.411 0 0 0 687.411 0 0 0 687.411)
(692.923 0 0 0 692.923 0 0 0 692.923)
(682.612 0 0 0 682.612 0 0 0 682.612)
(682.156 0 0 0 682.156 0 0 0 682.156)
(682.167 0 0 0 682.167 0 0 0 682.167)
(682.169 0 0 0 682.169 0 0 0 682.169)
(682.16 0 0 0 682.16 0 0 0 682.16)
(682.138 0 0 0 682.138 0 0 0 682.138)
(682.102 0 0 0 682.102 0 0 0 682.102)
(682.05 0 0 0 682.05 0 0 0 682.05)
(681.981 0 0 0 681.981 0 0 0 681.981)
(681.892 0 0 0 681.892 0 0 0 681.892)
(681.782 0 0 0 681.782 0 0 0 681.782)
(681.65 0 0 0 681.65 0 0 0 681.65)
(681.498 0 0 0 681.498 0 0 0 681.498)
(681.325 0 0 0 681.325 0 0 0 681.325)
(681.129 0 0 0 681.129 0 0 0 681.129)
(680.899 0 0 0 680.899 0 0 0 680.899)
(680.62 0 0 0 680.62 0 0 0 680.62)
(680.273 0 0 0 680.273 0 0 0 680.273)
(679.851 0 0 0 679.851 0 0 0 679.851)
(679.409 0 0 0 679.409 0 0 0 679.409)
(679.125 0 0 0 679.125 0 0 0 679.125)
(679.552 0 0 0 679.552 0 0 0 679.552)
(682.022 0 0 0 682.022 0 0 0 682.022)
(688.9 0 0 0 688.9 0 0 0 688.9)
(693.408 0 0 0 693.408 0 0 0 693.408)
(679.089 0 0 0 679.089 0 0 0 679.089)
(678.581 0 0 0 678.581 0 0 0 678.581)
(678.565 0 0 0 678.565 0 0 0 678.565)
(678.539 0 0 0 678.539 0 0 0 678.539)
(678.504 0 0 0 678.504 0 0 0 678.504)
(678.458 0 0 0 678.458 0 0 0 678.458)
(678.4 0 0 0 678.4 0 0 0 678.4)
(678.328 0 0 0 678.328 0 0 0 678.328)
(678.24 0 0 0 678.24 0 0 0 678.24)
(678.134 0 0 0 678.134 0 0 0 678.134)
(678.01 0 0 0 678.01 0 0 0 678.01)
(677.871 0 0 0 677.871 0 0 0 677.871)
(677.723 0 0 0 677.723 0 0 0 677.723)
(677.572 0 0 0 677.572 0 0 0 677.572)
(677.424 0 0 0 677.424 0 0 0 677.424)
(677.275 0 0 0 677.275 0 0 0 677.275)
(677.114 0 0 0 677.114 0 0 0 677.114)
(676.923 0 0 0 676.923 0 0 0 676.923)
(676.695 0 0 0 676.695 0 0 0 676.695)
(676.489 0 0 0 676.489 0 0 0 676.489)
(676.495 0 0 0 676.495 0 0 0 676.495)
(677.287 0 0 0 677.287 0 0 0 677.287)
(680.242 0 0 0 680.242 0 0 0 680.242)
(687.77 0 0 0 687.77 0 0 0 687.77)
(693.043 0 0 0 693.043 0 0 0 693.043)
(683.37 0 0 0 683.37 0 0 0 683.37)
(682.91 0 0 0 682.91 0 0 0 682.91)
(682.925 0 0 0 682.925 0 0 0 682.925)
(682.93 0 0 0 682.93 0 0 0 682.93)
(682.923 0 0 0 682.923 0 0 0 682.923)
(682.903 0 0 0 682.903 0 0 0 682.903)
(682.868 0 0 0 682.868 0 0 0 682.868)
(682.818 0 0 0 682.818 0 0 0 682.818)
(682.749 0 0 0 682.749 0 0 0 682.749)
(682.659 0 0 0 682.659 0 0 0 682.659)
(682.548 0 0 0 682.548 0 0 0 682.548)
(682.413 0 0 0 682.413 0 0 0 682.413)
(682.255 0 0 0 682.255 0 0 0 682.255)
(682.072 0 0 0 682.072 0 0 0 682.072)
(681.859 0 0 0 681.859 0 0 0 681.859)
(681.606 0 0 0 681.606 0 0 0 681.606)
(681.295 0 0 0 681.295 0 0 0 681.295)
(680.907 0 0 0 680.907 0 0 0 680.907)
(680.436 0 0 0 680.436 0 0 0 680.436)
(679.934 0 0 0 679.934 0 0 0 679.934)
(679.578 0 0 0 679.578 0 0 0 679.578)
(679.914 0 0 0 679.914 0 0 0 679.914)
(682.269 0 0 0 682.269 0 0 0 682.269)
(689.013 0 0 0 689.013 0 0 0 689.013)
(693.426 0 0 0 693.426 0 0 0 693.426)
(683.37 0 0 0 683.37 0 0 0 683.37)
(682.91 0 0 0 682.91 0 0 0 682.91)
(682.925 0 0 0 682.925 0 0 0 682.925)
(682.93 0 0 0 682.93 0 0 0 682.93)
(682.923 0 0 0 682.923 0 0 0 682.923)
(682.903 0 0 0 682.903 0 0 0 682.903)
(682.868 0 0 0 682.868 0 0 0 682.868)
(682.817 0 0 0 682.817 0 0 0 682.817)
(682.748 0 0 0 682.748 0 0 0 682.748)
(682.659 0 0 0 682.659 0 0 0 682.659)
(682.548 0 0 0 682.548 0 0 0 682.548)
(682.413 0 0 0 682.413 0 0 0 682.413)
(682.255 0 0 0 682.255 0 0 0 682.255)
(682.071 0 0 0 682.071 0 0 0 682.071)
(681.859 0 0 0 681.859 0 0 0 681.859)
(681.605 0 0 0 681.605 0 0 0 681.605)
(681.294 0 0 0 681.294 0 0 0 681.294)
(680.906 0 0 0 680.906 0 0 0 680.906)
(680.435 0 0 0 680.435 0 0 0 680.435)
(679.933 0 0 0 679.933 0 0 0 679.933)
(679.577 0 0 0 679.577 0 0 0 679.577)
(679.913 0 0 0 679.913 0 0 0 679.913)
(682.268 0 0 0 682.268 0 0 0 682.268)
(689.011 0 0 0 689.011 0 0 0 689.011)
(693.424 0 0 0 693.424 0 0 0 693.424)
(679.089 0 0 0 679.089 0 0 0 679.089)
(678.581 0 0 0 678.581 0 0 0 678.581)
(678.565 0 0 0 678.565 0 0 0 678.565)
(678.539 0 0 0 678.539 0 0 0 678.539)
(678.504 0 0 0 678.504 0 0 0 678.504)
(678.458 0 0 0 678.458 0 0 0 678.458)
(678.4 0 0 0 678.4 0 0 0 678.4)
(678.328 0 0 0 678.328 0 0 0 678.328)
(678.24 0 0 0 678.24 0 0 0 678.24)
(678.134 0 0 0 678.134 0 0 0 678.134)
(678.01 0 0 0 678.01 0 0 0 678.01)
(677.871 0 0 0 677.871 0 0 0 677.871)
(677.723 0 0 0 677.723 0 0 0 677.723)
(677.572 0 0 0 677.572 0 0 0 677.572)
(677.424 0 0 0 677.424 0 0 0 677.424)
(677.275 0 0 0 677.275 0 0 0 677.275)
(677.114 0 0 0 677.114 0 0 0 677.114)
(676.923 0 0 0 676.923 0 0 0 676.923)
(676.695 0 0 0 676.695 0 0 0 676.695)
(676.489 0 0 0 676.489 0 0 0 676.489)
(676.494 0 0 0 676.494 0 0 0 676.494)
(677.287 0 0 0 677.287 0 0 0 677.287)
(680.242 0 0 0 680.242 0 0 0 680.242)
(687.77 0 0 0 687.77 0 0 0 687.77)
(693.044 0 0 0 693.044 0 0 0 693.044)
)
;

boundaryField
{
    outletCentralUnloaded
    {
        type            zeroGradient;
    }
    inletCentralUnloaded
    {
        type            zeroGradient;
    }
    outletFuelElement
    {
        type            zeroGradient;
    }
    inletFuelElement
    {
        type            zeroGradient;
    }
    defaultFaces
    {
        type            zeroGradient;
    }
    baffle_master
    {
        type            zeroGradient;
    }
    baffle_slave
    {
        type            zeroGradient;
    }
}


// ************************************************************************* //
