/*--------------------------------*- C++ -*----------------------------------*\
| =========                 |                                                 |
| \\      /  F ield         | OpenFOAM: The Open Source CFD Toolbox           |
|  \\    /   O peration     | Version:  2212                                  |
|   \\  /    A nd           | Website:  www.openfoam.com                      |
|    \\/     M anipulation  |                                                 |
\*---------------------------------------------------------------------------*/
FoamFile
{
    version     2.0;
    format      ascii;
    arch        "LSB;label=32;scalar=64";
    class       volScalarField;
    location    "54/fluidRegion";
    object      nut;
}
// * * * * * * * * * * * * * * * * * * * * * * * * * * * * * * * * * * * * * //

dimensions      [0 2 -1 0 0 0 0];

internalField   nonuniform List<scalar> 
350
(
0.000537622
0.000537577
0.000537533
0.000537486
0.000537436
0.000537383
0.00053733
0.000537282
0.00053724
0.000537202
0.000537167
0.000537131
0.000537094
0.000537057
0.000537022
0.000536993
0.000536975
0.000536972
0.000536992
0.000537046
0.000537148
0.000537327
0.000537623
0.000538105
0.00053949
0.000537622
0.000537577
0.000537533
0.000537486
0.000537436
0.000537383
0.00053733
0.000537282
0.00053724
0.000537202
0.000537167
0.000537131
0.000537094
0.000537057
0.000537022
0.000536993
0.000536975
0.000536972
0.000536992
0.000537046
0.000537148
0.000537327
0.000537623
0.000538105
0.00053949
0.0104179
0.0101987
0.00992738
0.00960015
0.00922197
0.00879801
0.00833361
0.00783427
0.00730563
0.00675355
0.0061842
0.00560415
0.00502053
0.0044411
0.00387413
0.0033281
0.00281118
0.00233075
0.00189304
0.00150328
0.00116605
0.000885824
0.000666857
0.000511755
0.000416365
0.0104852
0.0102649
0.00999264
0.00966394
0.00928388
0.00885764
0.0083906
0.00788827
0.00735634
0.00680068
0.00622747
0.00564332
0.0050554
0.00447154
0.0039001
0.00334966
0.00282854
0.00234423
0.00190305
0.00151028
0.00117056
0.000888382
0.000668045
0.000512136
0.000416432
0.010407
0.0101878
0.00991672
0.00958976
0.00921192
0.00878836
0.00832442
0.00782558
0.0072975
0.00674603
0.00617731
0.00559793
0.005015
0.00443628
0.00387002
0.00332469
0.00280843
0.0023286
0.00189143
0.00150212
0.00116527
0.000885334
0.000666575
0.000511606
0.000416316
0.0104703
0.0102503
0.00997815
0.00964975
0.00927007
0.00884431
0.00837784
0.00787615
0.00734494
0.00679006
0.0062177
0.00563446
0.0050475
0.00446463
0.00389419
0.00334475
0.00282459
0.00234116
0.00190077
0.00150868
0.00116954
0.000887806
0.000667783
0.00051206
0.000416423
0.0104703
0.0102503
0.00997815
0.00964975
0.00927007
0.00884431
0.00837784
0.00787615
0.00734494
0.00679006
0.0062177
0.00563446
0.0050475
0.00446463
0.00389419
0.00334475
0.00282459
0.00234116
0.00190077
0.00150868
0.00116954
0.000887806
0.000667783
0.00051206
0.000416423
0.010407
0.0101878
0.00991672
0.00958976
0.00921192
0.00878836
0.00832442
0.00782559
0.00729751
0.00674603
0.00617731
0.00559793
0.00501501
0.00443629
0.00387003
0.00332469
0.00280843
0.0023286
0.00189143
0.00150212
0.00116527
0.000885333
0.000666574
0.000511606
0.000416316
0.0104852
0.0102649
0.00999264
0.00966394
0.00928388
0.00885764
0.0083906
0.00788827
0.00735634
0.00680068
0.00622747
0.00564332
0.0050554
0.00447154
0.0039001
0.00334966
0.00282854
0.00234423
0.00190305
0.00151028
0.00117056
0.000888382
0.000668045
0.000512136
0.000416432
0.0104179
0.0101987
0.00992738
0.00960015
0.00922197
0.00879801
0.00833361
0.00783426
0.00730563
0.00675355
0.0061842
0.00560415
0.00502053
0.0044411
0.00387413
0.0033281
0.00281118
0.00233075
0.00189304
0.00150328
0.00116605
0.000885825
0.000666858
0.000511757
0.000416366
0.0104703
0.0102503
0.00997815
0.00964975
0.00927007
0.00884431
0.00837784
0.00787615
0.00734494
0.00679006
0.0062177
0.00563446
0.0050475
0.00446463
0.00389419
0.00334475
0.00282459
0.00234116
0.00190077
0.00150868
0.00116954
0.000887807
0.000667784
0.000512061
0.000416423
0.010407
0.0101878
0.00991672
0.00958976
0.00921192
0.00878836
0.00832442
0.00782558
0.0072975
0.00674603
0.00617731
0.00559793
0.005015
0.00443628
0.00387002
0.00332469
0.00280843
0.0023286
0.00189142
0.00150212
0.00116527
0.000885331
0.000666572
0.000511605
0.000416315
0.010407
0.0101878
0.00991672
0.00958977
0.00921192
0.00878836
0.00832442
0.00782559
0.00729751
0.00674603
0.00617732
0.00559793
0.00501501
0.00443629
0.00387003
0.00332469
0.00280843
0.0023286
0.00189143
0.00150212
0.00116527
0.000885333
0.000666574
0.000511606
0.000416315
0.0104703
0.0102503
0.00997815
0.00964975
0.00927007
0.00884431
0.00837784
0.00787615
0.00734494
0.00679006
0.0062177
0.00563446
0.0050475
0.00446463
0.00389419
0.00334476
0.00282459
0.00234116
0.00190077
0.00150868
0.00116954
0.000887808
0.000667785
0.000512062
0.000416424
)
;

boundaryField
{
    outletCentralUnloaded
    {
        type            zeroGradient;
    }
    inletCentralUnloaded
    {
        type            zeroGradient;
    }
    outletFuelElement
    {
        type            zeroGradient;
    }
    inletFuelElement
    {
        type            zeroGradient;
    }
    defaultFaces
    {
        type            zeroGradient;
    }
    baffle_master
    {
        type            calculated;
        value           nonuniform List<scalar> 
150
(
0.000537622
0.000537622
0.000537622
0.000537577
0.000537577
0.000537577
0.000537533
0.000537533
0.000537533
0.000537486
0.000537486
0.000537486
0.000537436
0.000537436
0.000537436
0.000537383
0.000537383
0.000537383
0.00053733
0.00053733
0.00053733
0.000537282
0.000537282
0.000537282
0.00053724
0.00053724
0.00053724
0.000537202
0.000537202
0.000537202
0.000537167
0.000537167
0.000537167
0.000537131
0.000537131
0.000537131
0.000537094
0.000537094
0.000537094
0.000537057
0.000537057
0.000537057
0.000537022
0.000537022
0.000537022
0.000536993
0.000536993
0.000536993
0.000536975
0.000536975
0.000536975
0.000536972
0.000536972
0.000536972
0.000536992
0.000536992
0.000536992
0.000537046
0.000537046
0.000537046
0.000537148
0.000537148
0.000537148
0.000537327
0.000537327
0.000537327
0.000537623
0.000537623
0.000537623
0.000538105
0.000538105
0.000538105
0.00053949
0.00053949
0.00053949
0.000537622
0.000537622
0.000537622
0.000537577
0.000537577
0.000537577
0.000537533
0.000537533
0.000537533
0.000537486
0.000537486
0.000537486
0.000537436
0.000537436
0.000537436
0.000537383
0.000537383
0.000537383
0.00053733
0.00053733
0.00053733
0.000537282
0.000537282
0.000537282
0.00053724
0.00053724
0.00053724
0.000537202
0.000537202
0.000537202
0.000537167
0.000537167
0.000537167
0.000537131
0.000537131
0.000537131
0.000537094
0.000537094
0.000537094
0.000537057
0.000537057
0.000537057
0.000537022
0.000537022
0.000537022
0.000536993
0.000536993
0.000536993
0.000536975
0.000536975
0.000536975
0.000536972
0.000536972
0.000536972
0.000536992
0.000536992
0.000536992
0.000537046
0.000537046
0.000537046
0.000537148
0.000537148
0.000537148
0.000537327
0.000537327
0.000537327
0.000537623
0.000537623
0.000537623
0.000538105
0.000538105
0.000538105
0.00053949
0.00053949
0.00053949
)
;
    }
    baffle_slave
    {
        type            calculated;
        value           nonuniform List<scalar> 
150
(
0.0104852
0.0104703
0.0104703
0.0102649
0.0102503
0.0102503
0.00999264
0.00997815
0.00997815
0.00966394
0.00964975
0.00964975
0.00928388
0.00927007
0.00927007
0.00885764
0.00884431
0.00884431
0.0083906
0.00837784
0.00837784
0.00788827
0.00787615
0.00787615
0.00735634
0.00734494
0.00734494
0.00680068
0.00679006
0.00679006
0.00622747
0.0062177
0.0062177
0.00564332
0.00563446
0.00563446
0.0050554
0.0050475
0.0050475
0.00447154
0.00446463
0.00446463
0.0039001
0.00389419
0.00389419
0.00334966
0.00334475
0.00334476
0.00282854
0.00282459
0.00282459
0.00234423
0.00234116
0.00234116
0.00190305
0.00190077
0.00190077
0.00151028
0.00150868
0.00150868
0.00117056
0.00116954
0.00116954
0.000888382
0.000887806
0.000887808
0.000668045
0.000667783
0.000667785
0.000512136
0.00051206
0.000512062
0.000416432
0.000416423
0.000416424
0.0104703
0.0104852
0.0104703
0.0102503
0.0102649
0.0102503
0.00997815
0.00999264
0.00997815
0.00964975
0.00966394
0.00964975
0.00927007
0.00928388
0.00927007
0.00884431
0.00885764
0.00884431
0.00837784
0.0083906
0.00837784
0.00787615
0.00788827
0.00787615
0.00734494
0.00735634
0.00734494
0.00679006
0.00680068
0.00679006
0.0062177
0.00622747
0.0062177
0.00563446
0.00564332
0.00563446
0.0050475
0.0050554
0.0050475
0.00446463
0.00447154
0.00446463
0.00389419
0.0039001
0.00389419
0.00334475
0.00334966
0.00334475
0.00282459
0.00282854
0.00282459
0.00234116
0.00234423
0.00234116
0.00190077
0.00190305
0.00190077
0.00150868
0.00151028
0.00150868
0.00116954
0.00117056
0.00116954
0.000887806
0.000888382
0.000887807
0.000667783
0.000668045
0.000667784
0.00051206
0.000512136
0.000512061
0.000416423
0.000416432
0.000416423
)
;
    }
}


// ************************************************************************* //
