/*--------------------------------*- C++ -*----------------------------------*\
| =========                 |                                                 |
| \\      /  F ield         | OpenFOAM: The Open Source CFD Toolbox           |
|  \\    /   O peration     | Version:  2212                                  |
|   \\  /    A nd           | Website:  www.openfoam.com                      |
|    \\/     M anipulation  |                                                 |
\*---------------------------------------------------------------------------*/
FoamFile
{
    version     2.0;
    format      ascii;
    arch        "LSB;label=32;scalar=64";
    class       volScalarField;
    location    "54/fluidRegion";
    object      Re;
}
// * * * * * * * * * * * * * * * * * * * * * * * * * * * * * * * * * * * * * //

dimensions      [0 0 0 0 0 0 0];

internalField   nonuniform List<scalar> 
350
(
174040
174040
174041
174040
174037
174032
174027
174025
174026
174029
174033
174035
174036
174033
174030
174026
174023
174022
174022
174023
174024
174025
174026
174027
174391
174040
174040
174041
174040
174037
174032
174027
174025
174026
174029
174033
174035
174036
174033
174030
174026
174023
174022
174022
174023
174024
174025
174026
174027
174391
55427.5
55378.1
55379.3
55379.6
55378.5
55376.2
55372.3
55366.7
55359.2
55349.5
55337.6
55323.4
55307
55288.2
55267
55242.2
55212
55174.4
55128.8
55081
55050.3
55096.5
55363.6
56109.4
56599.4
54936.7
54879.6
54876.7
54872.7
54867.9
54861.9
54854.7
54846
54835.6
54823.4
54809.4
54793.9
54777.8
54761.9
54747.2
54733.4
54719.6
54703.7
54685.3
54670.4
54680
54777
55111.6
55947.7
56546.7
55509.6
55459.8
55461.5
55462
55461.2
55459
55455.3
55449.8
55442.3
55432.6
55420.6
55406
55388.9
55369
55346
55318.6
55284.9
55243
55192
55137.7
55099.3
55135.6
55390.4
56121.5
56601.3
55046.4
54991.5
54989.7
54987
54983.2
54978.3
54972
54964.2
54954.7
54943.2
54929.8
54914.8
54898.8
54882.5
54866.5
54850.4
54833
54812.4
54787.9
54765.6
54766.2
54851.8
55171.1
55986.6
56559.7
55046.4
54991.5
54989.7
54987
54983.2
54978.3
54972
54964.2
54954.7
54943.2
54929.8
54914.8
54898.8
54882.5
54866.5
54850.4
54833
54812.4
54787.9
54765.6
54766.2
54851.8
55171.1
55986.6
56559.7
55509.6
55459.8
55461.4
55462
55461.2
55459
55455.2
55449.8
55442.3
55432.6
55420.5
55406
55388.8
55369
55345.9
55318.5
55284.8
55242.9
55191.9
55137.6
55099.2
55135.5
55390.2
56121.4
56601.2
54936.7
54879.6
54876.7
54872.7
54867.9
54861.9
54854.7
54846
54835.6
54823.4
54809.4
54793.9
54777.8
54761.9
54747.2
54733.4
54719.6
54703.7
54685.3
54670.4
54680
54777
55111.6
55947.7
56546.7
55427.5
55378.1
55379.3
55379.6
55378.5
55376.2
55372.3
55366.7
55359.2
55349.6
55337.6
55323.4
55307
55288.2
55267
55242.2
55212
55174.4
55128.8
55081
55050.3
55096.5
55363.6
56109.4
56599.4
55046.4
54991.5
54989.7
54987
54983.2
54978.3
54972
54964.2
54954.7
54943.2
54929.8
54914.8
54898.8
54882.5
54866.5
54850.4
54833
54812.4
54787.9
54765.6
54766.2
54851.8
55171.1
55986.6
56559.7
55509.6
55459.8
55461.4
55462
55461.2
55459
55455.3
55449.8
55442.3
55432.6
55420.6
55406
55388.9
55369
55346
55318.6
55284.9
55243
55192
55137.7
55099.3
55135.6
55390.4
56121.6
56601.3
55509.6
55459.8
55461.4
55462
55461.2
55459
55455.3
55449.8
55442.3
55432.6
55420.5
55406
55388.8
55369
55345.9
55318.5
55284.9
55242.9
55191.9
55137.6
55099.2
55135.5
55390.2
56121.4
56601.2
55046.4
54991.5
54989.7
54987
54983.2
54978.3
54972
54964.2
54954.7
54943.2
54929.8
54914.8
54898.8
54882.5
54866.5
54850.4
54833
54812.4
54787.9
54765.6
54766.2
54851.8
55171.1
55986.7
56559.8
)
;

boundaryField
{
    outletCentralUnloaded
    {
        type            zeroGradient;
    }
    inletCentralUnloaded
    {
        type            zeroGradient;
    }
    outletFuelElement
    {
        type            zeroGradient;
    }
    inletFuelElement
    {
        type            zeroGradient;
    }
    defaultFaces
    {
        type            zeroGradient;
    }
    baffle_master
    {
        type            zeroGradient;
    }
    baffle_slave
    {
        type            zeroGradient;
    }
}


// ************************************************************************* //
