/*--------------------------------*- C++ -*----------------------------------*\
| =========                 |                                                 |
| \\      /  F ield         | OpenFOAM: The Open Source CFD Toolbox           |
|  \\    /   O peration     | Version:  2212                                  |
|   \\  /    A nd           | Website:  www.openfoam.com                      |
|    \\/     M anipulation  |                                                 |
\*---------------------------------------------------------------------------*/
FoamFile
{
    version     2.0;
    format      ascii;
    arch        "LSB;label=32;scalar=64";
    class       volScalarField;
    location    "54/fluidRegion";
    object      Tci.nuclearFuelPin;
}
// * * * * * * * * * * * * * * * * * * * * * * * * * * * * * * * * * * * * * //

dimensions      [0 0 0 1 0 0 0];

internalField   nonuniform List<scalar> 
350
(
0
0
0
0
0
0
0
0
0
0
0
0
0
0
0
0
0
0
0
0
0
0
0
0
0
0
0
0
0
0
0
0
0
0
0
0
0
0
0
0
0
0
0
0
0
0
0
0
0
0
1850.99
1901.26
1938.3
1961.92
1972.05
1968.82
1952.48
1923.46
1882.36
1829.91
1767.01
1694.69
1614.16
1526.72
1433.83
1337
1237.66
1136.96
1035.41
932.307
824.867
706.956
568.003
396.1
193.055
1879.49
1930.52
1968.08
1991.98
2002.18
1998.76
1982.02
1952.38
1910.44
1856.95
1792.83
1719.13
1637.06
1547.96
1453.3
1354.61
1253.39
1150.84
1047.53
942.791
833.849
714.485
573.912
399.925
194.347
1846.37
1896.53
1933.51
1957.09
1967.24
1964.05
1947.8
1918.9
1877.94
1825.67
1762.97
1690.88
1610.59
1523.43
1430.83
1334.29
1235.24
1134.84
1033.56
930.711
823.507
705.828
567.129
395.539
192.857
1873.08
1923.92
1961.34
1985.17
1995.33
1991.95
1975.28
1945.77
1904.01
1850.76
1786.91
1713.52
1631.79
1543.07
1448.81
1350.55
1249.76
1147.64
1044.73
940.367
831.771
712.742
572.543
399.037
194.048
1873.08
1923.92
1961.34
1985.17
1995.33
1991.95
1975.28
1945.77
1904.01
1850.76
1786.91
1713.52
1631.79
1543.07
1448.81
1350.55
1249.76
1147.64
1044.73
940.367
831.771
712.742
572.543
399.037
194.048
1846.37
1896.54
1933.51
1957.1
1967.24
1964.06
1947.8
1918.9
1877.94
1825.67
1762.97
1690.88
1610.6
1523.43
1430.83
1334.29
1235.24
1134.84
1033.56
930.711
823.508
705.829
567.13
395.54
192.858
1879.49
1930.52
1968.08
1991.98
2002.18
1998.76
1982.02
1952.38
1910.44
1856.95
1792.83
1719.13
1637.06
1547.96
1453.3
1354.61
1253.39
1150.84
1047.53
942.791
833.848
714.485
573.913
399.925
194.347
1850.99
1901.26
1938.3
1961.92
1972.05
1968.82
1952.48
1923.46
1882.36
1829.91
1767.01
1694.69
1614.16
1526.72
1433.83
1337
1237.66
1136.96
1035.41
932.307
824.867
706.956
568.003
396.099
193.055
1873.08
1923.92
1961.34
1985.17
1995.33
1991.95
1975.28
1945.77
1904.01
1850.76
1786.91
1713.52
1631.79
1543.07
1448.81
1350.55
1249.76
1147.64
1044.73
940.367
831.771
712.742
572.543
399.037
194.048
1846.37
1896.53
1933.51
1957.09
1967.24
1964.05
1947.8
1918.9
1877.94
1825.67
1762.97
1690.88
1610.59
1523.43
1430.83
1334.29
1235.24
1134.84
1033.56
930.711
823.507
705.828
567.129
395.539
192.857
1846.37
1896.54
1933.51
1957.1
1967.24
1964.06
1947.8
1918.9
1877.94
1825.67
1762.97
1690.88
1610.6
1523.43
1430.83
1334.29
1235.24
1134.84
1033.56
930.711
823.508
705.829
567.13
395.54
192.858
1873.08
1923.92
1961.34
1985.17
1995.33
1991.95
1975.28
1945.77
1904.01
1850.76
1786.91
1713.52
1631.79
1543.07
1448.81
1350.55
1249.76
1147.64
1044.73
940.367
831.771
712.742
572.543
399.037
194.048
)
;

boundaryField
{
    outletCentralUnloaded
    {
        type            zeroGradient;
    }
    inletCentralUnloaded
    {
        type            zeroGradient;
    }
    outletFuelElement
    {
        type            zeroGradient;
    }
    inletFuelElement
    {
        type            zeroGradient;
    }
    defaultFaces
    {
        type            zeroGradient;
    }
    baffle_master
    {
        type            zeroGradient;
    }
    baffle_slave
    {
        type            zeroGradient;
    }
}


// ************************************************************************* //
