/*--------------------------------*- C++ -*----------------------------------*\
| =========                 |                                                 |
| \\      /  F ield         | OpenFOAM: The Open Source CFD Toolbox           |
|  \\    /   O peration     | Version:  2212                                  |
|   \\  /    A nd           | Website:  www.openfoam.com                      |
|    \\/     M anipulation  |                                                 |
\*---------------------------------------------------------------------------*/
FoamFile
{
    version     2.0;
    format      ascii;
    arch        "LSB;label=32;scalar=64";
    class       volScalarField;
    location    "54/fluidRegion";
    object      Tco.nuclearFuelPin;
}
// * * * * * * * * * * * * * * * * * * * * * * * * * * * * * * * * * * * * * //

dimensions      [0 0 0 1 0 0 0];

internalField   nonuniform List<scalar> 
350
(
0
0
0
0
0
0
0
0
0
0
0
0
0
0
0
0
0
0
0
0
0
0
0
0
0
0
0
0
0
0
0
0
0
0
0
0
0
0
0
0
0
0
0
0
0
0
0
0
0
0
1839.27
1866.09
1880.23
1881.87
1871.29
1848.93
1815.35
1771.27
1717.5
1654.98
1584.77
1508.02
1425.99
1340.04
1251.58
1162.04
1072.76
984.726
898.239
812.357
724.036
626.835
509.854
360.838
181.231
1867.64
1894.94
1909.34
1911.02
1900.26
1877.5
1843.32
1798.44
1743.68
1680.02
1608.5
1530.32
1446.75
1359.14
1268.95
1177.65
1086.6
996.861
908.784
821.468
731.863
633.445
515.098
364.26
182.388
1834.67
1861.43
1875.54
1877.19
1866.66
1844.38
1810.92
1766.98
1713.38
1651.05
1581.06
1504.55
1422.78
1337.09
1248.9
1159.65
1070.64
982.877
896.637
810.98
722.861
625.853
509.087
360.342
181.055
1861.26
1888.44
1902.76
1904.41
1893.68
1871
1836.95
1792.24
1737.69
1674.28
1603.06
1525.2
1441.97
1354.74
1264.94
1174.04
1083.4
994.055
906.345
819.36
730.052
631.914
513.882
363.465
182.12
1861.26
1888.44
1902.76
1904.41
1893.68
1871
1836.95
1792.24
1737.69
1674.28
1603.06
1525.2
1441.97
1354.74
1264.94
1174.04
1083.4
994.055
906.345
819.36
730.052
631.914
513.882
363.465
182.12
1834.67
1861.43
1875.54
1877.19
1866.66
1844.38
1810.92
1766.98
1713.38
1651.05
1581.06
1504.55
1422.78
1337.09
1248.9
1159.65
1070.64
982.877
896.638
810.98
722.861
625.854
509.088
360.343
181.055
1867.64
1894.94
1909.34
1911.02
1900.26
1877.5
1843.32
1798.44
1743.68
1680.02
1608.5
1530.32
1446.75
1359.14
1268.95
1177.65
1086.6
996.861
908.784
821.468
731.863
633.446
515.098
364.26
182.388
1839.27
1866.09
1880.23
1881.87
1871.29
1848.93
1815.35
1771.27
1717.5
1654.98
1584.77
1508.02
1425.99
1340.04
1251.58
1162.04
1072.76
984.726
898.239
812.357
724.036
626.835
509.854
360.838
181.231
1861.26
1888.44
1902.76
1904.41
1893.68
1871
1836.95
1792.24
1737.69
1674.28
1603.06
1525.2
1441.97
1354.74
1264.94
1174.04
1083.4
994.055
906.345
819.36
730.052
631.914
513.882
363.465
182.12
1834.67
1861.43
1875.54
1877.19
1866.66
1844.38
1810.92
1766.98
1713.38
1651.05
1581.06
1504.55
1422.78
1337.09
1248.9
1159.65
1070.64
982.877
896.637
810.98
722.861
625.853
509.087
360.342
181.055
1834.67
1861.43
1875.54
1877.19
1866.66
1844.38
1810.92
1766.98
1713.38
1651.05
1581.06
1504.55
1422.78
1337.09
1248.9
1159.65
1070.64
982.877
896.638
810.98
722.861
625.853
509.088
360.343
181.055
1861.26
1888.44
1902.76
1904.41
1893.68
1871
1836.95
1792.24
1737.69
1674.28
1603.06
1525.2
1441.97
1354.74
1264.94
1174.04
1083.4
994.055
906.345
819.36
730.052
631.914
513.882
363.465
182.12
)
;

boundaryField
{
    outletCentralUnloaded
    {
        type            zeroGradient;
    }
    inletCentralUnloaded
    {
        type            zeroGradient;
    }
    outletFuelElement
    {
        type            zeroGradient;
    }
    inletFuelElement
    {
        type            zeroGradient;
    }
    defaultFaces
    {
        type            zeroGradient;
    }
    baffle_master
    {
        type            zeroGradient;
    }
    baffle_slave
    {
        type            zeroGradient;
    }
}


// ************************************************************************* //
