/*--------------------------------*- C++ -*----------------------------------*\
| =========                 |                                                 |
| \\      /  F ield         | OpenFOAM: The Open Source CFD Toolbox           |
|  \\    /   O peration     | Version:  2212                                  |
|   \\  /    A nd           | Website:  www.openfoam.com                      |
|    \\/     M anipulation  |                                                 |
\*---------------------------------------------------------------------------*/
FoamFile
{
    version     2.0;
    format      ascii;
    arch        "LSB;label=32;scalar=64";
    class       volScalarField;
    location    "54/fluidRegion";
    object      Tfav.nuclearFuelPin;
}
// * * * * * * * * * * * * * * * * * * * * * * * * * * * * * * * * * * * * * //

dimensions      [0 0 0 1 0 0 0];

internalField   nonuniform List<scalar> 
350
(
0
0
0
0
0
0
0
0
0
0
0
0
0
0
0
0
0
0
0
0
0
0
0
0
0
0
0
0
0
0
0
0
0
0
0
0
0
0
0
0
0
0
0
0
0
0
0
0
0
0
2218.98
3006.05
3762.42
4476.55
5137.51
5735.14
6260.22
6704.66
7061.57
7325.43
7492.13
7559.1
7525.34
7391.44
7159.56
6833.42
6418.06
5919.62
5344.86
4700.59
3992.51
3224.02
2394.76
1503.86
564.523
2251.65
3047.92
3813.05
4535.39
5203.86
5808.19
6339.07
6788.31
7148.95
7415.39
7583.51
7650.7
7615.94
7479.83
7244.59
6913.97
6493.12
5988.28
5406.33
4754.23
4037.77
3260.37
2421.59
1520.36
570.066
2213.69
2999.31
3754.3
4467.15
5126.93
5723.51
6247.69
6691.38
7047.71
7311.16
7477.65
7544.6
7511
7377.45
7146.11
6820.68
6406.19
5908.77
5335.15
4692.12
3985.37
3218.3
2390.56
1501.28
563.649
2244.28
3038.41
3801.51
4521.95
5188.68
5791.45
6320.99
6769.1
7128.87
7394.71
7562.49
7629.62
7595.09
7459.48
7225.01
6895.42
6475.83
5972.46
5392.17
4741.87
4027.34
3251.99
2415.41
1516.56
568.789
2244.28
3038.41
3801.51
4521.95
5188.68
5791.45
6320.99
6769.1
7128.87
7394.71
7562.49
7629.62
7595.09
7459.48
7225.01
6895.42
6475.83
5972.46
5392.17
4741.87
4027.34
3252
2415.41
1516.56
568.789
2213.69
2999.31
3754.3
4467.15
5126.93
5723.51
6247.69
6691.38
7047.71
7311.16
7477.65
7544.6
7511
7377.45
7146.11
6820.68
6406.2
5908.78
5335.15
4692.12
3985.37
3218.3
2390.56
1501.28
563.65
2251.65
3047.92
3813.05
4535.39
5203.86
5808.19
6339.07
6788.31
7148.95
7415.39
7583.51
7650.7
7615.94
7479.83
7244.59
6913.97
6493.12
5988.28
5406.33
4754.23
4037.77
3260.37
2421.59
1520.36
570.066
2218.98
3006.05
3762.42
4476.55
5137.51
5735.14
6260.22
6704.66
7061.57
7325.43
7492.13
7559.1
7525.34
7391.43
7159.56
6833.42
6418.06
5919.62
5344.86
4700.59
3992.51
3224.02
2394.76
1503.86
564.523
2244.28
3038.41
3801.52
4521.95
5188.68
5791.45
6320.99
6769.1
7128.87
7394.71
7562.49
7629.62
7595.09
7459.48
7225.01
6895.42
6475.83
5972.46
5392.17
4741.87
4027.34
3252
2415.41
1516.56
568.789
2213.69
2999.31
3754.3
4467.15
5126.93
5723.51
6247.69
6691.37
7047.71
7311.16
7477.65
7544.6
7511
7377.45
7146.11
6820.68
6406.19
5908.77
5335.15
4692.12
3985.37
3218.3
2390.56
1501.28
563.649
2213.69
2999.31
3754.3
4467.15
5126.93
5723.51
6247.69
6691.38
7047.71
7311.16
7477.65
7544.6
7511
7377.45
7146.11
6820.68
6406.2
5908.78
5335.15
4692.12
3985.37
3218.3
2390.56
1501.28
563.649
2244.28
3038.41
3801.51
4521.95
5188.68
5791.45
6320.99
6769.1
7128.87
7394.71
7562.49
7629.62
7595.09
7459.48
7225.01
6895.42
6475.83
5972.46
5392.17
4741.87
4027.34
3251.99
2415.41
1516.56
568.789
)
;

boundaryField
{
    outletCentralUnloaded
    {
        type            zeroGradient;
    }
    inletCentralUnloaded
    {
        type            zeroGradient;
    }
    outletFuelElement
    {
        type            zeroGradient;
    }
    inletFuelElement
    {
        type            zeroGradient;
    }
    defaultFaces
    {
        type            zeroGradient;
    }
    baffle_master
    {
        type            zeroGradient;
    }
    baffle_slave
    {
        type            zeroGradient;
    }
}


// ************************************************************************* //
