/*--------------------------------*- C++ -*----------------------------------*\
| =========                 |                                                 |
| \\      /  F ield         | OpenFOAM: The Open Source CFD Toolbox           |
|  \\    /   O peration     | Version:  2212                                  |
|   \\  /    A nd           | Website:  www.openfoam.com                      |
|    \\/     M anipulation  |                                                 |
\*---------------------------------------------------------------------------*/
FoamFile
{
    version     2.0;
    format      ascii;
    arch        "LSB;label=32;scalar=64";
    class       volScalarField;
    location    "54/fluidRegion";
    object      Tfi.nuclearFuelPin;
}
// * * * * * * * * * * * * * * * * * * * * * * * * * * * * * * * * * * * * * //

dimensions      [0 0 0 1 0 0 0];

internalField   nonuniform List<scalar> 
350
(
0
0
0
0
0
0
0
0
0
0
0
0
0
0
0
0
0
0
0
0
0
0
0
0
0
0
0
0
0
0
0
0
0
0
0
0
0
0
0
0
0
0
0
0
0
0
0
0
0
0
2419.04
3607.46
4755.66
5845.94
6861.42
7786.35
8606.37
9308.72
9882.45
10318.6
10610.4
10753.3
10745
10585.8
10278.2
9827.2
9239.73
8524.65
7692.14
6753.11
5717.87
4595.01
3389.77
2107.24
766.891
2453.97
3656.18
4817.64
5920.43
6947.49
7882.88
8712.07
9422.17
10002.1
10442.8
10737.5
10881.4
10872.5
10710.8
10399
9942.04
9347.1
8623.14
7780.5
6830.26
5782.89
4647.07
3427.99
2130.66
774.748
2413.38
3599.63
4745.74
5834.04
6847.7
7770.98
8589.56
9290.68
9863.44
10298.9
10590.2
10732.9
10724.8
10566
10259.1
9809
9222.72
8509.05
7678.15
6740.9
5707.59
4586.79
3383.75
2103.56
765.648
2446.08
3645.1
4803.5
5903.39
6927.77
7860.74
8687.81
9396.11
9974.61
10414.3
10708.2
10851.9
10843.1
10682
10371.2
9915.59
9322.37
8600.46
7760.15
6812.49
5767.91
4635.08
3419.18
2125.26
772.938
2446.08
3645.1
4803.5
5903.39
6927.77
7860.74
8687.81
9396.11
9974.61
10414.3
10708.2
10851.9
10843.1
10682
10371.2
9915.59
9322.37
8600.46
7760.15
6812.49
5767.91
4635.08
3419.18
2125.26
772.938
2413.38
3599.63
4745.74
5834.05
6847.7
7770.99
8589.56
9290.68
9863.44
10298.9
10590.2
10732.9
10724.8
10566
10259.1
9809.01
9222.72
8509.06
7678.15
6740.9
5707.59
4586.8
3383.75
2103.56
765.648
2453.97
3656.18
4817.64
5920.43
6947.49
7882.88
8712.07
9422.17
10002.1
10442.8
10737.5
10881.4
10872.5
10710.8
10399
9942.04
9347.1
8623.14
7780.5
6830.26
5782.89
4647.07
3427.99
2130.66
774.748
2419.04
3607.46
4755.66
5845.94
6861.42
7786.35
8606.37
9308.71
9882.45
10318.6
10610.4
10753.3
10745
10585.8
10278.2
9827.2
9239.73
8524.65
7692.14
6753.11
5717.87
4595.01
3389.77
2107.24
766.891
2446.08
3645.1
4803.5
5903.39
6927.77
7860.74
8687.81
9396.11
9974.61
10414.3
10708.2
10851.9
10843.1
10682
10371.2
9915.59
9322.37
8600.46
7760.15
6812.49
5767.91
4635.08
3419.18
2125.26
772.938
2413.38
3599.63
4745.74
5834.04
6847.7
7770.98
8589.56
9290.68
9863.44
10298.9
10590.2
10732.9
10724.8
10566
10259.1
9809
9222.72
8509.05
7678.15
6740.9
5707.59
4586.79
3383.75
2103.56
765.648
2413.38
3599.63
4745.74
5834.04
6847.7
7770.99
8589.56
9290.68
9863.44
10298.9
10590.2
10732.9
10724.8
10566
10259.1
9809
9222.72
8509.06
7678.15
6740.9
5707.59
4586.8
3383.75
2103.56
765.648
2446.08
3645.1
4803.5
5903.39
6927.77
7860.74
8687.81
9396.11
9974.61
10414.3
10708.2
10851.9
10843.1
10682
10371.2
9915.59
9322.37
8600.46
7760.15
6812.49
5767.91
4635.08
3419.18
2125.26
772.938
)
;

boundaryField
{
    outletCentralUnloaded
    {
        type            zeroGradient;
    }
    inletCentralUnloaded
    {
        type            zeroGradient;
    }
    outletFuelElement
    {
        type            zeroGradient;
    }
    inletFuelElement
    {
        type            zeroGradient;
    }
    defaultFaces
    {
        type            zeroGradient;
    }
    baffle_master
    {
        type            zeroGradient;
    }
    baffle_slave
    {
        type            zeroGradient;
    }
}


// ************************************************************************* //
