/*--------------------------------*- C++ -*----------------------------------*\
| =========                 |                                                 |
| \\      /  F ield         | OpenFOAM: The Open Source CFD Toolbox           |
|  \\    /   O peration     | Version:  2212                                  |
|   \\  /    A nd           | Website:  www.openfoam.com                      |
|    \\/     M anipulation  |                                                 |
\*---------------------------------------------------------------------------*/
FoamFile
{
    version     2.0;
    format      ascii;
    arch        "LSB;label=32;scalar=64";
    class       volScalarField;
    location    "54/fluidRegion";
    object      Tfo.nuclearFuelPin;
}
// * * * * * * * * * * * * * * * * * * * * * * * * * * * * * * * * * * * * * //

dimensions      [0 0 0 1 0 0 0];

internalField   nonuniform List<scalar> 
350
(
0
0
0
0
0
0
0
0
0
0
0
0
0
0
0
0
0
0
0
0
0
0
0
0
0
0
0
0
0
0
0
0
0
0
0
0
0
0
0
0
0
0
0
0
0
0
0
0
0
0
2020.42
2409.68
2777.68
3118.99
3428.56
3701.78
3934.54
4123.35
4265.37
4358.44
4401.17
4392.94
4333.92
4225.1
4068.26
3865.91
3621.17
3337.47
3018.19
2666.1
2282.3
1865.06
1408.5
905.777
363.957
2050.84
2444.74
2817.05
3162.3
3475.36
3751.56
3986.77
4177.45
4320.73
4414.44
4457.16
4448.28
4387.97
4277.24
4117.89
3912.48
3664.2
3376.55
3053.02
2696.44
2307.98
1885.85
1424.03
915.438
367.205
2015.49
2404.03
2771.35
3112.06
3421.1
3693.85
3926.24
4114.77
4256.6
4349.59
4392.33
4384.21
4325.4
4216.88
4060.44
3858.59
3614.4
3331.33
3012.73
2661.34
2278.28
1861.82
1406.09
904.287
363.449
2043.99
2436.81
2808.11
3152.43
3464.68
3740.18
3974.81
4165.05
4308.02
4401.57
4444.29
4435.55
4375.53
4265.23
4106.45
3901.75
3654.28
3367.54
3044.99
2689.44
2302.06
1881.06
1420.45
913.207
366.456
2043.99
2436.81
2808.11
3152.43
3464.68
3740.18
3974.81
4165.05
4308.02
4401.57
4444.29
4435.55
4375.53
4265.23
4106.45
3901.75
3654.28
3367.54
3044.99
2689.44
2302.06
1881.06
1420.45
913.207
366.456
2015.49
2404.03
2771.36
3112.06
3421.1
3693.86
3926.24
4114.77
4256.6
4349.59
4392.33
4384.21
4325.4
4216.88
4060.44
3858.59
3614.41
3331.33
3012.73
2661.34
2278.29
1861.82
1406.09
904.288
363.449
2050.84
2444.74
2817.05
3162.3
3475.36
3751.56
3986.77
4177.45
4320.73
4414.44
4457.16
4448.28
4387.97
4277.24
4117.89
3912.48
3664.2
3376.55
3053.02
2696.44
2307.98
1885.85
1424.03
915.438
367.205
2020.42
2409.68
2777.68
3118.99
3428.56
3701.78
3934.54
4123.35
4265.37
4358.44
4401.17
4392.94
4333.92
4225.1
4068.25
3865.91
3621.17
3337.47
3018.19
2666.1
2282.3
1865.06
1408.5
905.777
363.957
2043.99
2436.81
2808.11
3152.43
3464.68
3740.18
3974.81
4165.05
4308.02
4401.57
4444.29
4435.55
4375.53
4265.23
4106.45
3901.75
3654.28
3367.54
3044.99
2689.44
2302.06
1881.06
1420.45
913.207
366.456
2015.49
2404.03
2771.36
3112.06
3421.1
3693.85
3926.24
4114.77
4256.6
4349.59
4392.33
4384.21
4325.4
4216.88
4060.44
3858.59
3614.4
3331.33
3012.73
2661.34
2278.28
1861.82
1406.09
904.287
363.449
2015.49
2404.03
2771.36
3112.06
3421.1
3693.86
3926.24
4114.77
4256.6
4349.59
4392.33
4384.21
4325.4
4216.88
4060.44
3858.59
3614.41
3331.33
3012.73
2661.34
2278.29
1861.82
1406.09
904.288
363.449
2043.99
2436.81
2808.11
3152.43
3464.68
3740.18
3974.81
4165.05
4308.02
4401.57
4444.29
4435.55
4375.53
4265.23
4106.45
3901.75
3654.28
3367.54
3044.99
2689.44
2302.06
1881.06
1420.45
913.207
366.456
)
;

boundaryField
{
    outletCentralUnloaded
    {
        type            zeroGradient;
    }
    inletCentralUnloaded
    {
        type            zeroGradient;
    }
    outletFuelElement
    {
        type            zeroGradient;
    }
    inletFuelElement
    {
        type            zeroGradient;
    }
    defaultFaces
    {
        type            zeroGradient;
    }
    baffle_master
    {
        type            zeroGradient;
    }
    baffle_slave
    {
        type            zeroGradient;
    }
}


// ************************************************************************* //
