/*--------------------------------*- C++ -*----------------------------------*\
| =========                 |                                                 |
| \\      /  F ield         | OpenFOAM: The Open Source CFD Toolbox           |
|  \\    /   O peration     | Version:  2212                                  |
|   \\  /    A nd           | Website:  www.openfoam.com                      |
|    \\/     M anipulation  |                                                 |
\*---------------------------------------------------------------------------*/
FoamFile
{
    version     2.0;
    format      ascii;
    arch        "LSB;label=32;scalar=64";
    class       scalarFieldField;
    location    "54/fluidRegion";
    object      Trad.nuclearFuelPin;
}
// * * * * * * * * * * * * * * * * * * * * * * * * * * * * * * * * * * * * * //


350
(
0()
0()
0()
0()
0()
0()
0()
0()
0()
0()
0()
0()
0()
0()
0()
0()
0()
0()
0()
0()
0()
0()
0()
0()
0()
0()
0()
0()
0()
0()
0()
0()
0()
0()
0()
0()
0()
0()
0()
0()
0()
0()
0()
0()
0()
0()
0()
0()
0()
0()

20
(
2419.04
2417.27
2411.96
2403.12
2390.75
2374.83
2355.37
2332.37
2305.82
2275.73
2242.08
2204.88
2164.11
2119.78
2071.89
2020.42
1850.99
1846.96
1843.05
1839.27
)


20
(
3607.46
3602.14
3586.18
3559.58
3522.34
3474.46
3415.93
3346.76
3266.93
3176.46
3075.32
2963.53
2841.08
2707.95
2564.16
2409.68
1901.26
1889.15
1877.44
1866.09
)


20
(
4755.66
4746.87
4720.51
4676.58
4615.06
4535.97
4439.3
4325.05
4193.22
4043.79
3876.77
3692.16
3489.95
3270.13
3032.71
2777.68
1938.3
1918.31
1898.96
1880.23
)


20
(
5845.94
5833.82
5797.48
5736.9
5652.08
5543.04
5409.75
5252.23
5070.46
4864.45
4634.18
4379.67
4100.9
3797.86
3470.56
3118.99
1961.92
1934.35
1907.69
1881.87
)


20
(
6861.42
6846.17
6800.41
6724.14
6617.37
6480.08
6312.29
6113.98
5885.15
5625.8
5335.93
5015.53
4664.6
4283.13
3871.12
3428.56
1972.05
1937.36
1903.79
1871.29
)


20
(
7786.35
7768.2
7713.75
7623.01
7495.96
7332.6
7132.95
6896.98
6624.71
6316.12
5971.21
5589.98
5172.43
4718.55
4228.33
3701.78
1968.82
1927.54
1887.6
1848.93
)


20
(
8606.37
8585.61
8523.33
8419.53
8274.21
8087.37
7859
7589.11
7277.68
6924.72
6530.23
6094.19
5616.61
5097.47
4536.79
3934.54
1952.48
1905.27
1859.59
1815.35
)


20
(
9308.72
9285.67
9216.55
9101.34
8940.04
8732.66
8479.18
8179.62
7833.96
7442.2
7004.33
6520.37
5990.29
5414.1
4791.79
4123.35
1923.46
1871.06
1820.37
1771.27
)


20
(
9882.45
9857.49
9782.6
9657.8
9483.07
9258.42
8983.84
8659.33
8284.88
7860.51
7386.19
6861.93
6287.72
5663.56
4989.44
4265.37
1882.36
1825.59
1770.68
1717.5
)


20
(
10318.6
10292.1
10212.7
10080.2
9894.84
9656.46
9365.1
9020.77
8623.45
8173.15
7669.86
7113.58
6504.3
5842.02
5126.74
4358.44
1829.91
1769.68
1711.41
1654.98
)


20
(
10610.4
10582.8
10500
10362.1
10168.9
9920.57
9617.04
9258.32
8844.4
8375.28
7850.95
7271.43
6636.69
5946.74
5201.56
4401.17
1767.01
1704.26
1643.55
1584.77
)


20
(
10753.3
10725
10640.2
10498.9
10301
10046.6
9735.73
9368.27
8944.28
8463.74
7926.66
7333.03
6682.84
5976.1
5212.8
4392.94
1694.69
1630.42
1568.24
1508.02
)


20
(
10745
10716.5
10631
10488.6
10289.2
10032.7
9719.34
9348.95
8921.57
8437.19
7895.83
7297.46
6642.09
5929.71
5160.32
4333.92
1614.16
1549.37
1486.69
1425.99
)


20
(
10585.8
10557.5
10472.7
10331.4
10133.5
9879.13
9568.19
9200.71
8776.69
8296.12
7759
7165.34
6515.12
5808.34
5045
4225.1
1526.72
1462.44
1400.26
1340.04
)


20
(
10278.2
10250.6
10167.8
10029.9
9836.68
9588.31
9284.73
8925.96
8511.98
8042.8
7518.42
6938.82
6304.01
5613.98
4868.73
4068.26
1433.83
1371.08
1310.37
1251.58
)


20
(
9827.2
9800.71
9721.23
9588.77
9403.33
9164.9
8873.48
8529.08
8131.68
7681.29
7177.9
6621.51
6012.12
5349.73
4634.32
3865.91
1337
1276.76
1218.48
1162.04
)


20
(
9239.73
9214.76
9139.85
9015.01
8840.22
8615.5
8340.84
8016.23
7641.68
7217.18
6742.74
6218.34
5643.98
5019.67
4345.4
3621.17
1237.66
1180.88
1125.95
1072.76
)


20
(
8524.65
8501.6
8432.45
8317.19
8155.83
7948.36
7694.78
7395.09
7049.3
6657.39
6219.37
5735.23
5204.98
4628.6
4006.1
3337.47
1136.96
1084.55
1033.84
984.726
)


20
(
7692.14
7671.37
7609.06
7505.2
7359.81
7172.86
6944.38
6674.34
6362.76
6009.63
5614.95
5178.71
4700.92
4181.57
3620.66
3018.19
1035.41
988.182
942.49
898.239
)


20
(
6753.11
6734.95
6680.46
6589.65
6462.51
6299.04
6099.24
5863.12
5590.67
5281.88
4936.76
4555.31
4137.51
3683.38
3192.91
2666.1
932.307
891.006
851.051
812.357
)


20
(
5717.87
5702.6
5656.8
5580.46
5473.59
5336.18
5168.23
4969.74
4740.72
4481.15
4191.04
3870.39
3519.19
3137.44
2725.15
2282.3
824.867
790.149
756.563
724.036
)


20
(
4595.01
4582.88
4546.49
4485.83
4400.9
4291.71
4158.26
4000.54
3818.55
3612.3
3381.77
3126.98
2847.91
2544.57
2216.95
1865.06
706.956
679.369
652.681
626.835
)


20
(
3389.77
3380.96
3354.55
3310.52
3248.89
3169.65
3072.79
2958.33
2826.25
2676.56
2509.25
2324.34
2121.8
1901.65
1663.88
1408.5
568.003
547.981
528.612
509.854
)


20
(
2107.24
2101.9
2085.88
2059.19
2021.81
1973.76
1915.02
1845.61
1765.51
1674.74
1573.28
1461.15
1338.33
1204.83
1060.64
905.777
396.1
383.958
372.213
360.838
)


20
(
766.891
765.1
759.727
750.772
738.236
722.117
702.417
679.135
652.272
621.827
587.801
550.194
509.006
464.237
415.888
363.957
193.055
188.984
185.045
181.231
)


20
(
2453.97
2452.18
2446.82
2437.88
2425.36
2409.26
2389.59
2366.33
2339.48
2309.04
2275.01
2237.39
2196.16
2151.33
2102.89
2050.84
1879.49
1875.41
1871.46
1867.64
)


20
(
3656.18
3650.8
3634.66
3607.76
3570.1
3521.67
3462.47
3392.51
3311.78
3220.27
3117.98
3004.91
2881.06
2746.42
2600.98
2444.74
1930.52
1918.27
1906.42
1894.94
)


20
(
4817.64
4808.76
4782.09
4737.66
4675.44
4595.45
4497.67
4382.12
4248.77
4097.64
3928.71
3741.99
3537.47
3315.14
3075
2817.05
1968.08
1947.85
1928.29
1909.34
)


20
(
5920.43
5908.18
5871.42
5810.14
5724.36
5614.07
5479.26
5319.93
5136.09
4927.72
4694.82
4437.39
4155.43
3848.93
3517.89
3162.3
1991.98
1964.11
1937.14
1911.02
)


20
(
6947.49
6932.06
6885.78
6808.64
6700.64
6561.79
6392.07
6191.5
5960.05
5697.74
5404.55
5080.48
4725.53
4339.7
3922.98
3475.36
2002.18
1967.08
1933.13
1900.26
)


20
(
7882.88
7864.52
7809.45
7717.66
7589.16
7423.94
7222
6983.33
6707.94
6395.82
6046.97
5661.38
5239.05
4779.97
4284.14
3751.56
1998.76
1957.01
1916.62
1877.5
)


20
(
8712.07
8691.08
8628.09
8523.1
8376.12
8187.14
7956.15
7683.17
7368.18
7011.18
6612.17
6171.14
5688.09
5163.01
4595.91
3986.77
1982.02
1934.26
1888.06
1843.32
)


20
(
9422.17
9398.87
9328.95
9212.42
9049.28
8839.52
8583.15
8280.15
7930.53
7534.29
7091.41
6601.91
6065.76
5482.97
4853.54
4177.45
1952.38
1899.37
1848.1
1798.44
)


20
(
10002.1
9976.87
9901.13
9774.9
9598.17
9370.94
9093.22
8764.99
8386.26
7957.03
7477.28
6947.02
6366.23
5734.93
5053.09
4320.73
1910.44
1853.02
1797.48
1743.68
)


20
(
10442.8
10416.1
10335.7
10201.7
10014.2
9773.11
9478.42
9130.15
8728.28
8272.83
7763.77
7201.12
6584.86
5915
5191.53
4414.44
1856.95
1796.03
1737.09
1680.02
)


20
(
10737.5
10709.6
10625.8
10486.3
10290.9
10039.8
9732.75
9369.92
8951.26
8476.77
7946.44
7360.28
6718.27
6020.42
5266.72
4457.16
1792.83
1729.37
1667.97
1608.5
)


20
(
10881.4
10852.8
10767.1
10624.1
10424
10166.7
9852.24
9480.58
9051.73
8565.69
8022.46
7422.03
6764.4
6049.57
5277.53
4448.28
1719.13
1654.12
1591.23
1530.32
)


20
(
10872.5
10843.6
10757.2
10613.1
10411.4
10152
9835.06
9460.43
9028.15
8538.23
7990.67
7385.45
6722.57
6002.04
5223.84
4387.97
1637.06
1571.53
1508.14
1446.75
)


20
(
10710.8
10682.2
10596.4
10453.5
10253.3
9996.02
9681.52
9309.83
8880.95
8394.88
7851.61
7251.15
6593.48
5878.61
5106.53
4277.24
1547.96
1482.95
1420.05
1359.14
)


20
(
10399
10371.1
10287.3
10147.8
9952.37
9701.15
9394.1
9031.22
8612.5
8137.95
7607.56
7021.32
6379.24
5681.31
4927.53
4117.89
1453.3
1389.82
1328.42
1268.95
)


20
(
9942.04
9915.24
9834.86
9700.88
9513.32
9272.16
8977.4
8629.05
8227.1
7771.55
7262.4
6699.64
6083.27
5413.29
4689.7
3912.48
1354.61
1293.68
1234.73
1177.65
)


20
(
9347.1
9321.84
9246.08
9119.8
8943.02
8715.72
8437.92
8109.59
7730.75
7301.39
6821.51
6291.11
5710.18
5078.72
4396.72
3664.2
1253.39
1195.96
1140.4
1086.6
)


20
(
8623.14
8599.83
8529.88
8413.3
8250.09
8040.24
7783.76
7480.64
7130.89
6734.49
6291.46
5801.78
5265.45
4682.47
4052.84
3376.55
1150.84
1097.82
1046.53
996.861
)


20
(
7780.5
7759.49
7696.46
7591.42
7444.35
7255.27
7024.17
6751.04
6435.89
6078.72
5679.51
5238.28
4755.02
4229.72
3662.39
3053.02
1047.53
999.758
953.541
908.784
)


20
(
6830.26
6811.89
6756.78
6664.92
6536.33
6370.99
6168.91
5930.08
5654.5
5342.18
4993.11
4607.29
4184.71
3725.38
3229.29
2696.44
942.791
901.017
860.605
821.468
)


20
(
5782.89
5767.45
5721.12
5643.91
5535.81
5396.83
5226.95
5026.19
4794.55
4532.01
4238.57
3914.25
3559.03
3172.91
2755.89
2307.98
833.849
798.733
764.762
731.863
)


20
(
4647.07
4634.8
4597.99
4536.63
4450.74
4340.3
4205.32
4045.79
3861.72
3653.1
3419.93
3162.22
2879.96
2573.14
2241.77
1885.85
714.485
686.582
659.588
633.445
)


20
(
3427.99
3419.08
3392.37
3347.84
3285.5
3205.35
3107.39
2991.61
2858.02
2706.61
2537.4
2350.36
2145.51
1922.83
1682.34
1424.03
573.912
553.662
534.071
515.098
)


20
(
2130.66
2125.26
2109.06
2082.05
2044.25
1995.64
1936.24
1866.03
1785.02
1693.2
1590.59
1477.17
1352.94
1217.91
1072.08
915.438
399.925
387.645
375.765
364.26
)


20
(
774.748
772.937
767.503
758.445
745.765
729.463
709.537
685.989
658.819
628.026
593.61
555.573
513.914
468.633
419.73
367.205
194.347
190.229
186.246
182.388
)


20
(
2413.38
2411.62
2406.32
2397.5
2385.14
2369.26
2349.83
2326.87
2300.37
2270.33
2236.74
2199.61
2158.92
2114.67
2066.86
2015.49
1846.37
1842.34
1838.44
1834.67
)


20
(
3599.63
3594.32
3578.39
3551.84
3514.66
3466.87
3408.45
3339.4
3259.72
3169.41
3068.46
2956.87
2834.64
2701.76
2558.22
2404.03
1896.53
1884.45
1872.75
1861.43
)


20
(
4745.74
4736.97
4710.65
4666.8
4605.4
4526.45
4429.96
4315.91
4184.32
4035.16
3868.45
3684.17
3482.33
3262.92
3025.93
2771.35
1933.51
1913.55
1894.24
1875.54
)


20
(
5834.04
5821.95
5785.67
5725.2
5640.54
5531.69
5398.65
5241.41
5059.97
4854.34
4624.49
4370.44
4092.18
3789.7
3462.99
3112.06
1957.09
1929.58
1902.97
1877.19
)


20
(
6847.7
6832.47
6786.8
6710.67
6604.09
6467.06
6299.57
6101.62
5873.21
5614.33
5324.99
5005.17
4654.88
4274.11
3862.85
3421.1
1967.24
1932.61
1899.11
1866.66
)


20
(
7770.98
7752.87
7698.52
7607.94
7481.12
7318.06
7118.77
6883.23
6611.45
6303.43
5959.15
5578.62
5161.83
4708.77
4219.45
3693.85
1964.05
1922.85
1882.99
1844.38
)


20
(
8589.56
8568.84
8506.67
8403.06
8258.01
8071.5
7843.55
7574.15
7263.29
6910.98
6517.2
6081.95
5605.24
5087.06
4527.39
3926.24
1947.8
1900.67
1855.07
1810.92
)


20
(
9290.68
9267.68
9198.68
9083.68
8922.68
8715.67
8462.66
8163.64
7818.61
7427.57
6990.5
6507.42
5978.31
5403.16
4781.99
4114.77
1918.9
1866.59
1815.98
1766.98
)


20
(
9863.44
9838.52
9763.78
9639.2
9464.79
9240.55
8966.47
8642.55
8268.79
7845.19
7371.73
6848.43
6275.26
5652.24
4979.36
4256.6
1877.94
1821.28
1766.46
1713.38
)


20
(
10298.9
10272.5
10193.1
10061
9875.89
9637.94
9347.12
9003.41
8606.82
8157.34
7654.97
7099.7
6491.53
5830.46
5116.48
4349.59
1825.67
1765.54
1707.38
1651.05
)


20
(
10590.2
10562.7
10480.1
10342.4
10149.6
9901.66
9598.69
9240.62
8827.45
8359.19
7835.82
7257.35
6623.77
5935.07
5191.26
4392.33
1762.97
1700.33
1639.74
1581.06
)


20
(
10732.9
10704.7
10620.1
10479
10281.5
10027.6
9717.25
9350.47
8927.24
8447.58
7911.48
7318.93
6669.94
5964.48
5202.58
4384.21
1690.88
1626.72
1564.66
1504.55
)


20
(
10724.8
10696.4
10611
10468.8
10269.8
10013.8
9701
9331.28
8904.68
8421.19
7880.81
7283.53
6629.36
5918.28
5150.29
4325.4
1610.59
1545.93
1483.36
1422.78
)


20
(
10566
10537.8
10453.1
10312.1
10114.5
9860.61
9550.23
9183.42
8760.17
8280.48
7744.35
7151.76
6502.73
5797.24
5035.29
4216.88
1523.43
1459.27
1397.2
1337.09
)


20
(
10259.1
10231.6
10148.9
10011.2
9818.35
9570.43
9267.41
8909.29
8496.07
8027.74
7504.31
6925.77
6292.12
5603.35
4859.46
4060.44
1430.83
1368.19
1307.59
1248.9
)


20
(
9809
9782.56
9703.23
9571.01
9385.91
9147.91
8857.03
8513.25
8116.57
7667
7164.53
6609.16
6000.88
5339.7
4625.6
3858.59
1334.29
1274.15
1215.98
1159.65
)


20
(
9222.72
9197.79
9123.02
8998.41
8823.94
8599.63
8325.47
8001.45
7627.58
7203.86
6730.28
6206.84
5633.53
5010.36
4337.32
3614.4
1235.24
1178.57
1123.74
1070.64
)


20
(
8509.05
8486.05
8417.02
8301.97
8140.9
7933.81
7680.69
7381.55
7036.39
6645.2
6207.98
5724.72
5195.43
4620.11
3998.74
3331.33
1134.84
1082.52
1031.9
982.877
)


20
(
7678.15
7657.42
7595.22
7491.55
7346.42
7159.82
6931.75
6662.21
6351.19
5998.71
5604.75
5169.31
4692.39
4173.98
3614.1
3012.73
1033.56
986.417
940.807
896.637
)


20
(
6740.9
6722.77
6668.38
6577.73
6450.82
6287.65
6088.22
5852.53
5580.57
5272.35
4927.86
4547.1
4130.07
3676.77
3187.19
2661.34
930.711
889.485
849.603
810.98
)


20
(
5707.59
5692.35
5646.63
5570.43
5463.75
5326.59
5158.95
4960.82
4732.21
4473.12
4183.54
3863.47
3512.91
3131.86
2720.32
2278.28
823.507
788.853
755.328
722.861
)


20
(
4586.79
4574.68
4538.36
4477.81
4393.04
4284.05
4150.84
3993.4
3811.75
3605.87
3375.76
3121.43
2842.87
2540.09
2213.07
1861.82
705.828
678.291
651.652
625.853
)


20
(
3383.75
3374.96
3348.59
3304.65
3243.13
3164.03
3067.35
2953.09
2821.26
2671.84
2504.84
2320.26
2118.09
1898.35
1661.01
1406.09
567.129
547.144
527.81
509.087
)


20
(
2103.56
2098.23
2082.24
2055.59
2018.29
1970.32
1911.69
1842.4
1762.46
1671.85
1570.58
1458.64
1336.05
1202.79
1058.87
904.287
395.539
383.42
371.696
360.342
)


20
(
765.648
763.86
758.497
749.559
737.045
720.956
701.292
678.052
651.238
620.849
586.885
549.346
508.233
463.546
415.284
363.449
192.857
188.794
184.862
181.055
)


20
(
2446.08
2444.3
2438.95
2430.03
2417.54
2401.49
2381.86
2358.66
2331.88
2301.52
2267.58
2230.05
2188.93
2144.22
2095.91
2043.99
1873.08
1869.01
1865.07
1861.26
)


20
(
3645.1
3639.74
3623.64
3596.81
3559.24
3510.94
3451.9
3382.11
3301.59
3210.32
3108.3
2995.52
2871.99
2737.7
2592.64
2436.81
1923.92
1911.7
1899.88
1888.44
)


20
(
4803.5
4794.63
4768.04
4723.72
4661.66
4581.88
4484.36
4369.1
4236.1
4085.36
3916.88
3730.64
3526.65
3304.9
3065.39
2808.11
1961.34
1941.17
1921.66
1902.76
)


20
(
5903.39
5891.17
5854.5
5793.39
5707.83
5597.82
5463.36
5304.45
5121.08
4913.26
4680.97
4424.21
4142.98
3837.28
3507.1
3152.43
1985.17
1957.36
1930.46
1904.41
)


20
(
6927.77
6912.38
6866.22
6789.28
6681.57
6543.07
6373.8
6173.74
5942.9
5681.27
5388.84
5065.62
4711.6
4326.77
3911.13
3464.68
1995.33
1960.33
1926.47
1893.68
)


20
(
7860.74
7842.43
7787.5
7695.95
7567.78
7402.99
7201.57
6963.53
6688.86
6377.55
6029.6
5645.02
5223.79
4765.91
4271.37
3740.18
1991.95
1950.3
1910.02
1871
)


20
(
8687.81
8666.86
8604.04
8499.32
8352.72
8164.23
7933.85
7661.58
7347.41
6991.34
6593.37
6153.49
5671.7
5147.99
4582.36
3974.81
1975.28
1927.65
1881.57
1836.95
)


20
(
9396.11
9372.86
9303.13
9186.9
9024.18
8814.97
8559.27
8257.06
7908.35
7513.14
7071.42
6583.19
6048.44
5467.17
4839.37
4165.05
1945.77
1892.91
1841.76
1792.24
)


20
(
9974.61
9949.43
9873.88
9747.98
9571.71
9345.08
9068.08
8740.71
8362.97
7934.85
7456.35
6927.47
6348.2
5718.54
5038.48
4308.02
1904.01
1846.75
1791.35
1737.69
)


20
(
10414.3
10387.6
10307.4
10173.8
9986.77
9746.29
9452.37
9105
8704.18
8249.91
7742.18
7181
6566.35
5898.23
5176.64
4401.57
1850.76
1789.99
1731.21
1674.28
)


20
(
10708.2
10680.4
10596.9
10457.7
10262.9
10012.3
9706.13
9344.25
8926.68
8453.43
7924.48
7339.85
6699.51
6003.48
5251.74
4444.29
1786.91
1723.6
1662.37
1603.06
)


20
(
10851.9
10823.4
10737.9
10595.3
10395.7
10139.1
9825.43
9454.74
9027.01
8542.23
8000.42
7401.55
6745.64
6032.67
5262.64
4435.55
1713.52
1648.68
1585.95
1525.2
)


20
(
10843.1
10814.4
10728.2
10584.5
10383.3
10124.6
9808.42
9434.77
9003.62
8514.98
7968.84
7365.2
6704.05
5985.39
5209.22
4375.53
1631.79
1566.43
1503.21
1441.97
)


20
(
10682
10653.5
10567.9
10425.4
10225.8
9969.11
9655.43
9284.71
8856.95
8372.14
7830.29
7231.39
6575.44
5862.43
5092.36
4265.23
1543.07
1478.22
1415.49
1354.74
)


20
(
10371.2
10343.3
10259.8
10120.6
9925.73
9675.17
9368.92
9006.98
8589.36
8116.04
7587.03
7002.32
6361.91
5665.8
4913.98
4106.45
1448.81
1385.5
1324.26
1264.94
)


20
(
9915.59
9888.87
9808.69
9675.07
9487.99
9247.46
8953.47
8606.03
8205.13
7750.76
7242.94
6681.65
6066.88
5398.65
4676.94
3901.75
1350.55
1289.77
1230.98
1174.04
)


20
(
9322.37
9297.18
9221.61
9095.67
8919.35
8692.64
8415.56
8088.09
7710.24
7282
6803.37
6274.34
5694.93
5065.11
4384.9
3654.28
1249.76
1192.48
1137.07
1083.4
)


20
(
8600.46
8577.2
8507.44
8391.16
8228.38
8019.08
7763.27
7460.94
7112.1
6716.73
6274.85
5786.45
5251.51
4670.06
4042.07
3367.54
1147.64
1094.76
1043.6
994.055
)


20
(
7760.15
7739.19
7676.33
7571.56
7424.88
7236.29
7005.79
6733.37
6419.05
6062.8
5664.64
5224.56
4742.56
4218.63
3652.77
3044.99
1044.73
997.081
950.986
906.345
)


20
(
6812.49
6794.17
6739.2
6647.58
6519.32
6354.41
6152.86
5914.65
5639.8
5328.29
4980.13
4595.31
4173.83
3715.7
3220.9
2689.44
940.367
898.702
858.395
819.36
)


20
(
5767.91
5752.51
5706.31
5629.29
5521.48
5382.86
5213.43
5013.19
4782.14
4520.29
4227.62
3904.14
3549.85
3164.73
2748.81
2302.06
831.771
796.747
762.865
730.052
)


20
(
4635.08
4622.84
4586.12
4524.93
4439.26
4329.1
4194.47
4035.36
3851.77
3643.7
3411.14
3154.1
2872.57
2566.55
2236.05
1881.06
712.742
684.912
657.988
631.914
)


20
(
3419.18
3410.3
3383.65
3339.24
3277.06
3197.12
3099.41
2983.94
2850.7
2699.69
2530.91
2344.36
2140.04
1917.95
1678.09
1420.45
572.543
552.345
532.805
513.882
)


20
(
2125.26
2119.87
2103.71
2076.78
2039.08
1990.6
1931.35
1861.32
1780.52
1688.95
1586.6
1473.47
1349.57
1214.89
1069.44
913.207
399.037
386.789
374.94
363.465
)


20
(
772.938
771.132
765.711
756.678
744.031
727.77
707.897
684.41
657.31
626.598
592.272
554.334
512.783
467.619
418.844
366.456
194.048
189.941
185.968
182.12
)


20
(
2446.08
2444.3
2438.95
2430.03
2417.54
2401.49
2381.86
2358.66
2331.88
2301.52
2267.58
2230.05
2188.93
2144.22
2095.91
2043.99
1873.08
1869.01
1865.07
1861.26
)


20
(
3645.1
3639.74
3623.64
3596.81
3559.24
3510.94
3451.9
3382.11
3301.59
3210.32
3108.3
2995.52
2871.99
2737.7
2592.64
2436.81
1923.92
1911.7
1899.88
1888.44
)


20
(
4803.5
4794.63
4768.04
4723.72
4661.66
4581.88
4484.36
4369.1
4236.1
4085.36
3916.88
3730.64
3526.65
3304.9
3065.39
2808.11
1961.34
1941.17
1921.66
1902.76
)


20
(
5903.39
5891.17
5854.5
5793.39
5707.83
5597.82
5463.36
5304.45
5121.08
4913.26
4680.97
4424.21
4142.98
3837.28
3507.1
3152.43
1985.17
1957.36
1930.46
1904.41
)


20
(
6927.77
6912.38
6866.22
6789.28
6681.56
6543.07
6373.8
6173.74
5942.9
5681.27
5388.84
5065.62
4711.6
4326.77
3911.13
3464.68
1995.33
1960.33
1926.47
1893.68
)


20
(
7860.74
7842.43
7787.5
7695.95
7567.78
7402.99
7201.57
6963.53
6688.86
6377.55
6029.6
5645.02
5223.79
4765.91
4271.37
3740.18
1991.95
1950.3
1910.02
1871
)


20
(
8687.81
8666.86
8604.04
8499.32
8352.72
8164.23
7933.85
7661.58
7347.41
6991.34
6593.37
6153.49
5671.7
5147.99
4582.36
3974.81
1975.28
1927.65
1881.57
1836.95
)


20
(
9396.11
9372.86
9303.13
9186.9
9024.18
8814.97
8559.26
8257.06
7908.35
7513.14
7071.42
6583.19
6048.44
5467.17
4839.37
4165.05
1945.77
1892.91
1841.76
1792.24
)


20
(
9974.61
9949.43
9873.88
9747.98
9571.71
9345.08
9068.08
8740.71
8362.97
7934.85
7456.35
6927.47
6348.2
5718.54
5038.48
4308.02
1904.01
1846.75
1791.35
1737.69
)


20
(
10414.3
10387.6
10307.4
10173.8
9986.77
9746.29
9452.37
9105
8704.18
8249.91
7742.18
7181
6566.35
5898.23
5176.64
4401.57
1850.76
1789.99
1731.21
1674.28
)


20
(
10708.2
10680.4
10596.9
10457.7
10262.9
10012.3
9706.13
9344.25
8926.68
8453.42
7924.48
7339.84
6699.51
6003.48
5251.74
4444.29
1786.91
1723.6
1662.37
1603.06
)


20
(
10851.9
10823.4
10737.9
10595.3
10395.7
10139.1
9825.43
9454.74
9027.01
8542.23
8000.42
7401.55
6745.64
6032.67
5262.64
4435.55
1713.52
1648.68
1585.95
1525.2
)


20
(
10843.1
10814.4
10728.2
10584.5
10383.3
10124.6
9808.42
9434.77
9003.62
8514.98
7968.84
7365.19
6704.05
5985.39
5209.22
4375.53
1631.79
1566.43
1503.21
1441.97
)


20
(
10682
10653.5
10567.9
10425.4
10225.8
9969.11
9655.43
9284.71
8856.95
8372.14
7830.29
7231.39
6575.44
5862.43
5092.36
4265.23
1543.07
1478.22
1415.49
1354.74
)


20
(
10371.2
10343.3
10259.8
10120.6
9925.73
9675.17
9368.92
9006.98
8589.36
8116.04
7587.03
7002.32
6361.91
5665.8
4913.98
4106.45
1448.81
1385.5
1324.26
1264.94
)


20
(
9915.59
9888.87
9808.69
9675.07
9487.99
9247.46
8953.47
8606.03
8205.13
7750.76
7242.94
6681.65
6066.88
5398.65
4676.94
3901.75
1350.55
1289.77
1230.98
1174.04
)


20
(
9322.37
9297.18
9221.61
9095.67
8919.35
8692.64
8415.56
8088.09
7710.24
7282
6803.37
6274.34
5694.93
5065.11
4384.9
3654.28
1249.76
1192.48
1137.07
1083.4
)


20
(
8600.46
8577.2
8507.44
8391.16
8228.38
8019.08
7763.27
7460.94
7112.1
6716.73
6274.85
5786.45
5251.51
4670.06
4042.07
3367.54
1147.64
1094.76
1043.6
994.055
)


20
(
7760.15
7739.19
7676.33
7571.56
7424.88
7236.29
7005.79
6733.37
6419.05
6062.8
5664.64
5224.56
4742.56
4218.63
3652.77
3044.99
1044.73
997.081
950.986
906.345
)


20
(
6812.49
6794.17
6739.2
6647.58
6519.32
6354.41
6152.86
5914.65
5639.8
5328.29
4980.13
4595.31
4173.83
3715.7
3220.9
2689.44
940.367
898.702
858.395
819.36
)


20
(
5767.91
5752.51
5706.3
5629.29
5521.48
5382.85
5213.43
5013.19
4782.14
4520.29
4227.62
3904.14
3549.85
3164.73
2748.81
2302.06
831.771
796.747
762.865
730.052
)


20
(
4635.08
4622.84
4586.12
4524.93
4439.26
4329.11
4194.47
4035.36
3851.77
3643.7
3411.14
3154.1
2872.57
2566.55
2236.05
1881.06
712.742
684.912
657.988
631.914
)


20
(
3419.18
3410.3
3383.65
3339.24
3277.06
3197.12
3099.41
2983.94
2850.7
2699.69
2530.91
2344.36
2140.04
1917.95
1678.09
1420.45
572.543
552.345
532.806
513.882
)


20
(
2125.26
2119.87
2103.71
2076.78
2039.08
1990.6
1931.35
1861.32
1780.52
1688.95
1586.6
1473.47
1349.57
1214.89
1069.44
913.207
399.037
386.789
374.94
363.465
)


20
(
772.938
771.132
765.711
756.678
744.031
727.771
707.897
684.41
657.31
626.598
592.272
554.334
512.783
467.62
418.844
366.456
194.048
189.941
185.968
182.12
)


20
(
2413.38
2411.62
2406.33
2397.5
2385.15
2369.26
2349.83
2326.87
2300.38
2270.33
2236.75
2199.61
2158.92
2114.67
2066.86
2015.49
1846.37
1842.34
1838.44
1834.67
)


20
(
3599.63
3594.32
3578.39
3551.84
3514.66
3466.87
3408.45
3339.4
3259.72
3169.41
3068.46
2956.87
2834.64
2701.76
2558.22
2404.03
1896.54
1884.45
1872.75
1861.43
)


20
(
4745.74
4736.97
4710.66
4666.8
4605.4
4526.45
4429.96
4315.92
4184.32
4035.17
3868.45
3684.18
3482.33
3262.92
3025.93
2771.36
1933.51
1913.55
1894.24
1875.54
)


20
(
5834.05
5821.95
5785.67
5725.2
5640.54
5531.69
5398.65
5241.41
5059.98
4854.34
4624.5
4370.44
4092.18
3789.7
3462.99
3112.06
1957.1
1929.58
1902.97
1877.19
)


20
(
6847.7
6832.47
6786.8
6710.67
6604.09
6467.06
6299.57
6101.62
5873.21
5614.33
5324.99
5005.17
4654.88
4274.11
3862.85
3421.1
1967.24
1932.61
1899.11
1866.66
)


20
(
7770.99
7752.87
7698.52
7607.94
7481.12
7318.06
7118.77
6883.24
6611.46
6303.43
5959.15
5578.62
5161.83
4708.77
4219.45
3693.86
1964.06
1922.85
1882.99
1844.38
)


20
(
8589.56
8568.84
8506.67
8403.06
8258.01
8071.51
7843.55
7574.15
7263.29
6910.98
6517.2
6081.96
5605.24
5087.06
4527.39
3926.24
1947.8
1900.67
1855.08
1810.92
)


20
(
9290.68
9267.68
9198.69
9083.68
8922.68
8715.68
8462.66
8163.64
7818.61
7427.57
6990.5
6507.42
5978.31
5403.16
4781.99
4114.77
1918.9
1866.59
1815.99
1766.98
)


20
(
9863.44
9838.53
9763.78
9639.2
9464.79
9240.55
8966.47
8642.55
8268.79
7845.19
7371.73
6848.43
6275.27
5652.24
4979.36
4256.6
1877.94
1821.28
1766.46
1713.38
)


20
(
10298.9
10272.5
10193.1
10061
9875.89
9637.95
9347.12
9003.42
8606.82
8157.34
7654.97
7099.7
6491.53
5830.46
5116.48
4349.59
1825.67
1765.54
1707.38
1651.05
)


20
(
10590.2
10562.7
10480.1
10342.4
10149.6
9901.66
9598.69
9240.62
8827.45
8359.19
7835.82
7257.35
6623.77
5935.07
5191.26
4392.33
1762.97
1700.33
1639.74
1581.06
)


20
(
10732.9
10704.7
10620.1
10479
10281.5
10027.6
9717.25
9350.47
8927.25
8447.58
7911.48
7318.93
6669.94
5964.49
5202.58
4384.21
1690.88
1626.72
1564.66
1504.55
)


20
(
10724.8
10696.4
10611
10468.8
10269.8
10013.8
9701
9331.28
8904.68
8421.19
7880.81
7283.53
6629.36
5918.28
5150.29
4325.4
1610.6
1545.93
1483.36
1422.78
)


20
(
10566
10537.8
10453.1
10312.1
10114.5
9860.61
9550.23
9183.42
8760.17
8280.48
7744.35
7151.76
6502.73
5797.24
5035.29
4216.88
1523.43
1459.27
1397.2
1337.09
)


20
(
10259.1
10231.6
10148.9
10011.2
9818.35
9570.43
9267.41
8909.29
8496.07
8027.75
7504.31
6925.77
6292.12
5603.35
4859.46
4060.44
1430.83
1368.19
1307.59
1248.9
)


20
(
9809.01
9782.56
9703.23
9571.01
9385.91
9147.91
8857.03
8513.25
8116.58
7667.01
7164.53
6609.16
6000.88
5339.7
4625.6
3858.59
1334.29
1274.16
1215.98
1159.65
)


20
(
9222.72
9197.79
9123.02
8998.41
8823.94
8599.63
8325.47
8001.45
7627.59
7203.86
6730.28
6206.84
5633.53
5010.36
4337.32
3614.41
1235.24
1178.57
1123.74
1070.64
)


20
(
8509.06
8486.05
8417.02
8301.97
8140.9
7933.81
7680.69
7381.56
7036.39
6645.2
6207.98
5724.72
5195.43
4620.11
3998.74
3331.33
1134.84
1082.52
1031.9
982.877
)


20
(
7678.15
7657.42
7595.22
7491.55
7346.42
7159.82
6931.75
6662.21
6351.2
5998.71
5604.75
5169.31
4692.39
4173.98
3614.1
3012.73
1033.56
986.418
940.808
896.638
)


20
(
6740.9
6722.77
6668.38
6577.73
6450.82
6287.65
6088.22
5852.53
5580.57
5272.35
4927.86
4547.1
4130.07
3676.77
3187.19
2661.34
930.711
889.486
849.604
810.98
)


20
(
5707.59
5692.35
5646.63
5570.43
5463.75
5326.59
5158.95
4960.82
4732.21
4473.12
4183.54
3863.47
3512.91
3131.86
2720.32
2278.29
823.508
788.854
755.328
722.861
)


20
(
4586.8
4574.69
4538.36
4477.81
4393.04
4284.05
4150.84
3993.41
3811.75
3605.87
3375.77
3121.44
2842.88
2540.09
2213.07
1861.82
705.829
678.292
651.653
625.854
)


20
(
3383.75
3374.96
3348.59
3304.65
3243.13
3164.03
3067.35
2953.1
2821.26
2671.84
2504.84
2320.26
2118.1
1898.35
1661.01
1406.09
567.13
547.145
527.811
509.088
)


20
(
2103.56
2098.23
2082.24
2055.59
2018.29
1970.32
1911.69
1842.4
1762.46
1671.85
1570.58
1458.64
1336.05
1202.79
1058.87
904.288
395.54
383.421
371.697
360.343
)


20
(
765.648
763.861
758.498
749.559
737.045
720.956
701.292
678.053
651.238
620.849
586.885
549.346
508.233
463.546
415.284
363.449
192.858
188.794
184.863
181.055
)


20
(
2453.97
2452.18
2446.82
2437.88
2425.36
2409.26
2389.59
2366.33
2339.48
2309.04
2275.01
2237.39
2196.16
2151.33
2102.89
2050.84
1879.49
1875.41
1871.46
1867.64
)


20
(
3656.18
3650.8
3634.66
3607.76
3570.1
3521.67
3462.47
3392.51
3311.78
3220.27
3117.98
3004.91
2881.06
2746.42
2600.98
2444.74
1930.52
1918.27
1906.42
1894.94
)


20
(
4817.64
4808.76
4782.09
4737.66
4675.44
4595.45
4497.67
4382.12
4248.77
4097.64
3928.71
3741.99
3537.47
3315.14
3075
2817.05
1968.08
1947.85
1928.29
1909.34
)


20
(
5920.43
5908.18
5871.42
5810.15
5724.36
5614.07
5479.26
5319.93
5136.09
4927.72
4694.82
4437.39
4155.43
3848.93
3517.89
3162.3
1991.98
1964.11
1937.14
1911.02
)


20
(
6947.49
6932.06
6885.78
6808.64
6700.64
6561.79
6392.07
6191.5
5960.05
5697.73
5404.55
5080.48
4725.53
4339.7
3922.97
3475.36
2002.18
1967.08
1933.13
1900.26
)


20
(
7882.88
7864.52
7809.45
7717.66
7589.16
7423.94
7222
6983.33
6707.94
6395.82
6046.97
5661.38
5239.05
4779.97
4284.14
3751.56
1998.76
1957.01
1916.62
1877.5
)


20
(
8712.07
8691.08
8628.09
8523.1
8376.12
8187.14
7956.15
7683.17
7368.18
7011.18
6612.17
6171.14
5688.09
5163.01
4595.91
3986.77
1982.02
1934.26
1888.06
1843.32
)


20
(
9422.17
9398.87
9328.95
9212.42
9049.28
8839.52
8583.15
8280.15
7930.53
7534.29
7091.41
6601.91
6065.76
5482.97
4853.54
4177.45
1952.38
1899.37
1848.1
1798.44
)


20
(
10002.1
9976.87
9901.13
9774.9
9598.17
9370.94
9093.22
8764.99
8386.26
7957.03
7477.28
6947.02
6366.23
5734.93
5053.09
4320.73
1910.44
1853.02
1797.48
1743.68
)


20
(
10442.8
10416.1
10335.7
10201.7
10014.2
9773.11
9478.42
9130.15
8728.28
8272.83
7763.77
7201.12
6584.87
5915
5191.53
4414.44
1856.95
1796.03
1737.09
1680.02
)


20
(
10737.5
10709.6
10625.8
10486.3
10290.9
10039.8
9732.75
9369.92
8951.26
8476.77
7946.44
7360.28
6718.27
6020.42
5266.72
4457.16
1792.83
1729.36
1667.97
1608.5
)


20
(
10881.4
10852.8
10767.1
10624.1
10424
10166.7
9852.24
9480.58
9051.73
8565.69
8022.46
7422.03
6764.4
6049.57
5277.53
4448.28
1719.13
1654.12
1591.23
1530.32
)


20
(
10872.5
10843.6
10757.2
10613.1
10411.4
10152
9835.06
9460.43
9028.15
8538.23
7990.67
7385.45
6722.57
6002.03
5223.84
4387.97
1637.06
1571.53
1508.14
1446.75
)


20
(
10710.8
10682.2
10596.4
10453.5
10253.3
9996.02
9681.51
9309.83
8880.95
8394.88
7851.61
7251.15
6593.48
5878.61
5106.53
4277.24
1547.96
1482.95
1420.05
1359.14
)


20
(
10399
10371.1
10287.3
10147.8
9952.37
9701.15
9394.1
9031.22
8612.5
8137.95
7607.56
7021.32
6379.24
5681.31
4927.53
4117.89
1453.3
1389.82
1328.42
1268.95
)


20
(
9942.04
9915.24
9834.86
9700.88
9513.32
9272.16
8977.4
8629.05
8227.1
7771.55
7262.4
6699.64
6083.27
5413.29
4689.7
3912.48
1354.61
1293.68
1234.73
1177.65
)


20
(
9347.1
9321.84
9246.08
9119.8
8943.02
8715.72
8437.92
8109.59
7730.75
7301.39
6821.51
6291.11
5710.18
5078.72
4396.72
3664.2
1253.39
1195.96
1140.4
1086.6
)


20
(
8623.14
8599.82
8529.88
8413.3
8250.09
8040.24
7783.76
7480.64
7130.89
6734.49
6291.46
5801.77
5265.45
4682.47
4052.84
3376.55
1150.84
1097.82
1046.53
996.861
)


20
(
7780.5
7759.49
7696.46
7591.42
7444.35
7255.27
7024.17
6751.04
6435.89
6078.72
5679.51
5238.28
4755.02
4229.72
3662.39
3053.02
1047.53
999.758
953.541
908.784
)


20
(
6830.26
6811.89
6756.78
6664.92
6536.33
6370.99
6168.91
5930.08
5654.5
5342.18
4993.11
4607.29
4184.71
3725.38
3229.29
2696.44
942.791
901.017
860.605
821.468
)


20
(
5782.89
5767.45
5721.12
5643.91
5535.81
5396.83
5226.95
5026.19
4794.55
4532.01
4238.57
3914.25
3559.03
3172.91
2755.89
2307.98
833.848
798.733
764.762
731.863
)


20
(
4647.07
4634.8
4597.99
4536.63
4450.74
4340.3
4205.32
4045.79
3861.72
3653.1
3419.94
3162.22
2879.96
2573.14
2241.77
1885.85
714.485
686.582
659.588
633.446
)


20
(
3427.99
3419.08
3392.37
3347.84
3285.5
3205.35
3107.39
2991.61
2858.02
2706.62
2537.4
2350.36
2145.51
1922.84
1682.34
1424.03
573.913
553.662
534.071
515.098
)


20
(
2130.66
2125.26
2109.06
2082.05
2044.25
1995.64
1936.24
1866.03
1785.02
1693.2
1590.59