/*--------------------------------*- C++ -*----------------------------------*\
| =========                 |                                                 |
| \\      /  F ield         | OpenFOAM: The Open Source CFD Toolbox           |
|  \\    /   O peration     | Version:  2212                                  |
|   \\  /    A nd           | Website:  www.openfoam.com                      |
|    \\/     M anipulation  |                                                 |
\*---------------------------------------------------------------------------*/
FoamFile
{
    version     2.0;
    format      ascii;
    arch        "LSB;label=32;scalar=64";
    class       surfaceScalarField;
    location    "28/fluidRegion";
    object      alphaRhoPhi;
}
// * * * * * * * * * * * * * * * * * * * * * * * * * * * * * * * * * * * * * //

dimensions      [1 0 -1 0 0 0 0];

oriented        oriented;

internalField   nonuniform List<scalar> 
661
(
-0.00584862
-4.74902e-13
-0.00584862
-4.9595e-13
-0.00584862
-2.47379e-13
-0.00584862
7.48327e-14
-0.00584862
3.66066e-13
-0.00584862
5.66918e-13
-0.00584862
6.36717e-13
-0.00584862
5.73409e-13
-0.00584862
3.91226e-13
-0.00584862
1.41832e-13
-0.00584862
-1.29672e-13
-0.00584862
-3.53549e-13
-0.00584862
-4.96408e-13
-0.00584862
-5.30056e-13
-0.00584862
-4.57004e-13
-0.00584862
-3.05929e-13
-0.00584862
-1.04542e-13
-0.00584862
9.08802e-14
-0.00584862
2.52517e-13
-0.00584862
3.50028e-13
-0.00584862
3.75537e-13
-0.00584862
3.48765e-13
-0.00584862
2.72565e-13
-0.00584862
5.92844e-14
-3.59494e-13
-0.00584862
-0.00584862
-0.00584862
-0.00584862
-0.00584862
-0.00584862
-0.00584862
-0.00584862
-0.00584862
-0.00584862
-0.00584862
-0.00584862
-0.00584862
-0.00584862
-0.00584862
-0.00584862
-0.00584862
-0.00584862
-0.00584862
-0.00584862
-0.00584862
-0.00584862
-0.00584862
-0.00584862
-0.00932327
6.2035e-07
-0.00932352
3.28735e-07
-0.00932381
3.70744e-07
-0.00932407
3.43281e-07
-0.00932432
3.21784e-07
-0.00932455
3.02352e-07
-0.00932477
2.84589e-07
-0.00932497
2.66281e-07
-0.00932516
2.43157e-07
-0.00932532
2.071e-07
-0.00932544
1.4642e-07
-0.00932548
4.45568e-08
-0.00932539
-1.1158e-07
-0.00932511
-3.29404e-07
-0.0093246
-6.06275e-07
-0.00932379
-9.24466e-07
-0.00932266
-1.26107e-06
-0.00932121
-1.60409e-06
-0.00931941
-1.96777e-06
-0.00931718
-2.40132e-06
-0.00931438
-2.98861e-06
-0.00931077
-3.81046e-06
-0.00930611
-4.87206e-06
-0.00930065
-5.6772e-06
-6.79437e-06
-0.00924132
-2.43333e-08
-2.32367e-08
-0.00924084
-9.05962e-08
-9.14776e-08
-0.00924033
-8.68273e-08
-8.62721e-08
-0.00923986
-7.77269e-08
-7.62691e-08
-0.00923944
-7.00623e-08
-6.7969e-08
-0.00923904
-6.28811e-08
-6.07185e-08
-0.00923867
-5.59502e-08
-5.3842e-08
-0.00923834
-4.8835e-08
-4.69132e-08
-0.00923804
-4.01707e-08
-3.83905e-08
-0.0092378
-2.78086e-08
-2.62446e-08
-0.00923766
-7.77138e-09
-6.35917e-09
-0.00923767
2.38502e-08
2.50444e-08
-0.00923793
7.27047e-08
7.37562e-08
-0.00923854
1.43489e-07
1.44237e-07
-0.0092396
2.34683e-07
2.35105e-07
-0.00924118
3.41934e-07
3.41829e-07
-0.00924333
4.58627e-07
4.57886e-07
-0.00924606
5.81148e-07
5.79538e-07
-0.00924943
7.14946e-07
7.12272e-07
-0.00925355
8.76944e-07
8.72898e-07
-0.00925871
1.0953e-06
1.08975e-06
-0.00926528
1.39111e-06
1.38262e-06
-0.00927363
1.73827e-06
1.72314e-06
-0.009283
1.84605e-06
1.82227e-06
1.79201e-06
1.76937e-06
-0.00933673
3.23194e-07
-0.00933709
3.32197e-07
-0.00933744
3.27442e-07
-0.00933776
2.99621e-07
-0.00933805
2.75666e-07
-0.00933832
2.54037e-07
-0.00933857
2.33527e-07
-0.00933879
2.1179e-07
-0.00933898
1.83555e-07
-0.00933913
1.40126e-07
-0.0093392
6.81972e-08
-0.00933914
-4.80339e-08
-0.00933889
-2.23825e-07
-0.00933836
-4.6665e-07
-0.00933746
-7.72106e-07
-0.00933613
-1.12072e-06
-0.00933434
-1.48918e-06
-0.00933206
-1.86665e-06
-0.00932925
-2.27199e-06
-0.0093258
-2.7601e-06
-0.00932148
-3.41811e-06
-0.00931598
-4.32218e-06
-0.00930905
-5.39281e-06
-0.00930141
-5.991e-06
-6.18081e-06
-0.0092597
1.3503e-09
-0.00925941
-1.06381e-10
-0.00925912
7.60722e-11
-0.00925885
3.7424e-11
-0.00925861
6.11182e-11
-0.00925839
7.94484e-11
-0.00925819
6.66573e-11
-0.00925801
9.91009e-11
-0.00925785
1.14991e-10
-0.00925774
1.10157e-10
-0.00925768
1.446e-10
-0.00925773
2.14881e-10
-0.00925795
2.75271e-10
-0.00925839
3.44294e-10
-0.00925912
3.63638e-10
-0.00926018
3.38417e-10
-0.00926161
3.4278e-10
-0.00926342
4.92213e-10
-0.00926562
5.94243e-10
-0.00926832
7.47262e-10
-0.00927169
1.03322e-09
-0.00927597
7.27441e-10
-0.00928134
-2.83815e-10
-0.00928734
-2.29563e-09
-7.29488e-09
-0.00925971
-3.20331e-07
-0.00925942
-3.32444e-07
-0.00925913
-3.27185e-07
-0.00925886
-2.99447e-07
-0.00925862
-2.75475e-07
-0.0092584
-2.53844e-07
-0.0092582
-2.33349e-07
-0.00925802
-2.11554e-07
-0.00925786
-1.83288e-07
-0.00925775
-1.3984e-07
-0.00925769
-6.78323e-08
-0.00925774
4.85586e-08
-0.00925796
2.24457e-07
-0.0092584
4.67416e-07
-0.00925913
7.72912e-07
-0.00926019
1.12151e-06
-0.00926162
1.49001e-06
-0.00926343
1.86774e-06
-0.00926564
2.27326e-06
-0.00926833
2.76162e-06
-0.0092717
3.41999e-06
-0.00927598
4.32349e-06
-0.00928135
5.39171e-06
-0.00928735
5.98572e-06
6.1648e-06
-0.00933673
2.21936e-08
-0.00933709
9.03613e-08
-0.00933744
8.6912e-08
-0.00933776
7.81638e-08
-0.00933806
7.08371e-08
-0.00933833
6.35607e-08
-0.00933857
5.66799e-08
-0.00933879
4.93716e-08
-0.00933898
4.07074e-08
-0.00933913
2.8106e-08
-0.0093392
8.07445e-09
-0.00933914
-2.37459e-08
-0.00933889
-7.26278e-08
-0.00933836
-1.43617e-07
-0.00933746
-2.34912e-07
-0.00933613
-3.42513e-07
-0.00933433
-4.59396e-07
-0.00933205
-5.82253e-07
-0.00932924
-7.16319e-07
-0.00932579
-8.78824e-07
-0.00932147
-1.09734e-06
-0.00931596
-1.39369e-06
-0.00930903
-1.74135e-06
-0.00930139
-1.84902e-06
-1.78953e-06
-0.00924132
-6.21013e-07
-2.48807e-08
-0.00924084
-3.29321e-07
-9.11643e-08
-0.00924033
-3.70184e-07
-8.65741e-08
-0.00923987
-3.42165e-07
-7.66639e-08
-0.00923944
-3.20178e-07
-6.84906e-08
-0.00923904
-3.00905e-07
-6.12163e-08
-0.00923867
-2.83083e-07
-5.4342e-08
-0.00923834
-2.65055e-07
-4.73904e-08
-0.00923804
-2.41932e-07
-3.8875e-08
-0.0092378
-2.06192e-07
-2.6677e-08
-0.00923766
-1.45489e-07
-6.8113e-09
-0.00923767
-4.38864e-08
2.45437e-08
-0.00923793
1.12211e-07
7.32523e-08
-0.00923854
3.2971e-07
1.43758e-07
-0.0092396
6.06388e-07
2.34701e-07
-0.00924118
9.23978e-07
3.4165e-07
-0.00924333
1.26015e-06
4.57951e-07
-0.00924606
1.60236e-06
5.79902e-07
-0.00924943
1.9652e-06
7.13182e-07
-0.00925355
2.39722e-06
8.74769e-07
-0.00925871
2.98274e-06
1.09313e-06
-0.00926528
3.80112e-06
1.38903e-06
-0.00927363
4.85686e-06
1.73512e-06
-0.009283
5.65347e-06
1.84194e-06
6.76558e-06
1.799e-06
-0.00932327
-0.00932352
-0.00932381
-0.00932407
-0.00932432
-0.00932455
-0.00932477
-0.00932497
-0.00932516
-0.00932532
-0.00932544
-0.00932548
-0.00932539
-0.00932511
-0.0093246
-0.00932379
-0.00932266
-0.00932121
-0.00931941
-0.00931718
-0.00931438
-0.00931077
-0.0093061
-0.00930065
-0.0092597
-3.23294e-07
1.36992e-09
-0.00925941
-3.32184e-07
-2.36029e-10
-0.00925912
-3.27317e-07
7.76576e-11
-0.00925885
-2.99503e-07
3.85752e-11
-0.00925861
-2.75462e-07
3.78927e-11
-0.00925839
-2.53907e-07
1.16488e-11
-0.00925819
-2.33366e-07
5.39125e-11
-0.00925801
-2.11697e-07
5.19762e-11
-0.00925785
-1.83426e-07
8.82762e-11
-0.00925774
-1.40112e-07
1.40203e-10
-0.00925768
-6.81107e-08
1.59026e-10
-0.00925773
4.80534e-08
2.01003e-10
-0.00925795
2.23911e-07
2.2326e-10
-0.00925839
4.66694e-07
2.10565e-10
-0.00925912
7.72119e-07
2.79435e-10
-0.00926018
1.12054e-06
3.26867e-10
-0.00926161
1.48897e-06
3.58183e-10
-0.00926342
1.8665e-06
1.99502e-10
-0.00926562
2.27209e-06
4.24231e-11
-0.00926832
2.76068e-06
-3.74011e-10
-0.00927169
3.42021e-06
-1.44993e-09
-0.00927597
4.32638e-06
-3.22569e-09
-0.00928134
5.40179e-06
-7.07815e-09
-0.00928734
6.00739e-06
-1.42901e-08
6.20403e-06
-2.45892e-08
-0.00933673
-0.00933709
-0.00933744
-0.00933776
-0.00933805
-0.00933832
-0.00933857
-0.00933879
-0.00933898
-0.00933913
-0.0093392
-0.00933914
-0.00933889
-0.00933836
-0.00933746
-0.00933613
-0.00933434
-0.00933206
-0.00932925
-0.0093258
-0.00932148
-0.00931598
-0.00930905
-0.00930141
-0.00933673
3.19507e-07
-0.00933709
3.31676e-07
-0.00933744
3.27773e-07
-0.00933776
3.00779e-07
-0.00933806
2.77521e-07
-0.00933833
2.55706e-07
-0.00933857
2.35289e-07
-0.00933879
2.13124e-07
-0.00933898
1.84866e-07
-0.00933913
1.40973e-07
-0.0093392
6.89844e-08
-0.00933914
-4.77259e-08
-0.00933889
-2.23623e-07
-0.00933836
-4.67016e-07
-0.00933746
-7.72712e-07
-0.00933613
-1.12209e-06
-0.00933433
-1.49105e-06
-0.00933205
-1.86965e-06
-0.00932924
-2.27596e-06
-0.00932579
-2.76575e-06
-0.00932147
-3.42534e-06
-0.00931596
-4.33245e-06
-0.00930903
-5.40768e-06
-0.00930139
-6.01134e-06
-6.18597e-06
-0.00925971
-0.00925942
-0.00925913
-0.00925886
-0.00925862
-0.0092584
-0.0092582
-0.00925802
-0.00925786
-0.00925775
-0.00925769
-0.00925774
-0.00925796
-0.0092584
-0.00925913
-0.00926019
-0.00926162
-0.00926343
-0.00926563
-0.00926833
-0.0092717
-0.00927597
-0.00928135
-0.00928736
)
;

boundaryField
{
    outletCentralUnloaded
    {
        type            calculated;
        value           nonuniform List<scalar> 2(0.00584862 0.00584862);
    }
    inletCentralUnloaded
    {
        type            calculated;
        value           nonuniform List<scalar> 2(-0.00587369 -0.00587369);
    }
    outletFuelElement
    {
        type            calculated;
        value           nonuniform List<scalar> 
12
(
0.00932273
0.00924196
0.00933645
0.00925998
0.00926
0.00933646
0.00924196
0.00932273
0.00925998
0.00933645
0.00933646
0.00926
)
;
    }
    inletFuelElement
    {
        type            calculated;
        value           nonuniform List<scalar> 
12
(
-0.00947206
-0.00947207
-0.00947206
-0.00947206
-0.00947207
-0.00947206
-0.00947207
-0.00947206
-0.00947206
-0.00947206
-0.00947206
-0.00947207
)
;
    }
    defaultFaces
    {
        type            calculated;
        value           nonuniform List<scalar> 
450
(
1.01008e-23
-2.0944e-23
0
9.97868e-24
-1.08181e-23
0
1.56813e-23
-1.35435e-25
0
-2.1301e-23
-3.97931e-24
0
-9.14106e-24
-1.95327e-23
0
-1.30698e-23
-9.81882e-24
0
-2.53764e-23
-7.57597e-24
0
-1.50073e-23
-1.12376e-24
0
-9.73662e-24
2.69077e-26
0
-1.42834e-23
-7.72632e-24
0
-7.81278e-24
-2.85612e-24
0
-3.25359e-24
-1.94376e-24
0
6.01563e-24
3.66341e-24
0
2.53386e-23
-4.53622e-25
0
4.92982e-23
1.70189e-23
0
6.54662e-23
1.49066e-23
0
5.84606e-23
-1.00837e-23
0
1.44212e-22
9.59038e-23
0
8.43381e-23
-1.06632e-22
0
-7.23559e-23
-8.43295e-23
0
-7.91541e-23
-1.11959e-22
0
1.29694e-22
-1.58471e-22
0
-1.1535e-22
3.95629e-23
0
-2.24506e-22
-2.52465e-22
0
-2.84214e-22
-2.70048e-22
0
1.34109e-23
0
7.78868e-24
0
3.98452e-24
0
8.2081e-24
0
-4.25577e-24
0
8.88737e-24
0
7.00986e-24
0
7.42761e-24
0
-1.32224e-24
0
4.27347e-24
0
3.09814e-24
0
-1.7019e-24
0
-3.78204e-24
0
-1.27646e-23
0
-2.91165e-23
0
-3.37107e-23
0
7.93613e-23
0
-9.51419e-23
0
3.88066e-23
0
-4.85912e-23
0
-2.18447e-22
0
2.46927e-22
0
5.54382e-23
0
-2.24002e-22
0
-1.90421e-22
0
-7.55583e-24
0
3.92747e-24
-4.04478e-24
4.1938e-24
-4.37849e-24
-4.6042e-24
4.87813e-24
5.20991e-24
0
-1.52575e-24
1.67628e-24
7.4507e-24
8.38346e-24
1.9128e-23
0
-2.60933e-23
0
-7.66805e-23
4.80608e-23
6.18173e-23
-1.63327e-22
-1.10244e-22
0
0
0
0
0
0
0
0
0
0
0
0
0
0
0
0
0
0
0
0
0
0
0
0
0
0
0
-6.70542e-24
1.1495e-23
-3.89434e-24
7.78867e-24
1.59381e-23
1.59381e-23
-8.2081e-24
-4.10405e-24
8.51154e-24
-6.38366e-24
-6.66552e-24
-8.88737e-24
-4.67323e-24
-7.00985e-24
-7.4276e-24
-4.95174e-24
1.32224e-23
-2.64448e-24
-4.27347e-24
-4.27347e-24
-1.93634e-24
-7.74534e-25
8.50949e-25
1.91463e-24
1.13461e-23
5.67305e-24
2.12743e-23
1.70195e-23
1.9411e-23
2.42637e-23
3.37107e-23
3.37107e-23
-3.96806e-23
6.61343e-23
6.34278e-23
4.75709e-23
-1.1642e-22
9.70163e-23
-9.71823e-23
-7.28867e-23
0
-9.362e-23
-1.64618e-22
2.05772e-22
-5.54382e-23
-1.10876e-22
7.46672e-23
-1.86668e-22
-2.85631e-22
-2.38026e-22
-1.22382e-24
0
7.64447e-24
1.13986e-24
0
0
1.34619e-23
0
-2.38473e-23
-2.90251e-23
0
8.18746e-24
1.18325e-23
0
0
-2.99848e-23
0
8.8648e-24
-2.5572e-23
0
9.32264e-24
-2.09805e-23
0
4.93907e-24
-1.27135e-23
0
-5.27539e-24
-2.04014e-23
0
5.68333e-24
-9.40079e-24
0
3.09019e-24
-4.26308e-24
0
0
8.91803e-24
-0
-1.88622e-24
3.30353e-23
-0
0
6.04973e-23
-0
-9.68177e-24
9.67359e-23
-0
-2.24206e-23
9.32589e-23
-0
0
1.78808e-22
-0
0
7.44653e-23
-0
-3.87301e-23
-7.72728e-23
-0
0
-1.2603e-23
-0
6.23172e-23
1.76947e-22
-0
8.22057e-23
-2.29845e-22
-0
0
-4.7242e-23
-0
7.46285e-23
-2.24887e-22
-0
0
0
-7.67825e-24
0
-4.04478e-24
4.19381e-24
-4.37849e-24
-4.6042e-24
-4.87813e-24
0
-2.80621e-24
0
-8.38142e-25
3.72535e-24
-8.38346e-24
9.56402e-24
0
-7.82799e-23
3.13046e-23
-1.15021e-22
-4.80608e-23
6.18173e-23
-1.63327e-22
-2.20488e-22
0
9.51215e-23
1.34109e-23
0
3.89434e-24
0
3.98452e-24
0
8.2081e-24
0
-6.38366e-24
0
1.11092e-23
0
9.34648e-24
0
9.90348e-24
0
-1.32224e-24
0
4.27347e-24
0
2.90451e-24
0
-1.7019e-24
-0
-1.13461e-23
-0
-8.50975e-24
-0
-2.91165e-23
-0
-3.37107e-23
-0
6.61344e-23
-0
-9.51419e-23
-0
1.1642e-22
-0
-9.71825e-23
-0
-1.56034e-22
-0
2.46927e-22
-0
0
-0
-2.24002e-22
-0
-2.85631e-22
-0
-9.57918e-24
7.66334e-24
-1.1683e-23
1.1683e-23
-3.98451e-24
1.19535e-23
-8.2081e-24
-2.46243e-23
0
8.51154e-24
-4.44368e-24
-1.99966e-23
-4.67323e-24
-1.63563e-23
-2.47587e-24
-1.48552e-23
0
-1.05779e-23
-2.84898e-24
-8.54693e-24
-1.93634e-24
-3.87267e-24
8.50949e-25
5.53117e-24
3.78203e-24
2.08012e-23
1.70195e-23
3.4039e-23
1.9411e-23
5.8233e-23
3.37107e-23
8.98951e-23
0
5.29074e-23
3.17139e-23
1.42713e-22
0
9.70163e-23
0
-1.21478e-22
-3.12067e-23
-6.24133e-23
8.23089e-23
2.88081e-22
1.10876e-22
-2.21753e-22
7.46672e-23
-1.86668e-22
0
-1.90421e-22
-0
-0
-0
-0
-0
-0
-0
-0
-0
-0
-0
0
0
0
0
0
0
0
0
0
0
0
0
0
0
)
;
    }
    baffle_master
    {
        type            calculated;
        value           nonuniform List<scalar> 
150
(
6.99194e-30
0
7.76443e-30
5.41784e-30
0
7.76507e-30
1.06382e-30
0
-3.88286e-30
-6.03328e-31
0
9.70794e-31
2.00678e-29
0
1.5534e-29
4.74209e-30
0
7.76764e-30
-4.68066e-30
0
0
7.27062e-31
0
-7.76892e-30
-5.77465e-30
0
1.55391e-29
-1.68719e-30
0
0
9.3565e-31
0
-1.94271e-30
2.09356e-30
0
0
2.32635e-30
0
7.77213e-30
-2.42929e-30
0
7.77277e-30
-1.18023e-30
0
0
-7.01741e-31
0
3.88702e-30
1.15221e-29
0
1.94367e-30
7.77595e-31
0
0
-1.52373e-29
0
-7.77597e-30
3.192e-31
0
-7.77661e-30
4.47184e-31
0
0
1.76547e-29
0
7.7779e-30
-3.7832e-30
0
0
5.0318e-31
0
-9.72397e-31
-4.47759e-30
0
7.7798e-30
7.76443e-30
-1.39593e-29
0
7.76507e-30
-1.65658e-29
0
3.88286e-30
-1.00757e-29
0
9.70794e-31
2.10615e-30
-0
0
-1.74157e-30
-0
-7.76764e-30
2.16977e-29
-0
0
2.61149e-29
-0
-7.76892e-30
2.18613e-29
-0
7.76956e-30
1.58327e-29
-0
-3.8851e-30
5.94196e-30
-0
3.88542e-30
-4.86989e-30
0
7.77148e-30
-1.41034e-29
0
7.77213e-30
-2.65293e-29
0
7.77277e-30
-2.20041e-29
0
1.55468e-29
-1.0563e-29
0
0
-1.24099e-29
0
-1.94367e-30
-2.6209e-30
0
0
5.47273e-30
-0
3.88799e-30
1.5091e-31
-0
0
-7.04765e-30
-0
0
-3.58742e-30
-0
1.55558e-29
-3.01732e-29
-0
1.16678e-29
1.23582e-29
-0
-9.72397e-31
-1.25225e-30
-0
-7.7798e-30
6.74176e-30
0
)
;
    }
    baffle_slave
    {
        type            calculated;
        value           nonuniform List<scalar> 
150
(
-2.17679e-24
-0
-3.77791e-24
1.3451e-24
-0
0
1.62062e-24
-0
3.92747e-24
0
-0
0
-1.56713e-23
-0
-8.38761e-24
2.04511e-24
-0
-4.37849e-24
1.29027e-24
-0
-4.6042e-24
-8.35385e-25
-0
4.87813e-24
7.29962e-25
-0
0
2.44639e-24
-0
0
-1.14008e-24
-0
0
-3.13135e-25
0
0
5.79926e-26
0
3.72535e-24
1.10933e-24
0
0
1.99148e-24
0
-9.56402e-24
-3.19887e-24
0
-2.21552e-23
-8.15174e-23
0
-7.82799e-23
1.05433e-23
0
0
-7.30146e-23
0
-1.15021e-22
-1.68499e-24
0
0
1.20445e-24
0
-6.18173e-23
1.73827e-22
0
1.63327e-22
-4.30016e-24
0
1.10244e-22
-3.2535e-23
0
7.44264e-23
3.71483e-23
0
0
9.43701e-25
2.40035e-23
0
5.07071e-24
8.07062e-24
0
3.10951e-24
1.08857e-23
0
-5.87557e-24
1.46742e-23
0
-9.80838e-25
-1.60631e-23
0
-7.87593e-24
8.9303e-24
0
-4.16973e-24
8.53014e-24
0
-4.39281e-24
6.83497e-24
0
6.71277e-24
9.4084e-24
0
-1.29882e-24
6.98967e-24
0
-1.91096e-24
7.12547e-24
0
1.56383e-24
2.45289e-24
0
-2.4155e-24
-1.76877e-24
0
7.15474e-24
-8.5932e-24
0
9.37908e-24
-1.43312e-23
0
-1.16509e-23
-2.26804e-23
0
-4.45787e-23
-3.58575e-23
0
2.67127e-23
-3.40066e-23
0
-5.37755e-23
-2.68765e-24
0
2.80343e-23
4.11886e-23
0
-6.2784e-23
2.67388e-23
0
-1.76719e-22
1.72872e-22
0
-2.57742e-22
-4.68718e-23
0
-4.09918e-23
1.44955e-22
0
2.62511e-23
1.34105e-22
0
)
;
    }
}


// ************************************************************************* //
