/*--------------------------------*- C++ -*----------------------------------*\
| =========                 |                                                 |
| \\      /  F ield         | OpenFOAM: The Open Source CFD Toolbox           |
|  \\    /   O peration     | Version:  2212                                  |
|   \\  /    A nd           | Website:  www.openfoam.com                      |
|    \\/     M anipulation  |                                                 |
\*---------------------------------------------------------------------------*/
FoamFile
{
    version     2.0;
    format      ascii;
    arch        "LSB;label=32;scalar=64";
    class       volScalarField;
    location    "28/fluidRegion";
    object      heatFlux.structure;
}
// * * * * * * * * * * * * * * * * * * * * * * * * * * * * * * * * * * * * * //

dimensions      [1 0 -3 0 0 0 0];

internalField   nonuniform List<scalar> 
350
(
-258273
-258276
-258279
-258282
-258285
-258288
-258290
-258293
-258296
-258299
-258302
-258305
-258308
-258311
-258313
-258316
-258319
-258322
-258325
-258328
-258331
-258333
-258336
-258339
-258788
-258273
-258276
-258279
-258282
-258285
-258288
-258290
-258293
-258296
-258299
-258302
-258305
-258308
-258311
-258313
-258316
-258319
-258322
-258325
-258328
-258331
-258333
-258336
-258339
-258788
272799
1.14354e+06
1.99465e+06
2.81273e+06
3.58486e+06
4.29889e+06
4.94358e+06
5.50877e+06
5.98557e+06
6.3665e+06
6.64558e+06
6.81843e+06
6.88238e+06
6.83642e+06
6.68129e+06
6.41943e+06
6.05493e+06
5.5935e+06
5.04242e+06
4.41058e+06
3.70827e+06
2.94757e+06
2.14231e+06
1.30786e+06
457929
274189
1.15491e+06
2.01579e+06
2.84326e+06
3.62428e+06
4.34654e+06
4.99866e+06
5.57038e+06
6.05271e+06
6.43807e+06
6.72042e+06
6.89533e+06
6.96008e+06
6.91369e+06
6.75687e+06
6.49211e+06
6.12354e+06
5.65694e+06
5.09964e+06
4.46064e+06
3.75033e+06
2.98094e+06
2.16645e+06
1.32245e+06
462819
272581
1.14173e+06
1.99129e+06
2.80786e+06
3.57858e+06
4.2913e+06
4.9348e+06
5.49894e+06
5.97487e+06
6.35509e+06
6.63365e+06
6.80618e+06
6.86999e+06
6.8241e+06
6.66924e+06
6.40784e+06
6.04399e+06
5.58339e+06
5.0333e+06
4.4026e+06
3.70156e+06
2.94225e+06
2.13846e+06
1.30553e+06
457150
273851
1.15227e+06
2.01091e+06
2.83622e+06
3.6152e+06
4.33556e+06
4.98597e+06
5.55619e+06
6.03725e+06
6.42159e+06
6.70319e+06
6.87763e+06
6.9422e+06
6.8959e+06
6.73948e+06
6.47538e+06
6.10775e+06
5.64234e+06
5.08647e+06
4.44912e+06
3.74065e+06
2.97326e+06
2.1609e+06
1.3191e+06
461693
273850
1.15227e+06
2.01091e+06
2.83622e+06
3.6152e+06
4.33556e+06
4.98597e+06
5.55619e+06
6.03725e+06
6.42159e+06
6.70319e+06
6.87763e+06
6.9422e+06
6.8959e+06
6.73948e+06
6.47538e+06
6.10775e+06
5.64234e+06
5.08647e+06
4.44912e+06
3.74065e+06
2.97326e+06
2.1609e+06
1.3191e+06
461693
272581
1.14173e+06
1.99129e+06
2.80786e+06
3.57858e+06
4.2913e+06
4.9348e+06
5.49894e+06
5.97487e+06
6.35509e+06
6.63364e+06
6.80617e+06
6.86999e+06
6.8241e+06
6.66924e+06
6.40784e+06
6.04399e+06
5.58339e+06
5.0333e+06
4.4026e+06
3.70156e+06
2.94225e+06
2.13846e+06
1.30553e+06
457150
274189
1.15491e+06
2.01579e+06
2.84327e+06
3.62428e+06
4.34654e+06
4.99866e+06
5.57038e+06
6.05271e+06
6.43807e+06
6.72042e+06
6.89533e+06
6.96008e+06
6.91368e+06
6.75687e+06
6.49211e+06
6.12354e+06
5.65694e+06
5.09964e+06
4.46064e+06
3.75033e+06
2.98094e+06
2.16645e+06
1.32245e+06
462819
272799
1.14354e+06
1.99465e+06
2.81273e+06
3.58486e+06
4.29889e+06
4.94358e+06
5.50877e+06
5.98557e+06
6.3665e+06
6.64558e+06
6.81843e+06
6.88237e+06
6.83642e+06
6.68129e+06
6.41943e+06
6.05493e+06
5.5935e+06
5.04242e+06
4.41058e+06
3.70827e+06
2.94757e+06
2.14232e+06
1.30786e+06
457929
273851
1.15227e+06
2.01091e+06
2.83622e+06
3.6152e+06
4.33556e+06
4.98597e+06
5.55619e+06
6.03725e+06
6.42159e+06
6.70319e+06
6.87763e+06
6.9422e+06
6.8959e+06
6.73948e+06
6.47538e+06
6.10775e+06
5.64234e+06
5.08647e+06
4.44912e+06
3.74065e+06
2.97326e+06
2.1609e+06
1.3191e+06
461693
272582
1.14173e+06
1.99129e+06
2.80786e+06
3.57858e+06
4.2913e+06
4.9348e+06
5.49894e+06
5.97487e+06
6.35509e+06
6.63365e+06
6.80617e+06
6.86999e+06
6.8241e+06
6.66924e+06
6.40784e+06
6.04399e+06
5.58339e+06
5.0333e+06
4.4026e+06
3.70156e+06
2.94225e+06
2.13846e+06
1.30553e+06
457150
272581
1.14173e+06
1.99129e+06
2.80786e+06
3.57858e+06
4.2913e+06
4.9348e+06
5.49894e+06
5.97487e+06
6.35509e+06
6.63364e+06
6.80617e+06
6.86999e+06
6.8241e+06
6.66924e+06
6.40784e+06
6.04399e+06
5.58339e+06
5.0333e+06
4.4026e+06
3.70156e+06
2.94225e+06
2.13846e+06
1.30553e+06
457150
273850
1.15227e+06
2.01091e+06
2.83622e+06
3.6152e+06
4.33556e+06
4.98597e+06
5.55619e+06
6.03725e+06
6.42159e+06
6.70319e+06
6.87763e+06
6.9422e+06
6.8959e+06
6.73948e+06
6.47538e+06
6.10775e+06
5.64234e+06
5.08647e+06
4.44912e+06
3.74065e+06
2.97326e+06
2.1609e+06
1.3191e+06
461693
)
;

boundaryField
{
    outletCentralUnloaded
    {
        type            zeroGradient;
    }
    inletCentralUnloaded
    {
        type            zeroGradient;
    }
    outletFuelElement
    {
        type            zeroGradient;
    }
    inletFuelElement
    {
        type            zeroGradient;
    }
    defaultFaces
    {
        type            zeroGradient;
    }
    baffle_master
    {
        type            zeroGradient;
    }
    baffle_slave
    {
        type            zeroGradient;
    }
}


// ************************************************************************* //
