/*--------------------------------*- C++ -*----------------------------------*\
| =========                 |                                                 |
| \\      /  F ield         | OpenFOAM: The Open Source CFD Toolbox           |
|  \\    /   O peration     | Version:  2212                                  |
|   \\  /    A nd           | Website:  www.openfoam.com                      |
|    \\/     M anipulation  |                                                 |
\*---------------------------------------------------------------------------*/
FoamFile
{
    version     2.0;
    format      ascii;
    arch        "LSB;label=32;scalar=64";
    class       volScalarField;
    location    "28/fluidRegion";
    object      htc;
}
// * * * * * * * * * * * * * * * * * * * * * * * * * * * * * * * * * * * * * //

dimensions      [1 0 -3 -1 0 0 0];

internalField   nonuniform List<scalar> 
350
(
3100.94
3100.95
3100.97
3100.99
3101.01
3101.02
3101.04
3101.06
3101.07
3101.09
3101.11
3101.12
3101.14
3101.16
3101.17
3101.19
3101.21
3101.22
3101.24
3101.26
3101.27
3101.29
3101.31
3101.32
3106.7
3100.94
3100.95
3100.97
3100.99
3101.01
3101.02
3101.04
3101.06
3101.07
3101.09
3101.11
3101.12
3101.14
3101.16
3101.17
3101.19
3101.21
3101.22
3101.24
3101.26
3101.27
3101.29
3101.31
3101.32
3106.7
26460.7
26396.3
26233.8
25947.4
25538.5
25009.3
24362.9
23603.4
22736.1
21768.3
20709.7
19572.8
18372.2
17124
15843.6
14544
13235.1
11924.7
10622.8
9345.97
8122.58
6998.56
6042.52
5342.51
4908.95
26545.3
26480.8
26319
26032.7
25623.4
25093.3
24445.4
23683.5
22812.9
21840.7
20776.5
19632.8
18424.4
17167.9
15879.6
14572.8
13257.8
11942.4
10636.1
9354.97
8127.17
6998.88
6039.53
5338.47
4907.1
26447.2
26382.5
26220
25933.5
25524.7
24995.8
24349.7
23590.5
22723.8
21756.7
20699.1
19563.2
18363.9
17117
15837.8
14539.3
13231.2
11921.5
10620.3
9344.04
8121.24
6997.77
6042.12
5342.26
4908.81
26526.6
26462.1
26300.1
26013.7
25604.5
25074.5
24426.9
23665.5
22795.6
21824.4
20761.4
19619.2
18412.6
17158
15871.4
14566.3
13252.7
11938.5
10633.2
9353
8126.21
6998.9
6040.32
5339.51
4907.59
26526.6
26462.1
26300.1
26013.7
25604.5
25074.5
24426.9
23665.5
22795.6
21824.4
20761.4
19619.2
18412.6
17158
15871.4
14566.3
13252.7
11938.5
10633.2
9353
8126.21
6998.9
6040.32
5339.51
4907.59
26447.2
26382.5
26220
25933.5
25524.7
24995.8
24349.7
23590.6
22723.8
21756.7
20699.1
19563.2
18363.9
17117
15837.8
14539.3
13231.2
11921.5
10620.3
9344.04
8121.24
6997.76
6042.11
5342.25
4908.8
26545.3
26480.8
26319
26032.7
25623.4
25093.3
24445.4
23683.5
22812.9
21840.7
20776.5
19632.8
18424.4
17167.9
15879.6
14572.8
13257.8
11942.4
10636.1
9354.97
8127.17
6998.88
6039.53
5338.47
4907.1
26460.7
26396.3
26233.8
25947.4
25538.5
25009.3
24362.9
23603.4
22736.1
21768.3
20709.7
19572.8
18372.2
17124
15843.6
14544
13235.1
11924.7
10622.8
9345.97
8122.58
6998.56
6042.52
5342.51
4908.95
26526.6
26462.1
26300.1
26013.7
25604.5
25074.5
24426.9
23665.5
22795.6
21824.4
20761.4
19619.2
18412.6
17158
15871.4
14566.3
13252.7
11938.5
10633.2
9353
8126.21
6998.9
6040.32
5339.51
4907.59
26447.2
26382.5
26220
25933.5
25524.7
24995.8
24349.7
23590.5
22723.8
21756.7
20699.1
19563.2
18363.9
17117
15837.8
14539.3
13231.2
11921.5
10620.3
9344.04
8121.24
6997.77
6042.12
5342.26
4908.81
26447.2
26382.5
26220
25933.5
25524.7
24995.8
24349.7
23590.6
22723.8
21756.7
20699.1
19563.2
18363.9
17117
15837.8
14539.3
13231.2
11921.5
10620.3
9344.04
8121.24
6997.76
6042.11
5342.25
4908.8
26526.6
26462.1
26300.1
26013.7
25604.5
25074.5
24426.9
23665.5
22795.6
21824.4
20761.4
19619.2
18412.6
17158
15871.4
14566.3
13252.7
11938.5
10633.2
9353
8126.21
6998.9
6040.32
5339.51
4907.59
)
;

boundaryField
{
    outletCentralUnloaded
    {
        type            zeroGradient;
    }
    inletCentralUnloaded
    {
        type            zeroGradient;
    }
    outletFuelElement
    {
        type            zeroGradient;
    }
    inletFuelElement
    {
        type            zeroGradient;
    }
    defaultFaces
    {
        type            zeroGradient;
    }
    baffle_master
    {
        type            zeroGradient;
    }
    baffle_slave
    {
        type            zeroGradient;
    }
}


// ************************************************************************* //
