/*--------------------------------*- C++ -*----------------------------------*\
| =========                 |                                                 |
| \\      /  F ield         | OpenFOAM: The Open Source CFD Toolbox           |
|  \\    /   O peration     | Version:  2212                                  |
|   \\  /    A nd           | Website:  www.openfoam.com                      |
|    \\/     M anipulation  |                                                 |
\*---------------------------------------------------------------------------*/
FoamFile
{
    version     2.0;
    format      ascii;
    arch        "LSB;label=32;scalar=64";
    class       volScalarField;
    location    "28/fluidRegion";
    object      k;
}
// * * * * * * * * * * * * * * * * * * * * * * * * * * * * * * * * * * * * * //

dimensions      [0 2 -2 0 0 0 0];

internalField   nonuniform List<scalar> 
350
(
0.420963
0.420893
0.420824
0.420755
0.420686
0.420617
0.420548
0.42048
0.420413
0.420347
0.420282
0.42022
0.420162
0.420109
0.420065
0.420035
0.420026
0.420048
0.420119
0.420263
0.420521
0.420951
0.421645
0.422742
0.424454
0.420963
0.420893
0.420824
0.420755
0.420686
0.420617
0.420548
0.42048
0.420413
0.420347
0.420282
0.42022
0.420162
0.420109
0.420065
0.420035
0.420026
0.420048
0.420119
0.420263
0.420521
0.420951
0.421645
0.422742
0.424454
376.602
356.75
333.863
308.334
280.905
252.32
223.3
194.524
166.617
140.131
115.541
93.2229
73.4538
56.394
42.0839
30.444
21.2871
14.3417
9.28316
5.76611
3.4528
2.03294
1.23846
0.852655
0.715501
381.799
361.725
338.579
312.74
284.962
256.001
226.587
197.41
169.103
142.231
117.272
94.6137
74.5382
57.2115
42.677
30.8561
21.5598
14.5121
9.38255
5.81933
3.47831
2.04347
1.24202
0.853638
0.715881
375.74
355.923
333.084
307.608
280.239
251.718
222.764
194.056
166.214
139.793
115.262
93.0002
73.2805
56.2636
41.9893
30.3783
21.2435
14.3143
9.26699
5.75724
3.44834
2.03091
1.23762
0.85233
0.715378
380.659
360.631
337.539
311.766
284.063
255.183
225.855
196.765
168.547
141.76
116.883
94.3003
74.2933
57.0264
42.5425
30.7625
21.4977
14.4733
9.35991
5.80721
3.47251
2.04109
1.24123
0.853433
0.715806
380.659
360.631
337.539
311.766
284.063
255.183
225.855
196.765
168.547
141.76
116.883
94.3003
74.2933
57.0264
42.5425
30.7625
21.4977
14.4733
9.35991
5.80721
3.47251
2.04109
1.24123
0.853433
0.715805
375.741
355.923
333.084
307.609
280.24
251.718
222.764
194.056
166.215
139.793
115.263
93.0003
73.2806
56.2637
41.9894
30.3783
21.2436
14.3144
9.267
5.75724
3.44834
2.03091
1.23762
0.85233
0.715378
381.799
361.725
338.579
312.74
284.962
256.001
226.587
197.41
169.103
142.231
117.272
94.6137
74.5382
57.2115
42.677
30.8561
21.5598
14.5121
9.38255
5.81934
3.47831
2.04347
1.24202
0.853638
0.715881
376.602
356.75
333.863
308.334
280.905
252.32
223.3
194.524
166.617
140.131
115.541
93.2229
73.4538
56.394
42.0839
30.444
21.2871
14.3417
9.28317
5.76611
3.4528
2.03294
1.23846
0.852655
0.7155
380.659
360.631
337.539
311.766
284.063
255.183
225.855
196.765
168.547
141.76
116.883
94.3003
74.2933
57.0264
42.5425
30.7625
21.4977
14.4733
9.35991
5.80721
3.47251
2.04109
1.24123
0.853433
0.715806
375.74
355.923
333.084
307.608
280.239
251.718
222.764
194.056
166.214
139.793
115.262
93.0002
73.2805
56.2636
41.9893
30.3783
21.2435
14.3143
9.26698
5.75722
3.44833
2.0309
1.23762
0.852327
0.715376
375.741
355.923
333.084
307.609
280.24
251.718
222.764
194.056
166.215
139.793
115.263
93.0003
73.2806
56.2637
41.9894
30.3783
21.2436
14.3144
9.26701
5.75724
3.44834
2.03091
1.23762
0.852329
0.715377
380.659
360.631
337.539
311.766
284.063
255.183
225.855
196.766
168.547
141.76
116.883
94.3003
74.2933
57.0264
42.5425
30.7625
21.4977
14.4733
9.35991
5.80721
3.47251
2.0411
1.24123
0.853433
0.715804
)
;

boundaryField
{
    outletCentralUnloaded
    {
        type            zeroGradient;
    }
    inletCentralUnloaded
    {
        type            zeroGradient;
    }
    outletFuelElement
    {
        type            zeroGradient;
    }
    inletFuelElement
    {
        type            zeroGradient;
    }
    defaultFaces
    {
        type            zeroGradient;
    }
    baffle_master
    {
        type            zeroGradient;
    }
    baffle_slave
    {
        type            zeroGradient;
    }
}


// ************************************************************************* //
