/*--------------------------------*- C++ -*----------------------------------*\
| =========                 |                                                 |
| \\      /  F ield         | OpenFOAM: The Open Source CFD Toolbox           |
|  \\    /   O peration     | Version:  2212                                  |
|   \\  /    A nd           | Website:  www.openfoam.com                      |
|    \\/     M anipulation  |                                                 |
\*---------------------------------------------------------------------------*/
FoamFile
{
    version     2.0;
    format      ascii;
    arch        "LSB;label=32;scalar=64";
    class       volTensorField;
    location    "28/fluidRegion";
    object      Kd;
}
// * * * * * * * * * * * * * * * * * * * * * * * * * * * * * * * * * * * * * //

dimensions      [1 -3 -1 0 0 0 0];

internalField   nonuniform List<tensor> 
350
(
(84.7308 0 0 0 84.7308 0 0 0 84.7308)
(84.7308 0 0 0 84.7308 0 0 0 84.7308)
(84.7308 0 0 0 84.7308 0 0 0 84.7308)
(84.7308 0 0 0 84.7308 0 0 0 84.7308)
(84.7308 0 0 0 84.7308 0 0 0 84.7308)
(84.7308 0 0 0 84.7308 0 0 0 84.7308)
(84.7308 0 0 0 84.7308 0 0 0 84.7308)
(84.7308 0 0 0 84.7308 0 0 0 84.7308)
(84.7308 0 0 0 84.7308 0 0 0 84.7308)
(84.7308 0 0 0 84.7308 0 0 0 84.7308)
(84.7308 0 0 0 84.7308 0 0 0 84.7308)
(84.7308 0 0 0 84.7308 0 0 0 84.7308)
(84.7308 0 0 0 84.7308 0 0 0 84.7308)
(84.7308 0 0 0 84.7308 0 0 0 84.7308)
(84.7308 0 0 0 84.7308 0 0 0 84.7308)
(84.7308 0 0 0 84.7308 0 0 0 84.7308)
(84.7308 0 0 0 84.7308 0 0 0 84.7308)
(84.7308 0 0 0 84.7308 0 0 0 84.7308)
(84.7308 0 0 0 84.7308 0 0 0 84.7308)
(84.7308 0 0 0 84.7308 0 0 0 84.7308)
(84.7308 0 0 0 84.7308 0 0 0 84.7308)
(84.7308 0 0 0 84.7308 0 0 0 84.7308)
(84.7309 0 0 0 84.7309 0 0 0 84.7309)
(84.7309 0 0 0 84.7309 0 0 0 84.7309)
(84.8682 0 0 0 84.8682 0 0 0 84.8682)
(84.7308 0 0 0 84.7308 0 0 0 84.7308)
(84.7308 0 0 0 84.7308 0 0 0 84.7308)
(84.7308 0 0 0 84.7308 0 0 0 84.7308)
(84.7308 0 0 0 84.7308 0 0 0 84.7308)
(84.7308 0 0 0 84.7308 0 0 0 84.7308)
(84.7308 0 0 0 84.7308 0 0 0 84.7308)
(84.7308 0 0 0 84.7308 0 0 0 84.7308)
(84.7308 0 0 0 84.7308 0 0 0 84.7308)
(84.7308 0 0 0 84.7308 0 0 0 84.7308)
(84.7308 0 0 0 84.7308 0 0 0 84.7308)
(84.7308 0 0 0 84.7308 0 0 0 84.7308)
(84.7308 0 0 0 84.7308 0 0 0 84.7308)
(84.7308 0 0 0 84.7308 0 0 0 84.7308)
(84.7308 0 0 0 84.7308 0 0 0 84.7308)
(84.7308 0 0 0 84.7308 0 0 0 84.7308)
(84.7308 0 0 0 84.7308 0 0 0 84.7308)
(84.7308 0 0 0 84.7308 0 0 0 84.7308)
(84.7308 0 0 0 84.7308 0 0 0 84.7308)
(84.7308 0 0 0 84.7308 0 0 0 84.7308)
(84.7308 0 0 0 84.7308 0 0 0 84.7308)
(84.7308 0 0 0 84.7308 0 0 0 84.7308)
(84.7308 0 0 0 84.7308 0 0 0 84.7308)
(84.7309 0 0 0 84.7309 0 0 0 84.7309)
(84.7309 0 0 0 84.7309 0 0 0 84.7309)
(84.8682 0 0 0 84.8682 0 0 0 84.8682)
(678.783 0 0 0 678.783 0 0 0 678.783)
(678.16 0 0 0 678.16 0 0 0 678.16)
(678.175 0 0 0 678.175 0 0 0 678.175)
(678.181 0 0 0 678.181 0 0 0 678.181)
(678.174 0 0 0 678.174 0 0 0 678.174)
(678.155 0 0 0 678.155 0 0 0 678.155)
(678.122 0 0 0 678.122 0 0 0 678.122)
(678.073 0 0 0 678.073 0 0 0 678.073)
(678.006 0 0 0 678.006 0 0 0 678.006)
(677.92 0 0 0 677.92 0 0 0 677.92)
(677.814 0 0 0 677.814 0 0 0 677.814)
(677.688 0 0 0 677.688 0 0 0 677.688)
(677.541 0 0 0 677.541 0 0 0 677.541)
(677.373 0 0 0 677.373 0 0 0 677.373)
(677.182 0 0 0 677.182 0 0 0 677.182)
(676.958 0 0 0 676.958 0 0 0 676.958)
(676.684 0 0 0 676.684 0 0 0 676.684)
(676.347 0 0 0 676.347 0 0 0 676.347)
(675.943 0 0 0 675.943 0 0 0 675.943)
(675.532 0 0 0 675.532 0 0 0 675.532)
(675.298 0 0 0 675.298 0 0 0 675.298)
(675.781 0 0 0 675.781 0 0 0 675.781)
(678.227 0 0 0 678.227 0 0 0 678.227)
(684.755 0 0 0 684.755 0 0 0 684.755)
(688.491 0 0 0 688.491 0 0 0 688.491)
(674.358 0 0 0 674.358 0 0 0 674.358)
(673.663 0 0 0 673.663 0 0 0 673.663)
(673.637 0 0 0 673.637 0 0 0 673.637)
(673.601 0 0 0 673.601 0 0 0 673.601)
(673.556 0 0 0 673.556 0 0 0 673.556)
(673.501 0 0 0 673.501 0 0 0 673.501)
(673.435 0 0 0 673.435 0 0 0 673.435)
(673.356 0 0 0 673.356 0 0 0 673.356)
(673.261 0 0 0 673.261 0 0 0 673.261)
(673.15 0 0 0 673.15 0 0 0 673.15)
(673.025 0 0 0 673.025 0 0 0 673.025)
(672.888 0 0 0 672.888 0 0 0 672.888)
(672.747 0 0 0 672.747 0 0 0 672.747)
(672.61 0 0 0 672.61 0 0 0 672.61)
(672.482 0 0 0 672.482 0 0 0 672.482)
(672.363 0 0 0 672.363 0 0 0 672.363)
(672.241 0 0 0 672.241 0 0 0 672.241)
(672.104 0 0 0 672.104 0 0 0 672.104)
(671.948 0 0 0 671.948 0 0 0 671.948)
(671.839 0 0 0 671.839 0 0 0 671.839)
(671.976 0 0 0 671.976 0 0 0 671.976)
(672.928 0 0 0 672.928 0 0 0 672.928)
(675.994 0 0 0 675.994 0 0 0 675.994)
(683.338 0 0 0 683.338 0 0 0 683.338)
(688.033 0 0 0 688.033 0 0 0 688.033)
(679.523 0 0 0 679.523 0 0 0 679.523)
(678.898 0 0 0 678.898 0 0 0 678.898)
(678.918 0 0 0 678.918 0 0 0 678.918)
(678.926 0 0 0 678.926 0 0 0 678.926)
(678.922 0 0 0 678.922 0 0 0 678.922)
(678.905 0 0 0 678.905 0 0 0 678.905)
(678.874 0 0 0 678.874 0 0 0 678.874)
(678.826 0 0 0 678.826 0 0 0 678.826)
(678.76 0 0 0 678.76 0 0 0 678.76)
(678.674 0 0 0 678.674 0 0 0 678.674)
(678.567 0 0 0 678.567 0 0 0 678.567)
(678.437 0 0 0 678.437 0 0 0 678.437)
(678.283 0 0 0 678.283 0 0 0 678.283)
(678.105 0 0 0 678.105 0 0 0 678.105)
(677.897 0 0 0 677.897 0 0 0 677.897)
(677.649 0 0 0 677.649 0 0 0 677.649)
(677.343 0 0 0 677.343 0 0 0 677.343)
(676.966 0 0 0 676.966 0 0 0 676.966)
(676.513 0 0 0 676.513 0 0 0 676.513)
(676.043 0 0 0 676.043 0 0 0 676.043)
(675.737 0 0 0 675.737 0 0 0 675.737)
(676.13 0 0 0 676.13 0 0 0 676.13)
(678.465 0 0 0 678.465 0 0 0 678.465)
(684.861 0 0 0 684.861 0 0 0 684.861)
(688.507 0 0 0 688.507 0 0 0 688.507)
(675.349 0 0 0 675.349 0 0 0 675.349)
(674.674 0 0 0 674.674 0 0 0 674.674)
(674.658 0 0 0 674.658 0 0 0 674.658)
(674.634 0 0 0 674.634 0 0 0 674.634)
(674.6 0 0 0 674.6 0 0 0 674.6)
(674.555 0 0 0 674.555 0 0 0 674.555)
(674.498 0 0 0 674.498 0 0 0 674.498)
(674.427 0 0 0 674.427 0 0 0 674.427)
(674.341 0 0 0 674.341 0 0 0 674.341)
(674.237 0 0 0 674.237 0 0 0 674.237)
(674.118 0 0 0 674.118 0 0 0 674.118)
(673.985 0 0 0 673.985 0 0 0 673.985)
(673.845 0 0 0 673.845 0 0 0 673.845)
(673.702 0 0 0 673.702 0 0 0 673.702)
(673.562 0 0 0 673.562 0 0 0 673.562)
(673.42 0 0 0 673.42 0 0 0 673.42)
(673.266 0 0 0 673.266 0 0 0 673.266)
(673.084 0 0 0 673.084 0 0 0 673.084)
(672.873 0 0 0 672.873 0 0 0 672.873)
(672.696 0 0 0 672.696 0 0 0 672.696)
(672.75 0 0 0 672.75 0 0 0 672.75)
(673.596 0 0 0 673.596 0 0 0 673.596)
(676.522 0 0 0 676.522 0 0 0 676.522)
(683.68 0 0 0 683.68 0 0 0 683.68)
(688.147 0 0 0 688.147 0 0 0 688.147)
(675.349 0 0 0 675.349 0 0 0 675.349)
(674.674 0 0 0 674.674 0 0 0 674.674)
(674.658 0 0 0 674.658 0 0 0 674.658)
(674.634 0 0 0 674.634 0 0 0 674.634)
(674.6 0 0 0 674.6 0 0 0 674.6)
(674.555 0 0 0 674.555 0 0 0 674.555)
(674.498 0 0 0 674.498 0 0 0 674.498)
(674.427 0 0 0 674.427 0 0 0 674.427)
(674.341 0 0 0 674.341 0 0 0 674.341)
(674.237 0 0 0 674.237 0 0 0 674.237)
(674.118 0 0 0 674.118 0 0 0 674.118)
(673.985 0 0 0 673.985 0 0 0 673.985)
(673.845 0 0 0 673.845 0 0 0 673.845)
(673.702 0 0 0 673.702 0 0 0 673.702)
(673.562 0 0 0 673.562 0 0 0 673.562)
(673.42 0 0 0 673.42 0 0 0 673.42)
(673.266 0 0 0 673.266 0 0 0 673.266)
(673.084 0 0 0 673.084 0 0 0 673.084)
(672.873 0 0 0 672.873 0 0 0 672.873)
(672.696 0 0 0 672.696 0 0 0 672.696)
(672.749 0 0 0 672.749 0 0 0 672.749)
(673.596 0 0 0 673.596 0 0 0 673.596)
(676.522 0 0 0 676.522 0 0 0 676.522)
(683.68 0 0 0 683.68 0 0 0 683.68)
(688.147 0 0 0 688.147 0 0 0 688.147)
(679.523 0 0 0 679.523 0 0 0 679.523)
(678.898 0 0 0 678.898 0 0 0 678.898)
(678.917 0 0 0 678.917 0 0 0 678.917)
(678.926 0 0 0 678.926 0 0 0 678.926)
(678.922 0 0 0 678.922 0 0 0 678.922)
(678.905 0 0 0 678.905 0 0 0 678.905)
(678.874 0 0 0 678.874 0 0 0 678.874)
(678.826 0 0 0 678.826 0 0 0 678.826)
(678.76 0 0 0 678.76 0 0 0 678.76)
(678.674 0 0 0 678.674 0 0 0 678.674)
(678.566 0 0 0 678.566 0 0 0 678.566)
(678.436 0 0 0 678.436 0 0 0 678.436)
(678.283 0 0 0 678.283 0 0 0 678.283)
(678.105 0 0 0 678.105 0 0 0 678.105)
(677.897 0 0 0 677.897 0 0 0 677.897)
(677.648 0 0 0 677.648 0 0 0 677.648)
(677.343 0 0 0 677.343 0 0 0 677.343)
(676.965 0 0 0 676.965 0 0 0 676.965)
(676.512 0 0 0 676.512 0 0 0 676.512)
(676.042 0 0 0 676.042 0 0 0 676.042)
(675.736 0 0 0 675.736 0 0 0 675.736)
(676.129 0 0 0 676.129 0 0 0 676.129)
(678.463 0 0 0 678.463 0 0 0 678.463)
(684.86 0 0 0 684.86 0 0 0 684.86)
(688.507 0 0 0 688.507 0 0 0 688.507)
(674.358 0 0 0 674.358 0 0 0 674.358)
(673.663 0 0 0 673.663 0 0 0 673.663)
(673.637 0 0 0 673.637 0 0 0 673.637)
(673.601 0 0 0 673.601 0 0 0 673.601)
(673.556 0 0 0 673.556 0 0 0 673.556)
(673.501 0 0 0 673.501 0 0 0 673.501)
(673.435 0 0 0 673.435 0 0 0 673.435)
(673.356 0 0 0 673.356 0 0 0 673.356)
(673.261 0 0 0 673.261 0 0 0 673.261)
(673.15 0 0 0 673.15 0 0 0 673.15)
(673.025 0 0 0 673.025 0 0 0 673.025)
(672.888 0 0 0 672.888 0 0 0 672.888)
(672.747 0 0 0 672.747 0 0 0 672.747)
(672.61 0 0 0 672.61 0 0 0 672.61)
(672.482 0 0 0 672.482 0 0 0 672.482)
(672.363 0 0 0 672.363 0 0 0 672.363)
(672.241 0 0 0 672.241 0 0 0 672.241)
(672.103 0 0 0 672.103 0 0 0 672.103)
(671.948 0 0 0 671.948 0 0 0 671.948)
(671.839 0 0 0 671.839 0 0 0 671.839)
(671.976 0 0 0 671.976 0 0 0 671.976)
(672.928 0 0 0 672.928 0 0 0 672.928)
(675.994 0 0 0 675.994 0 0 0 675.994)
(683.338 0 0 0 683.338 0 0 0 683.338)
(688.033 0 0 0 688.033 0 0 0 688.033)
(678.783 0 0 0 678.783 0 0 0 678.783)
(678.16 0 0 0 678.16 0 0 0 678.16)
(678.175 0 0 0 678.175 0 0 0 678.175)
(678.181 0 0 0 678.181 0 0 0 678.181)
(678.174 0 0 0 678.174 0 0 0 678.174)
(678.155 0 0 0 678.155 0 0 0 678.155)
(678.122 0 0 0 678.122 0 0 0 678.122)
(678.073 0 0 0 678.073 0 0 0 678.073)
(678.006 0 0 0 678.006 0 0 0 678.006)
(677.92 0 0 0 677.92 0 0 0 677.92)
(677.814 0 0 0 677.814 0 0 0 677.814)
(677.688 0 0 0 677.688 0 0 0 677.688)
(677.541 0 0 0 677.541 0 0 0 677.541)
(677.373 0 0 0 677.373 0 0 0 677.373)
(677.182 0 0 0 677.182 0 0 0 677.182)
(676.958 0 0 0 676.958 0 0 0 676.958)
(676.684 0 0 0 676.684 0 0 0 676.684)
(676.347 0 0 0 676.347 0 0 0 676.347)
(675.943 0 0 0 675.943 0 0 0 675.943)
(675.532 0 0 0 675.532 0 0 0 675.532)
(675.298 0 0 0 675.298 0 0 0 675.298)
(675.781 0 0 0 675.781 0 0 0 675.781)
(678.227 0 0 0 678.227 0 0 0 678.227)
(684.755 0 0 0 684.755 0 0 0 684.755)
(688.491 0 0 0 688.491 0 0 0 688.491)
(675.349 0 0 0 675.349 0 0 0 675.349)
(674.674 0 0 0 674.674 0 0 0 674.674)
(674.658 0 0 0 674.658 0 0 0 674.658)
(674.634 0 0 0 674.634 0 0 0 674.634)
(674.6 0 0 0 674.6 0 0 0 674.6)
(674.555 0 0 0 674.555 0 0 0 674.555)
(674.498 0 0 0 674.498 0 0 0 674.498)
(674.427 0 0 0 674.427 0 0 0 674.427)
(674.341 0 0 0 674.341 0 0 0 674.341)
(674.237 0 0 0 674.237 0 0 0 674.237)
(674.118 0 0 0 674.118 0 0 0 674.118)
(673.985 0 0 0 673.985 0 0 0 673.985)
(673.845 0 0 0 673.845 0 0 0 673.845)
(673.702 0 0 0 673.702 0 0 0 673.702)
(673.562 0 0 0 673.562 0 0 0 673.562)
(673.42 0 0 0 673.42 0 0 0 673.42)
(673.266 0 0 0 673.266 0 0 0 673.266)
(673.084 0 0 0 673.084 0 0 0 673.084)
(672.873 0 0 0 672.873 0 0 0 672.873)
(672.696 0 0 0 672.696 0 0 0 672.696)
(672.749 0 0 0 672.749 0 0 0 672.749)
(673.596 0 0 0 673.596 0 0 0 673.596)
(676.522 0 0 0 676.522 0 0 0 676.522)
(683.68 0 0 0 683.68 0 0 0 683.68)
(688.147 0 0 0 688.147 0 0 0 688.147)
(679.523 0 0 0 679.523 0 0 0 679.523)
(678.898 0 0 0 678.898 0 0 0 678.898)
(678.918 0 0 0 678.918 0 0 0 678.918)
(678.926 0 0 0 678.926 0 0 0 678.926)
(678.922 0 0 0 678.922 0 0 0 678.922)
(678.905 0 0 0 678.905 0 0 0 678.905)
(678.874 0 0 0 678.874 0 0 0 678.874)
(678.826 0 0 0 678.826 0 0 0 678.826)
(678.76 0 0 0 678.76 0 0 0 678.76)
(678.674 0 0 0 678.674 0 0 0 678.674)
(678.567 0 0 0 678.567 0 0 0 678.567)
(678.437 0 0 0 678.437 0 0 0 678.437)
(678.283 0 0 0 678.283 0 0 0 678.283)
(678.105 0 0 0 678.105 0 0 0 678.105)
(677.897 0 0 0 677.897 0 0 0 677.897)
(677.649 0 0 0 677.649 0 0 0 677.649)
(677.343 0 0 0 677.343 0 0 0 677.343)
(676.966 0 0 0 676.966 0 0 0 676.966)
(676.513 0 0 0 676.513 0 0 0 676.513)
(676.043 0 0 0 676.043 0 0 0 676.043)
(675.737 0 0 0 675.737 0 0 0 675.737)
(676.13 0 0 0 676.13 0 0 0 676.13)
(678.465 0 0 0 678.465 0 0 0 678.465)
(684.861 0 0 0 684.861 0 0 0 684.861)
(688.507 0 0 0 688.507 0 0 0 688.507)
(679.523 0 0 0 679.523 0 0 0 679.523)
(678.898 0 0 0 678.898 0 0 0 678.898)
(678.917 0 0 0 678.917 0 0 0 678.917)
(678.926 0 0 0 678.926 0 0 0 678.926)
(678.922 0 0 0 678.922 0 0 0 678.922)
(678.905 0 0 0 678.905 0 0 0 678.905)
(678.874 0 0 0 678.874 0 0 0 678.874)
(678.826 0 0 0 678.826 0 0 0 678.826)
(678.76 0 0 0 678.76 0 0 0 678.76)
(678.674 0 0 0 678.674 0 0 0 678.674)
(678.566 0 0 0 678.566 0 0 0 678.566)
(678.436 0 0 0 678.436 0 0 0 678.436)
(678.283 0 0 0 678.283 0 0 0 678.283)
(678.105 0 0 0 678.105 0 0 0 678.105)
(677.897 0 0 0 677.897 0 0 0 677.897)
(677.648 0 0 0 677.648 0 0 0 677.648)
(677.343 0 0 0 677.343 0 0 0 677.343)
(676.965 0 0 0 676.965 0 0 0 676.965)
(676.512 0 0 0 676.512 0 0 0 676.512)
(676.042 0 0 0 676.042 0 0 0 676.042)
(675.736 0 0 0 675.736 0 0 0 675.736)
(676.129 0 0 0 676.129 0 0 0 676.129)
(678.463 0 0 0 678.463 0 0 0 678.463)
(684.86 0 0 0 684.86 0 0 0 684.86)
(688.507 0 0 0 688.507 0 0 0 688.507)
(675.349 0 0 0 675.349 0 0 0 675.349)
(674.674 0 0 0 674.674 0 0 0 674.674)
(674.658 0 0 0 674.658 0 0 0 674.658)
(674.634 0 0 0 674.634 0 0 0 674.634)
(674.6 0 0 0 674.6 0 0 0 674.6)
(674.555 0 0 0 674.555 0 0 0 674.555)
(674.498 0 0 0 674.498 0 0 0 674.498)
(674.427 0 0 0 674.427 0 0 0 674.427)
(674.341 0 0 0 674.341 0 0 0 674.341)
(674.237 0 0 0 674.237 0 0 0 674.237)
(674.118 0 0 0 674.118 0 0 0 674.118)
(673.985 0 0 0 673.985 0 0 0 673.985)
(673.845 0 0 0 673.845 0 0 0 673.845)
(673.702 0 0 0 673.702 0 0 0 673.702)
(673.562 0 0 0 673.562 0 0 0 673.562)
(673.42 0 0 0 673.42 0 0 0 673.42)
(673.266 0 0 0 673.266 0 0 0 673.266)
(673.084 0 0 0 673.084 0 0 0 673.084)
(672.873 0 0 0 672.873 0 0 0 672.873)
(672.696 0 0 0 672.696 0 0 0 672.696)
(672.749 0 0 0 672.749 0 0 0 672.749)
(673.596 0 0 0 673.596 0 0 0 673.596)
(676.522 0 0 0 676.522 0 0 0 676.522)
(683.68 0 0 0 683.68 0 0 0 683.68)
(688.147 0 0 0 688.147 0 0 0 688.147)
)
;

boundaryField
{
    outletCentralUnloaded
    {
        type            zeroGradient;
    }
    inletCentralUnloaded
    {
        type            zeroGradient;
    }
    outletFuelElement
    {
        type            zeroGradient;
    }
    inletFuelElement
    {
        type            zeroGradient;
    }
    defaultFaces
    {
        type            zeroGradient;
    }
    baffle_master
    {
        type            zeroGradient;
    }
    baffle_slave
    {
        type            zeroGradient;
    }
}


// ************************************************************************* //
