/*--------------------------------*- C++ -*----------------------------------*\
| =========                 |                                                 |
| \\      /  F ield         | OpenFOAM: The Open Source CFD Toolbox           |
|  \\    /   O peration     | Version:  2212                                  |
|   \\  /    A nd           | Website:  www.openfoam.com                      |
|    \\/     M anipulation  |                                                 |
\*---------------------------------------------------------------------------*/
FoamFile
{
    version     2.0;
    format      ascii;
    arch        "LSB;label=32;scalar=64";
    class       volScalarField;
    location    "28/fluidRegion";
    object      p_rgh;
}
// * * * * * * * * * * * * * * * * * * * * * * * * * * * * * * * * * * * * * //

dimensions      [1 -1 -2 0 0 0 0];

internalField   nonuniform List<scalar> 
350
(
3.44743e+06
3.44772e+06
3.44802e+06
3.44831e+06
3.44861e+06
3.44891e+06
3.4492e+06
3.4495e+06
3.44979e+06
3.45009e+06
3.45038e+06
3.45068e+06
3.45097e+06
3.45127e+06
3.45157e+06
3.45186e+06
3.45216e+06
3.45245e+06
3.45275e+06
3.45304e+06
3.45334e+06
3.45363e+06
3.45393e+06
3.45422e+06
3.45451e+06
3.44743e+06
3.44772e+06
3.44802e+06
3.44831e+06
3.44861e+06
3.44891e+06
3.4492e+06
3.4495e+06
3.44979e+06
3.45009e+06
3.45038e+06
3.45068e+06
3.45097e+06
3.45127e+06
3.45157e+06
3.45186e+06
3.45216e+06
3.45245e+06
3.45275e+06
3.45304e+06
3.45334e+06
3.45363e+06
3.45393e+06
3.45422e+06
3.45451e+06
3.4725e+06
3.52182e+06
3.57065e+06
3.6187e+06
3.66567e+06
3.71126e+06
3.75522e+06
3.79731e+06
3.83732e+06
3.87506e+06
3.91037e+06
3.94311e+06
3.97315e+06
4.00044e+06
4.0249e+06
4.04655e+06
4.06541e+06
4.08159e+06
4.0952e+06
4.10642e+06
4.11543e+06
4.12245e+06
4.12771e+06
4.1315e+06
4.13416e+06
3.4725e+06
3.52182e+06
3.57065e+06
3.6187e+06
3.66567e+06
3.71126e+06
3.75522e+06
3.79731e+06
3.83732e+06
3.87506e+06
3.91037e+06
3.94311e+06
3.97315e+06
4.00044e+06
4.0249e+06
4.04655e+06
4.06541e+06
4.08159e+06
4.0952e+06
4.10642e+06
4.11543e+06
4.12245e+06
4.12771e+06
4.1315e+06
4.13416e+06
3.4725e+06
3.52182e+06
3.57065e+06
3.6187e+06
3.66567e+06
3.71126e+06
3.75522e+06
3.79731e+06
3.83732e+06
3.87506e+06
3.91037e+06
3.94311e+06
3.97315e+06
4.00044e+06
4.0249e+06
4.04655e+06
4.06541e+06
4.08159e+06
4.0952e+06
4.10642e+06
4.11543e+06
4.12245e+06
4.12771e+06
4.1315e+06
4.13416e+06
3.4725e+06
3.52182e+06
3.57065e+06
3.6187e+06
3.66567e+06
3.71126e+06
3.75522e+06
3.79731e+06
3.83732e+06
3.87506e+06
3.91037e+06
3.94311e+06
3.97315e+06
4.00044e+06
4.0249e+06
4.04655e+06
4.06541e+06
4.08159e+06
4.0952e+06
4.10642e+06
4.11543e+06
4.12245e+06
4.12771e+06
4.1315e+06
4.13416e+06
3.4725e+06
3.52182e+06
3.57065e+06
3.6187e+06
3.66567e+06
3.71126e+06
3.75522e+06
3.79731e+06
3.83732e+06
3.87506e+06
3.91037e+06
3.94311e+06
3.97315e+06
4.00044e+06
4.0249e+06
4.04655e+06
4.06541e+06
4.08159e+06
4.0952e+06
4.10642e+06
4.11543e+06
4.12245e+06
4.12771e+06
4.1315e+06
4.13416e+06
3.4725e+06
3.52182e+06
3.57065e+06
3.6187e+06
3.66567e+06
3.71126e+06
3.75522e+06
3.79731e+06
3.83732e+06
3.87506e+06
3.91037e+06
3.94311e+06
3.97315e+06
4.00044e+06
4.0249e+06
4.04655e+06
4.06541e+06
4.08159e+06
4.0952e+06
4.10642e+06
4.11543e+06
4.12245e+06
4.12771e+06
4.1315e+06
4.13416e+06
3.4725e+06
3.52182e+06
3.57065e+06
3.6187e+06
3.66567e+06
3.71126e+06
3.75522e+06
3.79731e+06
3.83732e+06
3.87506e+06
3.91037e+06
3.94311e+06
3.97315e+06
4.00044e+06
4.0249e+06
4.04655e+06
4.06541e+06
4.08159e+06
4.0952e+06
4.10642e+06
4.11543e+06
4.12245e+06
4.12771e+06
4.1315e+06
4.13416e+06
3.4725e+06
3.52182e+06
3.57065e+06
3.6187e+06
3.66567e+06
3.71126e+06
3.75522e+06
3.79731e+06
3.83732e+06
3.87506e+06
3.91037e+06
3.94311e+06
3.97315e+06
4.00044e+06
4.0249e+06
4.04655e+06
4.06541e+06
4.08159e+06
4.0952e+06
4.10642e+06
4.11543e+06
4.12245e+06
4.12771e+06
4.1315e+06
4.13416e+06
3.4725e+06
3.52182e+06
3.57065e+06
3.6187e+06
3.66567e+06
3.71126e+06
3.75522e+06
3.79731e+06
3.83732e+06
3.87506e+06
3.91037e+06
3.94311e+06
3.97315e+06
4.00044e+06
4.0249e+06
4.04655e+06
4.06541e+06
4.08159e+06
4.0952e+06
4.10642e+06
4.11543e+06
4.12245e+06
4.12771e+06
4.1315e+06
4.13416e+06
3.4725e+06
3.52182e+06
3.57065e+06
3.6187e+06
3.66567e+06
3.71126e+06
3.75522e+06
3.79731e+06
3.83732e+06
3.87506e+06
3.91037e+06
3.94311e+06
3.97315e+06
4.00044e+06
4.0249e+06
4.04655e+06
4.06541e+06
4.08159e+06
4.0952e+06
4.10642e+06
4.11543e+06
4.12245e+06
4.12771e+06
4.1315e+06
4.13416e+06
3.4725e+06
3.52182e+06
3.57065e+06
3.6187e+06
3.66567e+06
3.71126e+06
3.75522e+06
3.79731e+06
3.83732e+06
3.87506e+06
3.91037e+06
3.94311e+06
3.97315e+06
4.00044e+06
4.0249e+06
4.04655e+06
4.06541e+06
4.08159e+06
4.0952e+06
4.10642e+06
4.11543e+06
4.12245e+06
4.12771e+06
4.1315e+06
4.13416e+06
3.4725e+06
3.52182e+06
3.57065e+06
3.6187e+06
3.66567e+06
3.71126e+06
3.75522e+06
3.79731e+06
3.83732e+06
3.87506e+06
3.91037e+06
3.94311e+06
3.97315e+06
4.00044e+06
4.0249e+06
4.04655e+06
4.06541e+06
4.08159e+06
4.0952e+06
4.10642e+06
4.11543e+06
4.12245e+06
4.12771e+06
4.1315e+06
4.13416e+06
)
;

boundaryField
{
    outletCentralUnloaded
    {
        type            fixedValue;
        value           uniform 3.44728e+06;
    }
    inletCentralUnloaded
    {
        type            zeroGradient;
    }
    outletFuelElement
    {
        type            fixedValue;
        value           uniform 3.44728e+06;
    }
    inletFuelElement
    {
        type            zeroGradient;
    }
    defaultFaces
    {
        type            zeroGradient;
    }
    baffle_master
    {
        type            zeroGradient;
    }
    baffle_slave
    {
        type            zeroGradient;
    }
}


// ************************************************************************* //
