/*--------------------------------*- C++ -*----------------------------------*\
| =========                 |                                                 |
| \\      /  F ield         | OpenFOAM: The Open Source CFD Toolbox           |
|  \\    /   O peration     | Version:  2212                                  |
|   \\  /    A nd           | Website:  www.openfoam.com                      |
|    \\/     M anipulation  |                                                 |
\*---------------------------------------------------------------------------*/
FoamFile
{
    version     2.0;
    format      ascii;
    arch        "LSB;label=32;scalar=64";
    class       volScalarField;
    location    "28/fluidRegion";
    object      T;
}
// * * * * * * * * * * * * * * * * * * * * * * * * * * * * * * * * * * * * * //

dimensions      [0 0 0 1 0 0 0];

internalField   nonuniform List<scalar> 
350
(
83.2887
83.2892
83.2897
83.2901
83.2906
83.2911
83.2916
83.2921
83.2925
83.293
83.2935
83.294
83.2945
83.2949
83.2954
83.2959
83.2963
83.2968
83.2973
83.2978
83.2982
83.2987
83.2992
83.2996
83.3
83.2887
83.2892
83.2897
83.2901
83.2906
83.2911
83.2916
83.2921
83.2925
83.293
83.2935
83.294
83.2945
83.2949
83.2954
83.2959
83.2963
83.2968
83.2973
83.2978
83.2982
83.2987
83.2992
83.2996
83.3
1760.9
1757.1
1741.04
1712.92
1673.09
1622.02
1560.33
1488.74
1408.12
1319.47
1223.93
1122.81
1017.64
910.13
802.212
695.927
593.313
496.265
406.44
325.246
253.929
193.664
145.647
110.975
90.2511
1787.64
1784.1
1768.09
1739.81
1699.61
1647.96
1585.49
1512.93
1431.16
1341.18
1244.15
1141.39
1034.43
925.022
815.124
706.834
602.256
503.354
411.839
329.158
256.581
195.296
146.508
111.322
90.325
1756.55
1752.73
1736.67
1708.6
1668.84
1617.89
1556.34
1484.92
1404.5
1316.07
1220.78
1119.93
1015.04
907.841
800.239
694.27
591.962
495.201
405.636
324.668
253.541
193.427
145.523
110.924
90.2393
1781.63
1778.02
1761.98
1733.72
1693.59
1642.07
1579.76
1507.41
1425.9
1336.22
1239.52
1137.13
1030.57
921.595
812.148
704.317
600.19
501.714
410.589
328.252
255.966
194.917
146.309
111.242
90.308
1781.63
1778.02
1761.98
1733.72
1693.59
1642.07
1579.76
1507.41
1425.9
1336.22
1239.52
1137.13
1030.57
921.595
812.148
704.317
600.19
501.714
410.589
328.252
255.966
194.917
146.309
111.242
90.308
1756.55
1752.73
1736.67
1708.6
1668.85
1617.89
1556.34
1484.92
1404.5
1316.07
1220.78
1119.93
1015.04
907.842
800.24
694.271
591.963
495.202
405.637
324.668
253.541
193.428
145.523
110.924
90.2393
1787.64
1784.1
1768.09
1739.81
1699.61
1647.96
1585.49
1512.93
1431.16
1341.18
1244.15
1141.39
1034.43
925.022
815.124
706.834
602.256
503.354
411.839
329.158
256.581
195.296
146.508
111.322
90.325
1760.9
1757.1
1741.04
1712.92
1673.09
1622.02
1560.33
1488.74
1408.12
1319.47
1223.93
1122.81
1017.64
910.13
802.212
695.927
593.313
496.265
406.44
325.246
253.929
193.664
145.647
110.975
90.2511
1781.63
1778.02
1761.98
1733.72
1693.59
1642.07
1579.76
1507.41
1425.9
1336.22
1239.52
1137.13
1030.57
921.595
812.148
704.317
600.19
501.714
410.589
328.252
255.966
194.917
146.309
111.242
90.308
1756.55
1752.73
1736.67
1708.6
1668.84
1617.89
1556.34
1484.92
1404.5
1316.07
1220.78
1119.93
1015.04
907.841
800.238
694.269
591.962
495.201
405.636
324.668
253.54
193.427
145.523
110.924
90.2393
1756.55
1752.73
1736.67
1708.6
1668.85
1617.89
1556.34
1484.92
1404.5
1316.07
1220.78
1119.93
1015.04
907.842
800.24
694.271
591.963
495.202
405.637
324.668
253.541
193.428
145.523
110.924
90.2393
1781.63
1778.02
1761.98
1733.72
1693.59
1642.07
1579.76
1507.41
1425.9
1336.22
1239.52
1137.13
1030.57
921.595
812.148
704.317
600.19
501.714
410.589
328.252
255.966
194.917
146.309
111.242
90.308
)
;

boundaryField
{
    outletCentralUnloaded
    {
        type            zeroGradient;
    }
    inletCentralUnloaded
    {
        type            fixedValue;
        value           uniform 83.3;
    }
    outletFuelElement
    {
        type            zeroGradient;
    }
    inletFuelElement
    {
        type            fixedValue;
        value           uniform 83.3;
    }
    defaultFaces
    {
        type            zeroGradient;
    }
    baffle_master
    {
        type            zeroGradient;
    }
    baffle_slave
    {
        type            zeroGradient;
    }
}


// ************************************************************************* //
