/*--------------------------------*- C++ -*----------------------------------*\
| =========                 |                                                 |
| \\      /  F ield         | OpenFOAM: The Open Source CFD Toolbox           |
|  \\    /   O peration     | Version:  2212                                  |
|   \\  /    A nd           | Website:  www.openfoam.com                      |
|    \\/     M anipulation  |                                                 |
\*---------------------------------------------------------------------------*/
FoamFile
{
    version     2.0;
    format      ascii;
    arch        "LSB;label=32;scalar=64";
    class       volScalarField;
    location    "28/fluidRegion";
    object      Tcav.nuclearFuelPin;
}
// * * * * * * * * * * * * * * * * * * * * * * * * * * * * * * * * * * * * * //

dimensions      [0 0 0 1 0 0 0];

internalField   nonuniform List<scalar> 
350
(
0
0
0
0
0
0
0
0
0
0
0
0
0
0
0
0
0
0
0
0
0
0
0
0
0
0
0
0
0
0
0
0
0
0
0
0
0
0
0
0
0
0
0
0
0
0
0
0
0
0
1774.72
1814.96
1842.39
1857
1858.92
1848.42
1825.92
1791.96
1747.26
1692.63
1629.05
1557.59
1479.47
1396
1308.58
1218.65
1127.53
1036.21
945.015
853.059
757.458
652.185
527.336
372.352
189.336
1801.49
1842.4
1870.27
1885.1
1887.01
1876.29
1853.34
1818.74
1773.2
1717.56
1652.79
1579.99
1500.4
1415.35
1326.26
1234.6
1141.74
1048.72
955.925
862.503
765.561
658.987
532.675
375.802
190.503
1770.36
1810.52
1837.89
1852.49
1854.43
1843.98
1821.56
1787.72
1743.16
1688.71
1625.33
1554.09
1476.21
1393
1305.85
1216.2
1125.35
1034.3
943.349
851.623
756.233
651.167
526.548
371.846
189.158
1795.47
1836.21
1863.96
1878.73
1880.63
1869.95
1847.09
1812.63
1767.27
1711.85
1647.34
1574.85
1495.59
1410.89
1322.18
1230.92
1138.46
1045.83
953.403
860.319
763.686
657.413
531.438
375.002
190.233
1795.47
1836.21
1863.96
1878.73
1880.63
1869.95
1847.09
1812.63
1767.27
1711.85
1647.34
1574.85
1495.59
1410.89
1322.18
1230.92
1138.46
1045.83
953.403
860.319
763.686
657.413
531.438
375.002
190.233
1770.36
1810.52
1837.89
1852.49
1854.43
1843.98
1821.56
1787.72
1743.17
1688.72
1625.33
1554.09
1476.21
1393
1305.85
1216.2
1125.35
1034.3
943.35
851.623
756.234
651.168
526.549
371.847
189.158
1801.49
1842.4
1870.27
1885.1
1887.01
1876.29
1853.34
1818.74
1773.2
1717.56
1652.79
1579.99
1500.4
1415.35
1326.26
1234.6
1141.74
1048.72
955.925
862.503
765.561
658.987
532.675
375.802
190.503
1774.72
1814.96
1842.39
1857
1858.92
1848.42
1825.92
1791.96
1747.26
1692.63
1629.05
1557.59
1479.47
1396
1308.58
1218.65
1127.53
1036.21
945.015
853.059
757.458
652.185
527.336
372.351
189.336
1795.47
1836.21
1863.96
1878.73
1880.63
1869.95
1847.09
1812.63
1767.27
1711.85
1647.34
1574.85
1495.59
1410.89
1322.18
1230.92
1138.46
1045.83
953.403
860.319
763.686
657.413
531.438
375.002
190.233
1770.36
1810.52
1837.89
1852.49
1854.43
1843.98
1821.56
1787.72
1743.16
1688.71
1625.33
1554.09
1476.21
1393
1305.85
1216.2
1125.35
1034.3
943.349
851.623
756.233
651.167
526.548
371.846
189.158
1770.36
1810.52
1837.89
1852.49
1854.43
1843.98
1821.56
1787.72
1743.17
1688.72
1625.33
1554.09
1476.21
1393
1305.85
1216.2
1125.35
1034.3
943.35
851.623
756.234
651.168
526.549
371.847
189.158
1795.47
1836.21
1863.96
1878.73
1880.63
1869.95
1847.09
1812.63
1767.27
1711.85
1647.34
1574.85
1495.59
1410.89
1322.18
1230.92
1138.46
1045.83
953.403
860.319
763.686
657.413
531.438
375.001
190.233
)
;

boundaryField
{
    outletCentralUnloaded
    {
        type            zeroGradient;
    }
    inletCentralUnloaded
    {
        type            zeroGradient;
    }
    outletFuelElement
    {
        type            zeroGradient;
    }
    inletFuelElement
    {
        type            zeroGradient;
    }
    defaultFaces
    {
        type            zeroGradient;
    }
    baffle_master
    {
        type            zeroGradient;
    }
    baffle_slave
    {
        type            zeroGradient;
    }
}


// ************************************************************************* //
