/*--------------------------------*- C++ -*----------------------------------*\
| =========                 |                                                 |
| \\      /  F ield         | OpenFOAM: The Open Source CFD Toolbox           |
|  \\    /   O peration     | Version:  2212                                  |
|   \\  /    A nd           | Website:  www.openfoam.com                      |
|    \\/     M anipulation  |                                                 |
\*---------------------------------------------------------------------------*/
FoamFile
{
    version     2.0;
    format      ascii;
    arch        "LSB;label=32;scalar=64";
    class       volScalarField;
    location    "28/fluidRegion";
    object      Tci.nuclearFuelPin;
}
// * * * * * * * * * * * * * * * * * * * * * * * * * * * * * * * * * * * * * //

dimensions      [0 0 0 1 0 0 0];

internalField   nonuniform List<scalar> 
350
(
0
0
0
0
0
0
0
0
0
0
0
0
0
0
0
0
0
0
0
0
0
0
0
0
0
0
0
0
0
0
0
0
0
0
0
0
0
0
0
0
0
0
0
0
0
0
0
0
0
0
1778.48
1830.54
1869.52
1895.23
1907.63
1906.82
1893.06
1866.77
1828.54
1779.08
1719.28
1650.16
1572.91
1488.81
1399.29
1305.8
1209.73
1112.15
1013.47
912.933
807.799
692.2
556.42
390.106
195.548
1805.28
1858.14
1897.69
1923.74
1936.26
1935.33
1921.23
1894.39
1855.39
1804.97
1744.03
1673.61
1594.9
1509.21
1417.99
1322.73
1224.86
1125.51
1025.15
923.056
816.472
699.455
562.087
393.755
196.782
1774.12
1826.07
1864.98
1890.65
1903.05
1902.27
1888.58
1862.4
1824.3
1775.01
1715.4
1646.5
1569.48
1485.64
1396.39
1303.19
1207.4
1110.09
1011.68
911.388
806.483
691.11
555.579
389.569
195.36
1799.25
1851.91
1891.32
1917.28
1929.75
1928.84
1914.81
1888.08
1849.25
1799.04
1738.35
1668.23
1589.84
1504.51
1413.68
1318.82
1221.37
1122.43
1022.45
920.716
814.467
697.776
560.774
392.909
196.497
1799.25
1851.91
1891.32
1917.28
1929.75
1928.84
1914.81
1888.08
1849.25
1799.04
1738.35
1668.23
1589.84
1504.51
1413.68
1318.82
1221.37
1122.43
1022.45
920.716
814.467
697.776
560.774
392.909
196.497
1774.12
1826.07
1864.98
1890.65
1903.05
1902.27
1888.58
1862.4
1824.3
1775.01
1715.4
1646.5
1569.48
1485.64
1396.39
1303.19
1207.4
1110.09
1011.68
911.389
806.484
691.111
555.58
389.57
195.36
1805.28
1858.14
1897.69
1923.74
1936.26
1935.33
1921.23
1894.39
1855.39
1804.97
1744.03
1673.61
1594.9
1509.21
1417.99
1322.73
1224.86
1125.51
1025.15
923.056
816.472
699.455
562.087
393.755
196.782
1778.48
1830.54
1869.52
1895.23
1907.63
1906.82
1893.06
1866.77
1828.54
1779.08
1719.28
1650.16
1572.91
1488.81
1399.29
1305.8
1209.73
1112.15
1013.47
912.933
807.799
692.2
556.42
390.106
195.548
1799.25
1851.91
1891.32
1917.28
1929.75
1928.84
1914.81
1888.08
1849.25
1799.04
1738.35
1668.23
1589.84
1504.51
1413.68
1318.82
1221.37
1122.43
1022.45
920.716
814.467
697.776
560.774
392.909
196.497
1774.12
1826.07
1864.98
1890.65
1903.05
1902.27
1888.58
1862.4
1824.3
1775.01
1715.4
1646.5
1569.48
1485.64
1396.39
1303.19
1207.4
1110.09
1011.68
911.388
806.483
691.11
555.58
389.569
195.36
1774.12
1826.07
1864.98
1890.65
1903.05
1902.27
1888.58
1862.4
1824.3
1775.01
1715.4
1646.5
1569.48
1485.64
1396.39
1303.19
1207.4
1110.09
1011.68
911.389
806.484
691.111
555.58
389.57
195.36
1799.25
1851.91
1891.32
1917.28
1929.75
1928.84
1914.81
1888.08
1849.25
1799.04
1738.35
1668.23
1589.84
1504.51
1413.68
1318.82
1221.37
1122.43
1022.45
920.716
814.467
697.776
560.774
392.909
196.497
)
;

boundaryField
{
    outletCentralUnloaded
    {
        type            zeroGradient;
    }
    inletCentralUnloaded
    {
        type            zeroGradient;
    }
    outletFuelElement
    {
        type            zeroGradient;
    }
    inletFuelElement
    {
        type            zeroGradient;
    }
    defaultFaces
    {
        type            zeroGradient;
    }
    baffle_master
    {
        type            zeroGradient;
    }
    baffle_slave
    {
        type            zeroGradient;
    }
}


// ************************************************************************* //
