/*--------------------------------*- C++ -*----------------------------------*\
| =========                 |                                                 |
| \\      /  F ield         | OpenFOAM: The Open Source CFD Toolbox           |
|  \\    /   O peration     | Version:  2212                                  |
|   \\  /    A nd           | Website:  www.openfoam.com                      |
|    \\/     M anipulation  |                                                 |
\*---------------------------------------------------------------------------*/
FoamFile
{
    version     2.0;
    format      ascii;
    arch        "LSB;label=32;scalar=64";
    class       volScalarField;
    location    "28/fluidRegion";
    object      Tfo.nuclearFuelPin;
}
// * * * * * * * * * * * * * * * * * * * * * * * * * * * * * * * * * * * * * //

dimensions      [0 0 0 1 0 0 0];

internalField   nonuniform List<scalar> 
350
(
0
0
0
0
0
0
0
0
0
0
0
0
0
0
0
0
0
0
0
0
0
0
0
0
0
0
0
0
0
0
0
0
0
0
0
0
0
0
0
0
0
0
0
0
0
0
0
0
0
0
1886.31
2268.55
2630.25
2966.14
3271.27
3541.15
3771.76
3959.68
4102.12
4196.96
4242.82
4239.07
4185.86
4084.12
3935.55
3742.53
3508.01
3235.22
2927.35
2587
2215.35
1811.08
1369.67
886.523
369.097
1913.73
2300.55
2666.53
3006.32
3314.94
3587.81
3820.9
4010.74
4154.51
4250.07
4296.02
4291.74
4237.37
4133.87
3982.96
3787.07
3549.2
3272.68
2960.76
2616.14
2239.99
1831.01
1384.51
895.716
372.188
1881.85
2263.38
2624.41
2959.7
3264.3
3533.71
3763.94
3951.57
4093.81
4188.55
4234.4
4230.74
4177.72
4076.27
3928.07
3735.52
3501.52
3229.33
2922.09
2582.43
2211.48
1807.97
1367.37
885.1
368.612
1907.55
2293.31
2658.28
2997.17
3304.97
3577.14
3809.65
3999.03
4142.48
4237.87
4283.79
4279.63
4225.52
4122.42
3972.04
3776.81
3539.71
3264.05
2953.06
2609.42
2234.31
1826.41
1381.09
893.594
371.475
1907.55
2293.31
2658.28
2997.17
3304.97
3577.14
3809.65
3999.03
4142.48
4237.87
4283.79
4279.62
4225.52
4122.42
3972.04
3776.81
3539.71
3264.05
2953.06
2609.42
2234.31
1826.41
1381.09
893.594
371.475
1881.85
2263.38
2624.41
2959.7
3264.3
3533.71
3763.94
3951.57
4093.81
4188.55
4234.4
4230.74
4177.72
4076.27
3928.07
3735.52
3501.52
3229.33
2922.09
2582.43
2211.48
1807.97
1367.37
885.101
368.612
1913.73
2300.55
2666.53
3006.32
3314.94
3587.81
3820.9
4010.74
4154.51
4250.07
4296.02
4291.74
4237.37
4133.87
3982.96
3787.07
3549.2
3272.68
2960.76
2616.14
2239.99
1831.01
1384.51
895.716
372.188
1886.31
2268.55
2630.25
2966.14
3271.27
3541.15
3771.76
3959.68
4102.12
4196.96
4242.82
4239.07
4185.85
4084.12
3935.55
3742.53
3508.01
3235.22
2927.35
2587
2215.35
1811.08
1369.67
886.523
369.097
1907.55
2293.31
2658.28
2997.17
3304.97
3577.14
3809.65
3999.03
4142.48
4237.87
4283.79
4279.62
4225.52
4122.42
3972.04
3776.81
3539.71
3264.05
2953.06
2609.42
2234.31
1826.41
1381.09
893.594
371.475
1881.85
2263.38
2624.41
2959.7
3264.29
3533.71
3763.94
3951.57
4093.81
4188.55
4234.4
4230.74
4177.72
4076.27
3928.07
3735.52
3501.52
3229.33
2922.09
2582.43
2211.48
1807.97
1367.37
885.1
368.612
1881.85
2263.38
2624.41
2959.7
3264.3
3533.71
3763.94
3951.57
4093.81
4188.55
4234.4
4230.74
4177.72
4076.27
3928.07
3735.52
3501.52
3229.33
2922.09
2582.43
2211.48
1807.97
1367.37
885.101
368.612
1907.55
2293.31
2658.28
2997.17
3304.97
3577.14
3809.65
3999.03
4142.48
4237.87
4283.79
4279.62
4225.52
4122.42
3972.04
3776.81
3539.71
3264.05
2953.06
2609.42
2234.31
1826.41
1381.09
893.594
371.475
)
;

boundaryField
{
    outletCentralUnloaded
    {
        type            zeroGradient;
    }
    inletCentralUnloaded
    {
        type            zeroGradient;
    }
    outletFuelElement
    {
        type            zeroGradient;
    }
    inletFuelElement
    {
        type            zeroGradient;
    }
    defaultFaces
    {
        type            zeroGradient;
    }
    baffle_master
    {
        type            zeroGradient;
    }
    baffle_slave
    {
        type            zeroGradient;
    }
}


// ************************************************************************* //
