/*--------------------------------*- C++ -*----------------------------------*\
| =========                 |                                                 |
| \\      /  F ield         | OpenFOAM: The Open Source CFD Toolbox           |
|  \\    /   O peration     | Version:  2212                                  |
|   \\  /    A nd           | Website:  www.openfoam.com                      |
|    \\/     M anipulation  |                                                 |
\*---------------------------------------------------------------------------*/
FoamFile
{
    version     2.0;
    format      ascii;
    arch        "LSB;label=32;scalar=64";
    class       scalarFieldField;
    location    "28/fluidRegion";
    object      Trad.nuclearFuelPin;
}
// * * * * * * * * * * * * * * * * * * * * * * * * * * * * * * * * * * * * * //


350
(
0()
0()
0()
0()
0()
0()
0()
0()
0()
0()
0()
0()
0()
0()
0()
0()
0()
0()
0()
0()
0()
0()
0()
0()
0()
0()
0()
0()
0()
0()
0()
0()
0()
0()
0()
0()
0()
0()
0()
0()
0()
0()
0()
0()
0()
0()
0()
0()
0()
0()

20
(
2113.28
2112.39
2109.74
2105.29
2099.01
2090.85
2080.76
2068.64
2054.43
2038
2019.27
1998.1
1974.36
1947.91
1918.61
1886.31
1778.48
1775.98
1773.55
1771.21
)


20
(
3266.67
3262.4
3249.56
3228.14
3198.09
3159.35
3111.83
3055.43
2990.05
2915.56
2831.81
2738.66
2635.94
2523.46
2401.06
2268.55
1830.54
1820.17
1810.13
1800.42
)


20
(
4382.33
4374.74
4351.95
4313.94
4260.64
4191.98
4107.86
4008.16
3892.75
3761.48
3614.17
3450.64
3270.69
3074.12
2860.72
2630.25
1869.52
1851.46
1833.98
1817.07
)


20
(
5443.08
5432.29
5399.93
5345.96
5270.3
5172.87
5053.56
4912.23
4748.72
4562.85
4354.42
4123.23
3869.05
3591.64
3290.75
2966.14
1895.23
1869.78
1845.16
1821.32
)


20
(
6432.53
6418.74
6377.34
6308.29
6211.52
6086.93
5934.38
5753.73
5544.8
5307.38
5041.26
4746.19
4421.93
4068.2
3684.75
3271.27
1907.63
1875.2
1843.83
1813.46
)


20
(
7335.41
7318.82
7269.06
7186.06
7069.76
6920.03
6736.73
6519.71
6268.75
5983.64
5664.14
5309.99
4920.91
4496.61
4036.79
3541.15
1906.82
1867.94
1830.33
1793.92
)


20
(
8137.72
8118.61
8061.29
7965.69
7831.73
7659.29
7448.22
7198.33
6909.41
6581.23
6213.52
5806
5358.38
4870.35
4341.58
3771.76
1893.06
1848.36
1805.12
1763.24
)


20
(
8827.03
8805.72
8741.76
8635.11
8485.66
8293.29
8057.85
7779.12
7456.9
7090.93
6680.93
6226.62
5727.67
5183.75
4594.54
3959.68
1866.77
1816.97
1768.79
1722.13
)


20
(
9392.67
9369.49
9299.93
9183.93
9021.4
8812.21
8556.18
8253.11
7902.77
7504.89
7059.2
6565.38
6023.11
5432.04
4791.83
4102.12
1828.54
1774.42
1722.08
1671.39
)


20
(
9825.86
9801.18
9727.14
9603.67
9430.67
9208.01
8935.51
8612.96
8240.13
7816.74
7342.5
6817.1
6240.2
5611.45
4930.49
4196.96
1779.08
1721.53
1665.85
1611.94
)


20
(
10119.9
10094.1
10016.8
9887.84
9707.15
9474.59
9189.99
8853.14
8463.79
8021.67
7526.49
6977.92
6375.63
5719.25
5008.44
4242.82
1719.28
1659.21
1601.1
1544.82
)


20
(
10270.3
10243.8
10164.5
10032.1
9846.58
9607.86
9315.72
8969.97
8570.34
8116.58
7608.38
7045.42
6427.36
5753.86
5024.55
4239.07
1650.16
1588.53
1528.91
1471.18
)


20
(
10274.8
10248.1
10167.9
10034.2
9846.89
9605.83
9310.84
8961.71
8558.2
8100.05
7586.97
7018.62
6394.69
5714.83
4978.67
4185.86
1572.91
1510.7
1450.52
1392.25
)


20
(
10133.4
10106.8
10027.2
9894.3
9708.17
9468.63
9175.51
8828.6
8427.68
7972.47
7462.7
6898.06
6278.22
5602.85
4871.6
4084.12
1488.81
1427.02
1367.24
1309.36
)


20
(
9848.43
9822.47
9744.57
9614.69
9432.72
9198.53
8911.97
8572.84
8180.91
7735.94
7237.64
6685.73
6079.89
5419.8
4705.13
3935.55
1399.29
1338.9
1280.48
1223.91
)


20
(
9424.44
9399.49
9324.62
9199.78
9024.89
8799.82
8524.41
8198.49
7821.83
7394.21
6915.36
6385.01
5802.86
5168.61
4481.94
3742.53
1305.8
1247.78
1191.66
1137.31
)


20
(
8867.96
8844.42
8773.78
8656
8490.99
8278.64
8018.8
7711.31
7355.97
6952.56
6500.83
6000.53
5451.38
4853.11
4205.42
3508.01
1209.73
1155.01
1102.07
1050.8
)


20
(
8187.29
8165.53
8100.26
7991.43
7838.95
7642.74
7402.65
7118.53
6790.2
6417.47
6000.1
5537.88
5030.54
4477.82
3879.47
3235.22
1112.15
1061.59
1012.69
965.334
)


20
(
7392.05
7372.43
7313.58
7215.44
7077.95
6901.03
6684.54
6428.37
6132.33
5796.26
5419.97
5003.23
4545.83
4047.54
3508.13
2927.35
1013.47
967.895
923.81
881.119
)


20
(
6492.76
6475.6
6424.1
6338.24
6217.95
6063.16
5873.76
5649.63
5390.65
5096.64
4767.44
4402.88
4002.75
3566.87
3095.02
2587
912.933
873.072
834.511
797.169
)


20
(
5499.76
5485.33
5442.02
5369.8
5268.64
5138.45
4979.16
4790.67
4572.87
4325.62
4048.79
3742.22
3405.76
3039.24
2642.49
2215.35
807.799
774.285
741.863
710.467
)


20
(
4422.57
4411.09
4376.64
4319.21
4238.75
4135.21
4008.53
3858.63
3685.43
3488.82
3268.7
3024.94
2757.43
2466.04
2150.63
1811.08
692.2
665.56
639.789
614.833
)


20
(
3269.03
3260.67
3235.6
3193.8
3135.24
3059.9
2967.72
2858.65
2732.64
2589.61
2429.49
2252.21
2057.67
1845.8
1616.5
1369.67
556.42
537.057
518.326
500.188
)


20
(
2048.2
2043.08
2027.71
2002.1
1966.21
1920.05
1863.58
1796.78
1719.63
1632.09
1534.13
1425.7
1306.77
1177.29
1037.22
886.523
390.106
378.286
366.851
355.778
)


20
(
779.641
777.81
772.316
763.162
750.348
733.878
713.754
689.982
662.564
631.508
596.818
558.501
516.563
471.011
421.853
369.097
195.548
191.412
187.411
183.536
)


20
(
2141.61
2140.73
2138.07
2133.61
2127.32
2119.14
2109.02
2096.88
2082.62
2066.14
2047.34
2026.08
2002.23
1975.66
1946.21
1913.73
1805.28
1802.75
1800.32
1797.97
)


20
(
3308.43
3304.11
3291.16
3269.54
3239.2
3200.09
3152.11
3095.18
3029.17
2953.96
2869.4
2775.33
2671.6
2558.01
2434.39
2300.55
1858.14
1847.66
1837.52
1827.72
)


20
(
4437.01
4429.34
4406.32
4367.91
4314.06
4244.69
4159.7
4058.96
3942.35
3809.71
3660.85
3495.61
3313.76
3115.12
2899.45
2666.53
1897.69
1879.43
1861.77
1844.68
)


20
(
5509.99
5499.09
5466.39
5411.83
5335.37
5236.9
5116.31
4973.46
4808.19
4620.33
4409.66
4175.97
3919.04
3638.63
3334.47
3006.32
1923.74
1898.01
1873.12
1849.03
)


20
(
6510.8
6496.85
6455
6385.2
6287.38
6161.43
6007.23
5824.61
5613.4
5373.39
5104.36
4806.06
4478.25
4120.64
3732.97
3314.94
1936.26
1903.47
1871.76
1841.05
)


20
(
7423.96
7407.19
7356.88
7272.98
7155.39
7004.02
6818.71
6599.3
6345.58
6057.33
5734.31
5376.25
4982.87
4553.87
4088.96
3587.81
1935.33
1896.02
1857.99
1821.17
)


20
(
8235.34
8216.03
8158.07
8061.42
7925.98
7751.63
7538.23
7285.57
6993.45
6661.63
6289.84
5877.8
5425.21
4931.74
4397.09
3820.9
1921.23
1876.03
1832.31
1789.97
)


20
(
8932.37
8910.82
8846.15
8738.32
8587.21
8392.71
8154.64
7872.82
7547.02
7176.97
6762.41
6303.02
5798.5
5248.51
4652.71
4010.74
1894.39
1844.03
1795.31
1748.13
)


20
(
9504.24
9480.8
9410.47
9293.18
9128.84
8917.32
8658.43
8351.98
7997.73
7595.41
7144.74
6645.39
6097.05
5499.36
4851.96
4154.51
1855.39
1800.67
1747.74
1696.48
)


20
(
9942.09
9917.14
9842.27
9717.42
9542.49
9317.34
9041.79
8715.64
8338.63
7910.5
7430.95
6899.65
6316.28
5680.46
4991.85
4250.07
1804.97
1746.77
1690.47
1635.96
)


20
(
10239.2
10213.1
10134.9
10004.5
9821.77
9586.6
9298.81
8958.19
8564.47
8117.39
7616.65
7061.92
6452.85
5789.09
5070.27
4296.02
1744.03
1683.29
1624.52
1567.61
)


20
(
10390.9
10364.1
10283.8
10149.9
9962.38
9720.97
9425.56
9075.92
8671.8
8212.94
7699.02
7129.73
6504.71
5823.62
5086.09
4291.74
1673.61
1611.29
1550.99
1492.61
)


20
(
10394.9
10367.9
10286.8
10151.6
9962.21
9718.44
9420.13
9067.08
8659.04
8195.73
7676.86
7102.11
6471.15
5783.61
5039.14
4237.37
1594.9
1531.99
1471.13
1412.2
)


20
(
10251.4
10224.5
10144
10009.6
9821.39
9579.15
9282.73
8931.92
8526.47
8066.14
7550.62
6979.61
6352.78
5669.78
4930.26
4133.87
1509.21
1446.72
1386.27
1327.73
)


20
(
9962.62
9936.36
9857.59
9726.24
9542.22
9305.4
9015.61
8672.65
8276.31
7826.31
7322.39
6764.25
6151.56
5484.01
4761.26
3982.96
1417.99
1356.92
1297.84
1240.63
)


20
(
9533.2
9507.97
9432.26
9306.02
9129.15
8901.54
8623.03
8293.42
7912.52
7480.07
6995.81
6459.46
5870.73
5229.3
4534.85
3787.07
1322.73
1264.06
1207.3
1152.33
)


20
(
8969.8
8945.99
8874.56
8755.44
8588.57
8373.82
8111.05
7800.09
7440.73
7032.76
6575.92
6069.96
5514.6
4909.55
4254.52
3549.2
1224.86
1169.52
1115.98
1064.14
)


20
(
8280.82
8258.82
8192.81
8082.75
7928.55
7730.12
7487.31
7199.98
6867.94
6490.99
6068.9
5601.44
5088.35
4529.38
3924.24
3272.68
1125.51
1074.39
1024.93
977.037
)


20
(
7476.04
7456.21
7396.69
7297.44
7158.4
6979.47
6760.54
6501.47
6202.08
5862.21
5481.65
5060.19
4597.61
4093.67
3548.13
2960.76
1025.15
979.065
934.479
891.303
)


20
(
6566.15
6548.79
6496.71
6409.88
6288.23
6131.69
5940.15
5713.48
5451.56
5154.23
4821.3
4452.61
4047.95
3607.12
3129.92
2616.14
923.056
882.743
843.744
805.978
)


20
(
5561.59
5546.99
5503.19
5430.16
5327.85
5196.2
5035.11
4844.49
4624.22
4374.18
4094.21
3784.17
3443.9
3073.23
2671.98
2239.99
816.472
782.578
749.789
718.037
)


20
(
4471.98
4460.37
4425.54
4367.46
4286.09
4181.39
4053.28
3901.7
3726.54
3527.71
3305.1
3058.6
2788.06
2493.38
2174.4
1831.01
699.455
672.514
646.451
621.212
)


20
(
3305.19
3296.74
3271.39
3229.12
3169.91
3093.72
3000.51
2890.22
2762.8
2618.16
2456.25
2276.98
2080.26
1866
1634.11
1384.51
562.087
542.506
523.564
505.221
)


20
(
2070.29
2065.11
2049.57
2023.67
1987.39
1940.72
1883.63
1816.09
1738.09
1649.58
1550.53
1440.9
1320.64
1189.72
1048.1
895.716
393.755
381.803
370.241
359.044
)


20
(
787.052
785.202
779.652
770.403
757.456
740.815
720.483
696.463
668.76
637.379
602.325
563.604
521.224
475.189
425.509
372.188
196.782
192.602
188.558
184.641
)


20
(
2108.68
2107.79
2105.14
2100.69
2094.41
2086.26
2076.17
2064.06
2049.85
2033.43
2014.71
1993.55
1969.83
1943.4
1914.13
1881.85
1774.12
1771.62
1769.19
1766.86
)


20
(
3259.95
3255.68
3242.87
3221.48
3191.47
3152.79
3105.34
3049.03
2983.75
2909.37
2825.76
2732.75
2630.18
2517.89
2395.68
2263.38
1826.07
1815.71
1805.7
1796
)


20
(
4373.56
4365.98
4343.24
4305.28
4252.07
4183.52
4099.54
4000.01
3884.8
3753.74
3606.68
3443.42
3263.78
3067.54
2854.49
2624.41
1864.98
1846.94
1829.5
1812.62
)


20
(
5432.38
5421.61
5389.31
5335.42
5259.9
5162.64
5043.53
4902.44
4739.2
4553.65
4345.58
4114.79
3861.05
3584.12
3283.75
2959.7
1890.65
1865.24
1840.66
1816.87
)


20
(
6420.04
6406.27
6364.94
6296.02
6199.41
6075.04
5922.76
5742.42
5533.85
5296.84
5031.18
4736.63
4412.93
4059.83
3677.04
3264.3
1903.05
1870.68
1839.36
1809.04
)


20
(
7321.29
7304.74
7255.06
7172.21
7056.11
6906.64
6723.67
6507.02
6256.5
5971.89
5652.96
5299.43
4911.03
4487.48
4028.47
3533.71
1902.27
1863.46
1825.92
1789.57
)


20
(
8122.17
8103.1
8045.88
7950.45
7816.73
7644.59
7433.89
7184.44
6896.03
6568.43
6201.37
5794.57
5347.75
4860.58
4332.75
3763.94
1888.58
1843.96
1800.8
1759
)


20
(
8810.27
8788.99
8725.15
8618.68
8469.5
8277.48
8042.44
7764.22
7442.57
7077.24
6667.98
6214.47
5716.4
5173.46
4585.29
3951.57
1862.4
1812.68
1764.59
1718.02
)


20
(
9374.92
9351.78
9282.35
9166.56
9004.32
8795.5
8539.92
8237.39
7887.67
7490.51
7045.61
6552.67
6011.37
5421.35
4782.29
4093.81
1824.3
1770.28
1718.03
1667.43
)


20
(
9807.38
9782.75
9708.84
9585.59
9412.9
9190.64
8918.62
8596.65
8224.48
7801.85
7328.46
6804
6228.13
5600.5
4920.76
4188.55
1775.01
1717.56
1661.98
1608.17
)


20
(
10101
10075.2
9998.04
9869.31
9688.94
9456.8
9172.71
8836.46
8447.81
8006.48
7512.18
6964.6
6363.38
5708.19
4998.65
4234.4
1715.4
1655.43
1597.43
1541.26
)


20
(
10251.2
10224.7
10145.5
10013.3
9828.19
9589.9
9298.29
8953.15
8554.24
8101.29
7594
7032.05
6415.11
5742.82
5014.82
4230.74
1646.5
1584.98
1525.47
1467.84
)


20
(
10255.7
10229
10149
10015.6
9828.58
9587.95
9293.49
8944.99
8542.21
8084.88
7572.71
7005.39
6382.58
5703.94
4969.11
4177.72
1569.48
1507.39
1447.32
1389.15
)


20
(
10114.7
10088.1
10008.6
9876
9690.21
9451.1
9158.5
8812.21
8412.01
7957.62
7448.77
6885.15
6266.42
5592.27
4862.33
4076.27
1485.64
1423.96
1364.3
1306.52
)


20
(
9830.31
9804.39
9726.64
9596.99
9415.34
9181.58
8895.53
8557.01
8165.79
7721.61
7224.22
6673.3
6068.55
5409.65
4696.27
3928.07
1396.39
1336.11
1277.8
1221.33
)


20
(
9407.18
9382.27
9307.54
9182.93
9008.35
8783.68
8508.77
8183.43
7807.46
7380.61
6902.62
6373.23
5792.13
5159.02
4473.59
3735.52
1303.19
1245.27
1189.25
1135
)


20
(
8851.8
8828.3
8757.79
8640.22
8475.51
8263.54
8004.18
7697.24
7342.54
6939.85
6488.94
5989.54
5441.39
4844.19
4197.67
3501.52
1207.4
1152.78
1099.93
1048.76
)


20
(
8172.45
8150.74
8085.58
7976.94
7824.75
7628.88
7389.23
7105.62
6777.89
6405.82
5989.21
5527.82
5021.4
4469.68
3872.41
3229.33
1110.09
1059.63
1010.82
963.546
)


20
(
7378.73
7359.15
7300.4
7202.44
7065.2
6888.59
6672.5
6416.78
6121.28
5785.82
5410.21
4994.22
4537.65
4040.26
3501.82
2922.09
1011.68
966.188
922.183
879.568
)


20
(
6481.13
6464
6412.59
6326.89
6206.81
6052.3
5863.24
5639.52
5381
5087.52
4758.92
4395.02
3995.62
3560.52
3089.53
2582.43
911.388
871.6
833.108
795.834
)


20
(
5489.97
5475.56
5432.33
5360.24
5259.26
5129.31
4970.31
4782.16
4564.74
4317.94
4041.61
3735.59
3399.74
3033.89
2637.86
2211.48
806.483
773.03
740.667
709.327
)


20
(
4414.75
4403.29
4368.91
4311.57
4231.26
4127.91
4001.46
3851.83
3678.94
3482.68
3262.95
3019.64
2752.61
2461.74
2146.91
1807.97
691.11
664.518
638.794
613.883
)


20
(
3263.32
3254.98
3229.95
3188.22
3129.77
3054.56
2962.54
2853.67
2727.88
2585.11
2425.28
2248.32
2054.13
1842.64
1613.75
1367.37
555.579
536.252
517.554
499.448
)


20
(
2044.72
2039.61
2024.27
1998.69
1962.87
1916.79
1860.42
1793.74
1716.73
1629.34
1531.55
1423.32
1304.6
1175.35
1035.53
885.1
389.569
377.77
366.356
355.303
)


20
(
778.467
776.639
771.155
762.015
749.223
732.78
712.69
688.956
661.585
630.58
595.948
557.695
515.828
470.353
421.279
368.612
195.36
191.231
187.236
183.368
)


20
(
2135.21
2134.32
2131.67
2127.21
2120.92
2112.75
2102.64
2090.5
2076.25
2059.79
2041
2019.77
1995.95
1969.41
1939.99
1907.55
1799.25
1796.73
1794.3
1791.95
)


20
(
3298.92
3294.62
3281.69
3260.12
3229.85
3190.82
3142.95
3086.14
3020.28
2945.23
2860.86
2767.01
2663.51
2550.18
2426.84
2293.31
1851.91
1841.46
1831.35
1821.56
)


20
(
4424.52
4416.87
4393.9
4355.58
4301.86
4232.65
4147.86
4047.37
3931.04
3798.71
3650.21
3485.36
3303.96
3105.79
2890.64
2658.28
1891.32
1873.1
1855.49
1838.44
)


20
(
5494.67
5483.8
5451.17
5396.75
5320.48
5222.25
5101.95
4959.45
4794.59
4607.18
4397.03
4163.92
3907.63
3627.9
3324.5
2997.17
1917.28
1891.61
1866.79
1842.75
)


20
(
6492.85
6478.94
6437.2
6367.57
6269.99
6144.36
5990.54
5808.37
5597.68
5358.27
5089.91
4792.36
4465.36
4108.65
3721.95
3304.97
1929.75
1897.05
1865.42
1834.79
)


20
(
7403.64
7386.91
7336.73
7253.03
7135.74
6984.75
6799.91
6581.04
6327.96
6040.43
5718.22
5361.06
4968.67
4540.76
4077.02
3577.14
1928.84
1889.63
1851.7
1814.97
)


20
(
8212.92
8193.65
8135.84
8039.43
7904.34
7730.43
7517.56
7265.54
6974.16
6643.18
6272.33
5861.33
5409.88
4917.67
4384.37
3809.65
1914.81
1869.72
1826.11
1783.88
)


20
(
8908.16
8886.67
8822.17
8714.6
8563.88
8369.86
8132.4
7851.3
7526.32
7157.21
6743.7
6285.48
5782.24
5233.65
4639.36
3999.03
1888.08
1837.85
1789.25
1742.19
)


20
(
9478.59
9455.21
9385.06
9268.07
9104.14
8893.15
8634.92
8329.25
7975.9
7574.61
7125.08
6627.01
6080.06
5483.9
4838.16
4142.48
1849.25
1794.67
1741.87
1690.74
)


20
(
9915.36
9890.47
9815.79
9691.26
9516.78
9292.2
9017.35
8692.03
8315.98
7888.94
7410.61
6880.68
6298.79
5664.6
4977.75
4237.87
1799.04
1740.99
1684.83
1630.46
)


20
(
10211.7
10185.7
10107.7
9977.64
9795.4
9560.83
9273.78
8934.02
8541.31
8095.38
7595.91
7042.6
6435.09
5773.03
5056.06
4283.79
1738.35
1677.76
1619.15
1562.39
)


20
(
10363.1
10336.4
10256.3
10122.8
9935.73
9694.95
9400.29
9051.54
8648.46
8190.77
7678.17
7110.33
6486.92
5807.58
5071.94
4279.63
1668.23
1606.06
1545.92
1487.69
)


20
(
10367.3
10340.3
10259.4
10124.6
9935.67
9692.52
9394.98
9042.83
8635.83
8173.71
7656.17
7082.9
6453.55
5767.78
5025.22
4225.52
1589.84
1527.09
1466.39
1407.61
)


20
(
10224.2
10197.4
10117.1
9983.07
9795.33
9553.71
9258.05
8908.13
8503.73
8044.58
7530.38
6960.84
6335.61
5654.37
4916.76
4122.42
1504.51
1442.18
1381.89
1323.5
)


20
(
9936.33
9910.14
9831.57
9700.56
9517.01
9280.8
8991.75
8649.67
8254.34
7805.5
7302.88
6746.17
6135.06
5469.23
4748.33
3972.04
1413.68
1352.76
1293.84
1236.78
)


20
(
9508.16
9482.99
9407.48
9281.56
9105.15
8878.12
8600.32
8271.56
7891.63
7460.3
6977.28
6442.32
5855.1
5215.32
4522.66
3776.81
1318.82
1260.3
1203.69
1148.86
)


20
(
8946.34
8922.6
8851.35
8732.54
8566.1
8351.9
8089.81
7779.65
7421.21
7014.29
6558.63
6053.97
5500.04
4896.55
4243.2
3539.71
1221.37
1166.17
1112.77
1061.06
)


20
(
8259.28
8237.34
8171.5
8061.72
7907.92
7709.99
7467.82
7181.22
6850.04
6474.06
6053.06
5586.8
5075.03
4517.5
3913.93
3264.05
1122.43
1071.43
1022.1
974.332
)


20
(
7456.7
7436.92
7377.55
7278.56
7139.87
6961.41
6743.04
6484.63
6186.02
5847.02
5467.44
5047.07
4585.68
4083.04
3538.92
2953.06
1022.45
976.483
932.013
888.948
)


20
(
6549.24
6531.93
6479.99
6393.38
6272.05
6115.9
5924.86
5698.78
5437.53
5140.96
4808.9
4441.15
4037.54
3597.85
3121.88
2609.42
920.716
880.507
841.609
803.941
)


20
(
5547.35
5532.79
5489.1
5416.26
5314.21
5182.9
5022.22
4832.09
4612.39
4362.99
4083.75
3774.51
3435.11
3065.4
2665.19
2234.31
814.467
780.66
747.956
716.285
)


20
(
4460.6
4449.02
4414.28
4356.34
4275.19
4170.75
4042.97
3891.78
3717.07
3518.75
3296.72
3050.84
2781
2487.08
2168.92
1826.41
697.776
670.904
644.909
619.735
)


20
(
3296.86
3288.43
3263.15
3220.99
3161.93
3085.93
2992.95
2882.95
2755.85
2611.58
2450.08
2271.27
2075.05
1861.34
1630.05
1381.09
560.774
541.244
522.35
504.054
)


20
(
2065.2
2060.03
2044.54
2018.7
1982.51
1935.95
1879.01
1811.64
1733.84
1645.55
1546.75
1437.39
1317.44
1186.86
1045.59
893.594
392.909
380.987
369.454
358.286
)


20
(
785.345
783.5
777.962
768.735
755.819
739.217
718.933
694.97
667.333
636.026
601.056
562.429
520.15
474.227
424.666
371.475
196.497
192.327
188.293
184.385
)


20
(
2135.21
2134.32
2131.67
2127.21
2120.92
2112.75
2102.64
2090.5
2076.25
2059.79
2041
2019.77
1995.95
1969.41
1939.99
1907.55
1799.25
1796.73
1794.3
1791.95
)


20
(
3298.92
3294.62
3281.69
3260.12
3229.85
3190.82
3142.95
3086.14
3020.28
2945.23
2860.86
2767.01
2663.51
2550.18
2426.84
2293.31
1851.91
1841.46
1831.35
1821.56
)


20
(
4424.52
4416.87
4393.9
4355.58
4301.86
4232.65
4147.86
4047.37
3931.04
3798.71
3650.21
3485.36
3303.96
3105.79
2890.64
2658.28
1891.32
1873.11
1855.49
1838.44
)


20
(
5494.67
5483.8
5451.17
5396.75
5320.48
5222.25
5101.95
4959.45
4794.59
4607.18
4397.03
4163.92
3907.63
3627.9
3324.5
2997.17
1917.28
1891.61
1866.79
1842.75
)


20
(
6492.85
6478.94
6437.2
6367.57
6269.99
6144.36
5990.54
5808.37
5597.68
5358.27
5089.91
4792.36
4465.36
4108.65
3721.95
3304.97
1929.75
1897.05
1865.42
1834.79
)


20
(
7403.64
7386.91
7336.73
7253.03
7135.74
6984.75
6799.91
6581.04
6327.96
6040.43
5718.22
5361.06
4968.67
4540.76
4077.02
3577.14
1928.84
1889.63
1851.7
1814.97
)


20
(
8212.92
8193.65
8135.84
8039.43
7904.34
7730.43
7517.56
7265.54
6974.16
6643.18
6272.33
5861.33
5409.88
4917.67
4384.37
3809.65
1914.81
1869.72
1826.11
1783.88
)


20
(
8908.16
8886.67
8822.16
8714.6
8563.87
8369.86
8132.4
7851.3
7526.31
7157.21
6743.7
6285.48
5782.24
5233.65
4639.36
3999.03
1888.08
1837.85
1789.25
1742.19
)


20
(
9478.59
9455.21
9385.06
9268.07
9104.14
8893.15
8634.92
8329.25
7975.9
7574.61
7125.08
6627.01
6080.06
5483.9
4838.16
4142.48
1849.25
1794.67
1741.87
1690.74
)


20
(
9915.36
9890.47
9815.79
9691.26
9516.78
9292.2
9017.35
8692.03
8315.98
7888.94
7410.61
6880.68
6298.79
5664.6
4977.75
4237.87
1799.04
1740.99
1684.83
1630.46
)


20
(
10211.7
10185.7
10107.7
9977.64
9795.4
9560.83
9273.78
8934.02
8541.31
8095.38
7595.91
7042.6
6435.09
5773.03
5056.06
4283.79
1738.35
1677.76
1619.15
1562.39
)


20
(
10363.1
10336.4
10256.3
10122.8
9935.73
9694.94
9400.29
9051.54
8648.46
8190.77
7678.16
7110.33
6486.92
5807.58
5071.93
4279.62
1668.23
1606.06
1545.92
1487.69
)


20
(
10367.3
10340.3
10259.4
10124.6
9935.67
9692.52
9394.98
9042.83
8635.83
8173.71
7656.17
7082.9
6453.55
5767.78
5025.22
4225.52
1589.84
1527.09
1466.39
1407.61
)


20
(
10224.2
10197.4
10117.1
9983.07
9795.33
9553.71
9258.05
8908.13
8503.73
8044.58
7530.38
6960.84
6335.61
5654.37
4916.76
4122.42
1504.51
1442.18
1381.89
1323.5
)


20
(
9936.33
9910.14
9831.57
9700.56
9517.01
9280.8
8991.75
8649.67
8254.34
7805.5
7302.88
6746.17
6135.06
5469.23
4748.33
3972.04
1413.68
1352.76
1293.84
1236.78
)


20
(
9508.16
9482.99
9407.48
9281.56
9105.15
8878.12
8600.32
8271.56
7891.63
7460.3
6977.28
6442.32
5855.1
5215.32
4522.66
3776.81
1318.82
1260.3
1203.69
1148.86
)


20
(
8946.34
8922.6
8851.35
8732.54
8566.1
8351.9
8089.81
7779.65
7421.21
7014.29
6558.63
6053.97
5500.04
4896.55
4243.2
3539.71
1221.37
1166.17
1112.77
1061.06
)


20
(
8259.28
8237.34
8171.5
8061.72
7907.92
7709.99
7467.82
7181.22
6850.04
6474.06
6053.06
5586.8
5075.03
4517.5
3913.93
3264.05
1122.43
1071.43
1022.1
974.332
)


20
(
7456.7
7436.92
7377.55
7278.56
7139.87
6961.41
6743.04
6484.63
6186.02
5847.02
5467.44
5047.07
4585.68
4083.04
3538.92
2953.06
1022.45
976.483
932.013
888.948
)


20
(
6549.24
6531.93
6479.99
6393.38
6272.05
6115.9
5924.85
5698.78
5437.53
5140.96
4808.9
4441.15
4037.54
3597.85
3121.88
2609.42
920.716
880.507
841.609
803.941
)


20
(
5547.35
5532.79
5489.1
5416.26
5314.21
5182.9
5022.22
4832.09
4612.39
4362.99
4083.75
3774.51
3435.11
3065.4
2665.19
2234.31
814.467
780.66
747.956
716.285
)


20
(
4460.6
4449.02
4414.28
4356.34
4275.19
4170.75
4042.97
3891.78
3717.07
3518.75
3296.72
3050.84
2781.01
2487.08
2168.92
1826.41
697.776
670.904
644.909
619.735
)


20
(
3296.86
3288.43
3263.15
3220.99
3161.93
3085.93
2992.96
2882.95
2755.85
2611.58
2450.09
2271.27
2075.05
1861.34
1630.05
1381.09
560.774
541.244
522.35
504.054
)


20
(
2065.2
2060.03
2044.54
2018.7
1982.51
1935.95
1879.01
1811.64
1733.84
1645.55
1546.75
1437.39
1317.44
1186.86
1045.59
893.594
392.909
380.987
369.454
358.286
)


20
(
785.345
783.5
777.962
768.735
755.819
739.217
718.933
694.97
667.333
636.026
601.056
562.429
520.15
474.227
424.666
371.475
196.497
192.327
188.293
184.385
)


20
(
2108.68
2107.8
2105.14
2100.69
2094.42
2086.26
2076.17
2064.06
2049.85
2033.43
2014.71
1993.55
1969.83
1943.4
1914.13
1881.85
1774.12
1771.62
1769.2
1766.86
)


20
(
3259.95
3255.68
3242.87
3221.48
3191.48
3152.79
3105.34
3049.03
2983.75
2909.37
2825.76
2732.75
2630.18
2517.89
2395.68
2263.38
1826.07
1815.72
1805.7
1796
)


20
(
4373.57
4365.99
4343.24
4305.28
4252.07
4183.53
4099.55
4000.02
3884.8
3753.74
3606.68
3443.42
3263.78
3067.54
2854.49
2624.41
1864.98
1846.94
1829.5
1812.62
)


20
(
5432.38
5421.61
5389.31
5335.43
5259.9
5162.64
5043.53
4902.44
4739.2
4553.65
4345.59
4114.79
3861.05
3584.12
3283.75
2959.7
1890.65
1865.24
1840.67
1816.87
)


20
(
6420.04
6406.27
6364.94
6296.02
6199.41
6075.04
5922.76
5742.42
5533.85
5296.84
5031.18
4736.63
4412.93
4059.83
3677.04
3264.3
1903.05
1870.68
1839.37
1809.05
)


20
(
7321.29
7304.74
7255.06
7172.21
7056.11
6906.64
6723.67
6507.02
6256.5
5971.89
5652.96
5299.43
4911.03
4487.48
4028.47
3533.71
1902.27
1863.46
1825.92
1789.57
)


20
(
8122.17
8103.1
8045.88
7950.45
7816.73
7644.59
7433.89
7184.44
6896.03
6568.43
6201.37
5794.57
5347.75
4860.58
4332.75
3763.94
1888.58
1843.96
1800.8
1759
)


20
(
8810.27
8788.99
8725.15
8618.68
8469.5
8277.48
8042.45
7764.22
7442.57
7077.25
6667.98
6214.47
5716.4
5173.46
4585.3
3951.57
1862.4
1812.68
1764.59
1718.02
)


20
(
9374.92
9351.78
9282.35
9166.56
9004.32
8795.5
8539.92
8237.39
7887.67
7490.51
7045.61
6552.67
6011.37
5421.36
4782.29
4093.81
1824.3
1770.28
1718.03
1667.43
)


20
(
9807.39
9782.75
9708.84
9585.59
9412.9
9190.64
8918.62
8596.65
8224.48
7801.85
7328.46
6804
6228.13
5600.5
4920.76
4188.55
1775.01
1717.56
1661.98
1608.17
)


20
(
10101
10075.2
9998.04
9869.31
9688.94
9456.8
9172.71
8836.46
8447.81
8006.48
7512.19
6964.6
6363.38
5708.19
4998.65
4234.4
1715.4
1655.44
1597.43
1541.26
)


20
(
10251.2
10224.7
10145.5
10013.3
9828.19
9589.9
9298.29
8953.15
8554.24
8101.29
7594
7032.05
6415.11
5742.82
5014.82
4230.74
1646.5
1584.98
1525.47
1467.84
)


20
(
10255.7
10229
10149
10015.6
9828.58
9587.95
9293.49
8944.99
8542.21
8084.88
7572.72
7005.39
6382.58
5703.94
4969.11
4177.72
1569.48
1507.39
1447.32
1389.15
)


20
(
10114.7
10088.1
10008.6
9876
9690.21
9451.1
9158.5
8812.21
8412.01
7957.62
7448.77
6885.15
6266.42
5592.27
4862.33
4076.27
1485.64
1423.96
1364.3
1306.52
)


20
(
9830.31
9804.39
9726.64
9596.99
9415.34
9181.58
8895.53
8557.01
8165.79
7721.61
7224.22
6673.3
6068.55
5409.65
4696.27
3928.07
1396.39
1336.11
1277.8
1221.34
)


20
(
9407.18
9382.27
9307.54
9182.93
9008.35
8783.68
8508.77
8183.44
7807.46
7380.61
6902.62
6373.23
5792.13
5159.02
4473.59
3735.52
1303.19
1245.27
1189.25
1135
)


20
(
8851.8
8828.3
8757.79
8640.22
8475.51
8263.54
8004.18
7697.24
7342.54
6939.85
6488.94
5989.54
5441.39
4844.19
4197.67
3501.52
1207.4
1152.78
1099.93
1048.76
)


20
(
8172.45
8150.74
8085.58
7976.95
7824.75
7628.88
7389.23
7105.62
6777.89
6405.83
5989.21
5527.82
5021.4
4469.68
3872.41
3229.33
1110.09
1059.63
1010.82
963.547
)


20
(
7378.73
7359.15
7300.4
7202.44
7065.2
6888.59
6672.5
6416.78
6121.29
5785.82
5410.21
4994.22
4537.65
4040.26
3501.82
2922.09
1011.68
966.188
922.183
879.569
)


20
(
6481.13
6464
6412.59
6326.89
6206.82
6052.3
5863.24
5639.52
5381
5087.52
4758.92
4395.02
3995.62
3560.52
3089.53
2582.43
911.389
871.6
833.109
795.835
)


20
(
5489.97
5475.56
5432.33
5360.24
5259.26
5129.31
4970.31
4782.16
4564.74
4317.94
4041.61
3735.59
3399.74
3033.89
2637.86
2211.48
806.484
773.03
740.668
709.328
)


20
(
4414.75
4403.29
4368.91
4311.58
4231.26
4127.91
4001.46
3851.83
3678.94
3482.68
3262.96
3019.64
2752.61
2461.75
2146.91
1807.97
691.111
664.519
638.795
613.883
)


20
(
3263.32
3254.98
3229.95
3188.22
3129.77
3054.56
2962.54
2853.67
2727.88
2585.11
2425.28
2248.32
2054.13
1842.64
1613.75
1367.37
555.58
536.252
517.555
499.449
)


20
(
2044.72
2039.61
2024.27
1998.69
1962.87
1916.79
1860.42
1793.75
1716.73
1629.34
1531.55
1423.32
1304.6
1175.35
1035.53
885.101
389.57
377.771
366.356
355.303
)


20
(
778.468
776.639
771.155
762.015
749.223
732.78
712.69
688.957
661.585
630.58
595.948
557.695
515.828
470.353
421.279
368.612
195.36
191.231
187.237
183.368
)


20
(
2141.61
2140.73
2138.07
2133.61
2127.32
2119.14
2109.02
2096.88
2082.62
2066.14
2047.34
2026.08
2002.23
1975.66
1946.21
1913.73
1805.28
1802.75
1800.32
1797.97
)


20
(
3308.43
3304.11
3291.16
3269.54
3239.2
3200.09
3152.11
3095.18
3029.17
2953.96
2869.4
2775.33
2671.6
2558.01
2434.39
2300.55
1858.14
1847.66
1837.52
1827.72
)


20
(
4437.01
4429.34
4406.32
4367.91
4314.06
4244.69
4159.7
4058.96
3942.35
3809.71
3660.85
3495.61
3313.77
3115.12
2899.45
2666.53
1897.69
1879.43
1861.77
1844.68
)


20
(
5509.99
5499.09
5466.39
5411.83
5335.37
5236.9
5116.31
4973.46
4808.19
4620.33
4409.66
4175.97
3919.04
3638.63
3334.47
3006.32
1923.74
1898.01
1873.12
1849.03
)


20
(
6510.79
6496.85
6455
6385.2
6287.38
6161.43
6007.23
5824.61
5613.4
5373.39
5104.36
4806.06
4478.25
4120.64
3732.97
3314.94
1936.26
1903.47
1871.76
1841.05
)


20
(
7423.96
7407.19
7356.88
7272.98
7155.39
7004.02
6818.71
6599.3
6345.58
6057.33
5734.31
5376.25
4982.87
4553.87
4088.96
3587.81
1935.33
1896.02
1857.99
1821.17
)


20
(
8235.34
8216.03
8158.07
8061.42
7925.98
7751.63
7538.23
7285.57
6993.45
6661.63
6289.84
5877.8
5425.21
4931.74
4397.09
3820.9
1921.23
1876.03
1832.31
1789.97
)


20
(
8932.37
8910.82
8846.15
8738.31
8587.21
8392.71
8154.64
7872.82
7547.01
7176.97
6762.4
6303.02
5798.5
5248.51
4652.71
4010.74
1894.39
1844.03
1795.31
1748.13
)


20
(
9504.24
9480.8
9410.47
9293.18
9128.84
8917.32
8658.43
8351.98
7997.73
7595.41
7144.74
6645.39
6097.05
5499.36
4851.96
4154.51
1855.39
1800.67
1747.74
1696.48
)


20
(
9942.09
9917.14
9842.27
9717.42
9542.49
9317.34
9041.79
8715.64
8338.63
7910.5
7430.95
6899.65
6316.28
5680.46
4991.85
4250.07
1804.97
1746.77
1690.47
1635.96
)


20
(
10239.2
10213.1
10134.9
10004.5
9821.76
9586.6
9298.81
8958.19
8564.47
8117.39
7616.65
7061.92
6452.85
5789.09
5070.27
4296.02
1744.03
1683.29
1624.52
1567.61
)


20
(
10390.9
10364.1
10283.8
10149.9
9962.37
9720.97
9425.56
9075.92
8671.8
8212.94
7699.02
7129.73
6504.71
5823.62
5086.09
4291.74
1673.61
1611.29
1550.99
1492.61
)


20
(
10394.9
10367.9
10286.8
10151.6
9962.21
9718.44
9420.13
9067.08
8659.03
8195.73
7676.86
7102.11
6471.15
5783.61
5039.14
4237.37
1594.9
1531.99
1471.13
1412.2
)


20
(
10251.4
10224.5
10144
10009.6
9821.39
9579.15
9282.73
8931.92
8526.47
8066.14
7550.62
6979.61
6352.78
5669.78
4930.26
4133.87
1509.21
1446.72
1386.27
1327.73
)


20
(
9962.62
9936.36
9857.59
9726.24
9542.22
9305.4
9015.61
8672.65
8276.31
7826.31
7322.39
6764.25
6151.56
5484.01
4761.26
3982.96
1417.99
1356.92
1297.84
1240.63
)


20
(
9533.2
9507.97
9432.26
9306.02
9129.15
8901.54
8623.03
8293.42
7912.52
7480.07
6995.81
6459.46
5870.73
5229.3
4534.85
3787.07
1322.73
1264.06
1207.3
1152.33
)


20
(
8969.8
8945.99
8874.56
8755.44
8588.57
8373.82
8111.05
7800.09
7440.73
7032.76
6575.92
6069.96
5514.6
4909.55
4254.52
3549.2
1224.86
1169.52
1115.98
1064.14
)


20
(
8280.82
8258.82
8192.81
8082.75
7928.55
7730.12
7487.31
7199.98
6867.94
6490.99
6068.9
5601.44
5088.35
4529.38
3924.24
3272.68
1125.51
1074.39
1024.93
977.037
)


20
(
7476.04
7456.21
7396.69
7297.44
7158.4
6979.47
6760.54
6501.47
6202.08
5862.21
5481.65
5060.19
4597.61
4093.67
3548.13
2960.76
1025.15
979.065
934.479
891.303
)


20
(
6566.15
6548.79
6496.71
6409.88
6288.23
6131.69
5940.15
5713.48
5451.56
5154.23
4821.3
4452.61
4047.95
3607.12
3129.92
2616.14
923.056
882.743
843.744
805.978
)


20
(
5561.59
5546.99
5503.19
5430.16
5327.85
5196.2
5035.11
4844.49
4624.22
4374.18
4094.21
3784.17
3443.9
3073.23
2671.98
2239.99
816.472
782.578
749.789
718.037
)


20
(
4471.98
4460.37
4425.54
4367.46
4286.09
4181.39
4053.28
3901.7
3726.54
3527.71
3305.11
3058.6
2788.06
2493.38
2174.4
1831.01
699.455
672.514
646.451
621.212
)


20
(
3305.19
3296.74
3271.39
3229.13
3169.91
3093.72
3000.51
2890.22
2762.8
2618.17
2456.25
2276.98
2080.26
1866
1634.12
1384.51
562.087
542.506
523.564
505.221
)


20
(
2070.29
2065.11
2049.57
2023.67
1987.39
1940.72
1883.63
1816.09
1738.09
1649.58
1550.53
1440.9
1320.64
1189.72