/*--------------------------------*- C++ -*----------------------------------*\
| =========                 |                                                 |
| \\      /  F ield         | OpenFOAM: The Open Source CFD Toolbox           |
|  \\    /   O peration     | Version:  2212                                  |
|   \\  /    A nd           | Website:  www.openfoam.com                      |
|    \\/     M anipulation  |                                                 |
\*---------------------------------------------------------------------------*/
FoamFile
{
    version     2.0;
    format      ascii;
    arch        "LSB;label=32;scalar=64";
    class       volScalarField;
    location    "34/neutroRegion";
    object      TClad;
}
// * * * * * * * * * * * * * * * * * * * * * * * * * * * * * * * * * * * * * //

dimensions      [0 0 0 1 0 0 0];

internalField   nonuniform List<scalar> 
350
(
0
0
0
0
0
0
0
0
0
0
0
0
0
0
0
0
0
0
0
0
0
0
0
0
0
0
0
0
0
0
0
0
0
0
0
0
0
0
0
0
0
0
0
0
0
0
0
0
0
0
1819.32
1858.46
1884.67
1897.95
1898.42
1886.37
1862.21
1826.5
1779.97
1723.44
1657.89
1584.41
1504.24
1418.69
1329.2
1237.21
1144.11
1050.92
958.016
864.556
767.612
660.988
534.263
375.946
187.868
1847.12
1886.89
1913.51
1926.98
1927.41
1915.1
1890.45
1854.06
1806.64
1749.05
1682.27
1607.41
1525.72
1438.54
1347.33
1253.57
1158.67
1063.73
969.181
874.214
775.898
667.953
539.747
379.501
189.07
1814.8
1853.86
1880.02
1893.29
1893.79
1881.79
1857.72
1822.14
1775.76
1719.41
1654.07
1580.83
1500.9
1415.61
1326.4
1234.7
1141.87
1048.96
956.313
863.089
766.361
659.948
533.455
375.426
187.685
1840.87
1880.48
1906.99
1920.4
1920.83
1908.56
1884.01
1847.77
1800.54
1743.18
1676.67
1602.13
1520.78
1433.97
1343.15
1249.79
1155.3
1060.77
966.6
871.981
773.981
666.341
538.476
378.676
188.792
1840.87
1880.48
1906.99
1920.4
1920.83
1908.56
1884.01
1847.77
1800.54
1743.18
1676.67
1602.13
1520.78
1433.97
1343.15
1249.79
1155.3
1060.77
966.6
871.981
773.981
666.341
538.476
378.676
188.792
1814.8
1853.86
1880.02
1893.29
1893.79
1881.79
1857.72
1822.15
1775.76
1719.42
1654.07
1580.83
1500.9
1415.61
1326.4
1234.7
1141.87
1048.96
956.314
863.09
766.362
659.949
533.456
375.427
187.685
1847.12
1886.89
1913.51
1926.98
1927.41
1915.1
1890.45
1854.06
1806.64
1749.05
1682.27
1607.41
1525.72
1438.54
1347.33
1253.57
1158.67
1063.73
969.181
874.214
775.898
667.953
539.747
379.501
189.07
1819.32
1858.46
1884.67
1897.95
1898.42
1886.37
1862.21
1826.5
1779.97
1723.44
1657.89
1584.41
1504.24
1418.69
1329.2
1237.21
1144.11
1050.92
958.016
864.556
767.612
660.988
534.263
375.946
187.868
1840.87
1880.48
1906.99
1920.4
1920.83
1908.56
1884.01
1847.77
1800.54
1743.18
1676.67
1602.13
1520.78
1433.97
1343.15
1249.79
1155.3
1060.77
966.6
871.981
773.981
666.341
538.476
378.676
188.792
1814.8
1853.86
1880.02
1893.29
1893.79
1881.79
1857.72
1822.14
1775.76
1719.41
1654.07
1580.83
1500.9
1415.61
1326.4
1234.7
1141.87
1048.96
956.313
863.089
766.361
659.948
533.455
375.426
187.685
1814.8
1853.86
1880.02
1893.29
1893.79
1881.79
1857.72
1822.15
1775.76
1719.41
1654.07
1580.83
1500.9
1415.61
1326.4
1234.7
1141.87
1048.96
956.314
863.09
766.362
659.948
533.456
375.427
187.685
1840.87
1880.48
1906.99
1920.4
1920.83
1908.56
1884.01
1847.77
1800.54
1743.18
1676.67
1602.13
1520.78
1433.97
1343.15
1249.79
1155.3
1060.77
966.6
871.981
773.981
666.341
538.476
378.676
188.792
)
;

boundaryField
{
    outletCentralUnloaded
    {
        type            zeroGradient;
    }
    inletCentralUnloaded
    {
        type            zeroGradient;
    }
    outletFuelElement
    {
        type            zeroGradient;
    }
    inletFuelElement
    {
        type            zeroGradient;
    }
    defaultFaces
    {
        type            zeroGradient;
    }
}


// ************************************************************************* //
