/*--------------------------------*- C++ -*----------------------------------*\
| =========                 |                                                 |
| \\      /  F ield         | OpenFOAM: The Open Source CFD Toolbox           |
|  \\    /   O peration     | Version:  2212                                  |
|   \\  /    A nd           | Website:  www.openfoam.com                      |
|    \\/     M anipulation  |                                                 |
\*---------------------------------------------------------------------------*/
FoamFile
{
    version     2.0;
    format      ascii;
    arch        "LSB;label=32;scalar=64";
    class       volScalarField;
    location    "34/neutroRegion";
    object      TCool;
}
// * * * * * * * * * * * * * * * * * * * * * * * * * * * * * * * * * * * * * //

dimensions      [0 0 0 1 0 0 0];

internalField   nonuniform List<scalar> 
350
(
83.2889
83.2894
83.2899
83.2904
83.2909
83.2913
83.2918
83.2922
83.2927
83.2931
83.2936
83.294
83.2945
83.2949
83.2954
83.2958
83.2963
83.2968
83.2973
83.2978
83.2982
83.2987
83.2992
83.2996
83.3
83.2889
83.2894
83.2899
83.2904
83.2909
83.2913
83.2918
83.2922
83.2927
83.2931
83.2936
83.294
83.2945
83.2949
83.2954
83.2958
83.2963
83.2968
83.2973
83.2978
83.2982
83.2987
83.2992
83.2996
83.3
1800.78
1795.65
1778.13
1748.44
1706.94
1654.11
1590.56
1517.05
1434.44
1343.74
1246.1
1142.85
1035.5
925.801
815.695
707.266
602.599
503.636
412.071
329.337
256.68
195.296
146.402
111.134
90.1506
1828.45
1823.55
1806.06
1776.17
1734.26
1680.81
1616.45
1541.92
1458.12
1366.05
1266.88
1161.94
1052.76
941.113
828.976
718.488
611.803
510.932
417.628
333.366
259.412
196.978
147.29
111.492
90.2267
1796.29
1791.13
1773.62
1743.99
1702.57
1649.85
1586.46
1513.12
1430.71
1340.25
1242.87
1139.89
1032.84
923.45
813.668
705.563
601.211
502.543
411.245
328.744
256.281
195.053
146.274
111.082
90.1385
1822.23
1817.27
1799.75
1769.9
1728.07
1674.74
1610.55
1536.25
1452.71
1360.95
1262.12
1157.56
1048.8
937.588
825.915
715.898
609.676
509.244
416.342
332.432
258.779
196.587
147.084
111.409
90.2092
1822.23
1817.27
1799.75
1769.9
1728.07
1674.74
1610.55
1536.25
1452.71
1360.95
1262.12
1157.56
1048.8
937.588
825.915
715.898
609.676
509.244
416.342
332.432
258.779
196.587
147.084
111.409
90.2092
1796.29
1791.13
1773.63
1743.99
1702.57
1649.86
1586.46
1513.12
1430.72
1340.25
1242.87
1139.89
1032.84
923.451
813.669
705.564
601.212
502.544
411.245
328.744
256.282
195.053
146.274
111.082
90.1385
1828.45
1823.55
1806.05
1776.17
1734.26
1680.81
1616.45
1541.92
1458.12
1366.05
1266.88
1161.94
1052.76
941.113
828.976
718.489
611.803
510.932
417.628
333.366
259.412
196.978
147.29
111.492
90.2267
1800.78
1795.65
1778.13
1748.44
1706.94
1654.11
1590.56
1517.05
1434.44
1343.74
1246.1
1142.85
1035.5
925.801
815.695
707.266
602.599
503.635
412.071
329.337
256.68
195.296
146.402
111.134
90.1506
1822.23
1817.27
1799.75
1769.9
1728.07
1674.74
1610.55
1536.25
1452.71
1360.95
1262.12
1157.56
1048.8
937.588
825.915
715.898
609.676
509.244
416.342
332.432
258.779
196.588
147.084
111.409
90.2092
1796.29
1791.13
1773.62
1743.99
1702.57
1649.85
1586.46
1513.12
1430.71
1340.25
1242.87
1139.89
1032.84
923.45
813.668
705.563
601.211
502.543
411.245
328.744
256.281
195.053
146.274
111.082
90.1385
1796.29
1791.13
1773.63
1743.99
1702.57
1649.86
1586.46
1513.12
1430.72
1340.25
1242.87
1139.89
1032.84
923.451
813.669
705.564
601.212
502.544
411.245
328.744
256.282
195.053
146.274
111.082
90.1384
1822.23
1817.26
1799.75
1769.9
1728.07
1674.74
1610.55
1536.25
1452.71
1360.95
1262.12
1157.56
1048.8
937.588
825.915
715.898
609.676
509.244
416.342
332.432
258.779
196.587
147.084
111.409
90.2092
)
;

boundaryField
{
    outletCentralUnloaded
    {
        type            zeroGradient;
    }
    inletCentralUnloaded
    {
        type            zeroGradient;
    }
    outletFuelElement
    {
        type            zeroGradient;
    }
    inletFuelElement
    {
        type            zeroGradient;
    }
    defaultFaces
    {
        type            zeroGradient;
    }
}


// ************************************************************************* //
