/*--------------------------------*- C++ -*----------------------------------*\
| =========                 |                                                 |
| \\      /  F ield         | OpenFOAM: The Open Source CFD Toolbox           |
|  \\    /   O peration     | Version:  2212                                  |
|   \\  /    A nd           | Website:  www.openfoam.com                      |
|    \\/     M anipulation  |                                                 |
\*---------------------------------------------------------------------------*/
FoamFile
{
    version     2.0;
    format      ascii;
    arch        "LSB;label=32;scalar=64";
    class       volScalarField;
    location    "65/fluidRegion";
    object      alphat;
}
// * * * * * * * * * * * * * * * * * * * * * * * * * * * * * * * * * * * * * //

dimensions      [1 -1 -1 0 0 0 0];

internalField   nonuniform List<scalar> 
350
(
0.00258558
0.00258554
0.00258554
0.00258557
0.00258561
0.00258564
0.00258565
0.00258566
0.00258567
0.0025857
0.00258576
0.00258583
0.00258591
0.002586
0.00258612
0.00258629
0.00258656
0.00258699
0.00258766
0.0025887
0.0025903
0.00259275
0.0025965
0.00260224
0.00261102
0.00258558
0.00258554
0.00258554
0.00258557
0.00258561
0.00258564
0.00258565
0.00258566
0.00258567
0.0025857
0.00258576
0.00258583
0.00258591
0.002586
0.00258612
0.00258629
0.00258656
0.00258699
0.00258766
0.0025887
0.0025903
0.00259275
0.0025965
0.00260224
0.00261102
0.000895874
0.00088427
0.000872859
0.000861288
0.00084945
0.00083724
0.000824553
0.00081129
0.000797367
0.000782718
0.000767313
0.000751157
0.000734294
0.000716794
0.000698737
0.000680219
0.000661415
0.000642782
0.000625498
0.000612399
0.000609881
0.000631328
0.000699562
0.000832304
0.00100221
0.000888016
0.000876425
0.00086505
0.000853522
0.000841735
0.000829583
0.000816962
0.00080377
0.000789923
0.000775355
0.000760036
0.000743976
0.00072723
0.000709877
0.000692013
0.000673739
0.000655232
0.000636934
0.000620002
0.000607244
0.00060504
0.000626814
0.000695609
0.000829604
0.00100147
0.000897128
0.000885511
0.000874089
0.000862506
0.000850655
0.000838431
0.000825729
0.000812451
0.00079851
0.000783844
0.00076842
0.000752242
0.000735355
0.000717825
0.000699731
0.000681167
0.000662309
0.000643614
0.000626266
0.000613102
0.00061052
0.000631905
0.000700053
0.000832637
0.00100232
0.00088982
0.00087823
0.00086685
0.000855314
0.000843518
0.000831355
0.00081872
0.000805514
0.00079165
0.000777064
0.000761724
0.000745643
0.000728868
0.000711482
0.000693572
0.000675242
0.000656666
0.000638291
0.000621278
0.000608441
0.000606165
0.000627865
0.000696532
0.000830239
0.00100165
0.00088982
0.00087823
0.00086685
0.000855314
0.000843518
0.000831355
0.00081872
0.000805514
0.00079165
0.000777064
0.000761725
0.000745643
0.000728869
0.000711482
0.000693573
0.000675243
0.000656667
0.000638292
0.000621279
0.000608442
0.000606166
0.000627865
0.000696532
0.000830238
0.00100164
0.000897128
0.00088551
0.000874089
0.000862506
0.000850655
0.000838431
0.000825729
0.00081245
0.00079851
0.000783844
0.00076842
0.000752243
0.000735356
0.000717826
0.000699733
0.000681169
0.000662312
0.000643618
0.00062627
0.000613107
0.000610526
0.000631912
0.000700061
0.000832645
0.00100233
0.000888016
0.000876425
0.00086505
0.000853521
0.000841734
0.000829583
0.000816961
0.00080377
0.000789922
0.000775354
0.000760035
0.000743976
0.000727229
0.000709877
0.000692012
0.000673739
0.000655232
0.000636934
0.000620002
0.000607245
0.00060504
0.000626815
0.00069561
0.000829604
0.00100146
0.000895874
0.00088427
0.000872859
0.000861288
0.00084945
0.00083724
0.000824552
0.00081129
0.000797366
0.000782718
0.000767312
0.000751157
0.000734294
0.000716794
0.000698737
0.000680219
0.000661416
0.000642784
0.000625501
0.000612404
0.000609888
0.00063134
0.000699578
0.000832325
0.00100223
0.00088982
0.000878231
0.00086685
0.000855315
0.000843519
0.000831356
0.000818721
0.000805514
0.00079165
0.000777064
0.000761725
0.000745643
0.000728869
0.000711482
0.000693573
0.000675243
0.000656667
0.000638292
0.000621278
0.000608442
0.000606166
0.000627868
0.000696537
0.000830246
0.00100165
0.000897128
0.00088551
0.000874089
0.000862506
0.000850655
0.000838431
0.000825729
0.00081245
0.00079851
0.000783844
0.000768419
0.000752242
0.000735354
0.000717824
0.00069973
0.000681165
0.000662307
0.000643611
0.00062626
0.000613092
0.000610505
0.000631882
0.00070002
0.000832598
0.00100229
0.000897129
0.000885511
0.00087409
0.000862507
0.000850656
0.000838432
0.00082573
0.000812452
0.000798512
0.000783846
0.000768421
0.000752245
0.000735358
0.000717828
0.000699735
0.000681172
0.000662315
0.000643622
0.000626274
0.000613111
0.00061053
0.000631914
0.00070006
0.00083264
0.00100232
0.000889821
0.000878231
0.000866851
0.000855315
0.000843519
0.000831356
0.000818721
0.000805515
0.000791651
0.000777065
0.000761726
0.000745644
0.00072887
0.000711483
0.000693574
0.000675244
0.00065667
0.000638295
0.000621284
0.00060845
0.000606178
0.000627884
0.000696559
0.000830271
0.00100168
)
;

boundaryField
{
    outletCentralUnloaded
    {
        type            zeroGradient;
    }
    inletCentralUnloaded
    {
        type            zeroGradient;
    }
    outletFuelElement
    {
        type            zeroGradient;
    }
    inletFuelElement
    {
        type            zeroGradient;
    }
    defaultFaces
    {
        type            zeroGradient;
    }
    baffle_master
    {
        type            calculated;
        value           nonuniform List<scalar> 
150
(
0.00258558
0.00258558
0.00258558
0.00258554
0.00258554
0.00258554
0.00258554
0.00258554
0.00258554
0.00258557
0.00258557
0.00258557
0.00258561
0.00258561
0.00258561
0.00258564
0.00258564
0.00258564
0.00258565
0.00258565
0.00258565
0.00258566
0.00258566
0.00258566
0.00258567
0.00258567
0.00258567
0.0025857
0.0025857
0.0025857
0.00258576
0.00258576
0.00258576
0.00258583
0.00258583
0.00258583
0.00258591
0.00258591
0.00258591
0.002586
0.002586
0.002586
0.00258612
0.00258612
0.00258612
0.00258629
0.00258629
0.00258629
0.00258656
0.00258656
0.00258656
0.00258699
0.00258699
0.00258699
0.00258766
0.00258766
0.00258766
0.0025887
0.0025887
0.0025887
0.0025903
0.0025903
0.0025903
0.00259275
0.00259275
0.00259275
0.0025965
0.0025965
0.0025965
0.00260224
0.00260224
0.00260224
0.00261102
0.00261102
0.00261102
0.00258558
0.00258558
0.00258558
0.00258554
0.00258554
0.00258554
0.00258554
0.00258554
0.00258554
0.00258557
0.00258557
0.00258557
0.00258561
0.00258561
0.00258561
0.00258564
0.00258564
0.00258564
0.00258565
0.00258565
0.00258565
0.00258566
0.00258566
0.00258566
0.00258567
0.00258567
0.00258567
0.0025857
0.0025857
0.0025857
0.00258576
0.00258576
0.00258576
0.00258583
0.00258583
0.00258583
0.00258591
0.00258591
0.00258591
0.002586
0.002586
0.002586
0.00258612
0.00258612
0.00258612
0.00258629
0.00258629
0.00258629
0.00258656
0.00258656
0.00258656
0.00258699
0.00258699
0.00258699
0.00258766
0.00258766
0.00258766
0.0025887
0.0025887
0.0025887
0.0025903
0.0025903
0.0025903
0.00259275
0.00259275
0.00259275
0.0025965
0.0025965
0.0025965
0.00260224
0.00260224
0.00260224
0.00261102
0.00261102
0.00261102
)
;
    }
    baffle_slave
    {
        type            calculated;
        value           nonuniform List<scalar> 
150
(
0.000888016
0.00088982
0.000889821
0.000876425
0.00087823
0.000878231
0.00086505
0.00086685
0.000866851
0.000853522
0.000855314
0.000855315
0.000841735
0.000843518
0.000843519
0.000829583
0.000831355
0.000831356
0.000816962
0.00081872
0.000818721
0.00080377
0.000805514
0.000805515
0.000789923
0.00079165
0.000791651
0.000775355
0.000777064
0.000777065
0.000760036
0.000761724
0.000761726
0.000743976
0.000745643
0.000745644
0.00072723
0.000728868
0.00072887
0.000709877
0.000711482
0.000711483
0.000692013
0.000693572
0.000693574
0.000673739
0.000675242
0.000675244
0.000655232
0.000656666
0.00065667
0.000636934
0.000638291
0.000638295
0.000620002
0.000621278
0.000621284
0.000607244
0.000608441
0.00060845
0.00060504
0.000606165
0.000606178
0.000626814
0.000627865
0.000627884
0.000695609
0.000696532
0.000696559
0.000829604
0.000830239
0.000830271
0.00100147
0.00100165
0.00100168
0.00088982
0.000888016
0.00088982
0.00087823
0.000876425
0.000878231
0.00086685
0.00086505
0.00086685
0.000855314
0.000853521
0.000855315
0.000843518
0.000841734
0.000843519
0.000831355
0.000829583
0.000831356
0.00081872
0.000816961
0.000818721
0.000805514
0.00080377
0.000805514
0.00079165
0.000789922
0.00079165
0.000777064
0.000775354
0.000777064
0.000761725
0.000760035
0.000761725
0.000745643
0.000743976
0.000745643
0.000728869
0.000727229
0.000728869
0.000711482
0.000709877
0.000711482
0.000693573
0.000692012
0.000693573
0.000675243
0.000673739
0.000675243
0.000656667
0.000655232
0.000656667
0.000638292
0.000636934
0.000638292
0.000621279
0.000620002
0.000621278
0.000608442
0.000607245
0.000608442
0.000606166
0.00060504
0.000606166
0.000627865
0.000626815
0.000627868
0.000696532
0.00069561
0.000696537
0.000830238
0.000829604
0.000830246
0.00100164
0.00100146
0.00100165
)
;
    }
}


// ************************************************************************* //
