/*--------------------------------*- C++ -*----------------------------------*\
| =========                 |                                                 |
| \\      /  F ield         | OpenFOAM: The Open Source CFD Toolbox           |
|  \\    /   O peration     | Version:  2212                                  |
|   \\  /    A nd           | Website:  www.openfoam.com                      |
|    \\/     M anipulation  |                                                 |
\*---------------------------------------------------------------------------*/
FoamFile
{
    version     2.0;
    format      ascii;
    arch        "LSB;label=32;scalar=64";
    class       surfaceScalarField;
    location    "65/fluidRegion";
    object      alphaRhoPhi;
}
// * * * * * * * * * * * * * * * * * * * * * * * * * * * * * * * * * * * * * //

dimensions      [1 0 -1 0 0 0 0];

oriented        oriented;

internalField   nonuniform List<scalar> 
661
(
-0.00584923
-1.93715e-12
-0.00584926
-1.75463e-12
-0.00584933
-6.22989e-13
-0.00584943
5.75811e-13
-0.00584956
1.3956e-12
-0.00584971
1.72348e-12
-0.00584986
1.69603e-12
-0.00584999
1.58192e-12
-0.00585007
1.51407e-12
-0.0058501
1.4316e-12
-0.00585008
1.2135e-12
-0.00585
7.2555e-13
-0.00584987
1.06878e-13
-0.00584971
-4.90015e-13
-0.00584955
-8.69486e-13
-0.0058494
-1.01295e-12
-0.00584928
-1.08492e-12
-0.00584921
-1.24044e-12
-0.00584918
-1.56138e-12
-0.00584919
-1.96255e-12
-0.00584924
-2.27614e-12
-0.00584932
-2.31769e-12
-0.00584942
-1.84938e-12
-0.00584953
7.54697e-14
4.14915e-12
-0.00584923
-0.00584926
-0.00584933
-0.00584943
-0.00584956
-0.00584971
-0.00584986
-0.00584999
-0.00585007
-0.0058501
-0.00585008
-0.00585
-0.00584987
-0.00584971
-0.00584955
-0.0058494
-0.00584928
-0.00584921
-0.00584918
-0.00584919
-0.00584924
-0.00584932
-0.00584942
-0.00584953
-0.00939691
6.45842e-07
-0.00939714
3.1225e-07
-0.00939741
3.46727e-07
-0.00939766
3.21837e-07
-0.00939789
3.02499e-07
-0.0093981
2.8556e-07
-0.00939831
2.70735e-07
-0.0093985
2.56416e-07
-0.00939867
2.38653e-07
-0.00939883
2.09777e-07
-0.00939895
1.5757e-07
-0.009399
6.50369e-08
-0.00939892
-8.50292e-08
-0.00939866
-3.00284e-07
-0.00939816
-5.81118e-07
-0.00939735
-9.08862e-07
-0.00939621
-1.25749e-06
-0.00939473
-1.61046e-06
-0.00939289
-1.9794e-06
-0.00939062
-2.41447e-06
-0.00938776
-3.00773e-06
-0.00938405
-3.85579e-06
-0.00937921
-4.98849e-06
-0.00937347
-5.88414e-06
-7.19735e-06
-0.00931267
-1.97509e-08
-1.57293e-08
-0.00931222
-8.34754e-08
-8.09918e-08
-0.00931175
-8.14492e-08
-7.84834e-08
-0.00931131
-7.31202e-08
-6.98623e-08
-0.0093109
-6.61744e-08
-6.2555e-08
-0.00931053
-5.97708e-08
-5.57667e-08
-0.00931018
-5.38498e-08
-4.94205e-08
-0.00930986
-4.79775e-08
-4.30206e-08
-0.00930956
-4.10523e-08
-3.55095e-08
-0.00930932
-3.0873e-08
-2.46878e-08
-0.00930915
-1.3694e-08
-6.75483e-09
-0.00930913
1.55472e-08
2.32438e-08
-0.00930934
6.1226e-08
7.02801e-08
-0.0093099
1.31073e-07
1.41481e-07
-0.00931091
2.22982e-07
2.35064e-07
-0.00931246
3.32838e-07
3.4705e-07
-0.0093146
4.52901e-07
4.69899e-07
-0.00931734
5.7822e-07
5.98949e-07
-0.00932072
7.13041e-07
7.38867e-07
-0.00932486
8.74767e-07
9.07443e-07
-0.00933003
1.09391e-06
1.13497e-06
-0.00933667
1.39745e-06
1.44659e-06
-0.00934518
1.76576e-06
1.82161e-06
-0.00935484
1.89791e-06
1.95231e-06
1.85906e-06
1.89667e-06
-0.00941072
3.16141e-07
-0.00941105
3.03349e-07
-0.00941137
2.99116e-07
-0.00941166
2.7441e-07
-0.00941193
2.53233e-07
-0.00941217
2.34269e-07
-0.00941239
2.16943e-07
-0.0094126
1.9933e-07
-0.00941278
1.76858e-07
-0.00941292
1.40961e-07
-0.00941299
7.8116e-08
-0.00941295
-2.90858e-08
-0.00941272
-1.98154e-07
-0.00941221
-4.38915e-07
-0.00941133
-7.4903e-07
-0.00941001
-1.10828e-06
-0.00940819
-1.48968e-06
-0.00940588
-1.87808e-06
-0.00940302
-2.28949e-06
-0.0093995
-2.78065e-06
-0.00939511
-3.4466e-06
-0.00938947
-4.38133e-06
-0.00938228
-5.52657e-06
-0.00937425
-6.21838e-06
-6.49706e-06
-0.00933156
6.47206e-10
-0.00933129
-1.09979e-09
-0.00933103
-1.05053e-09
-0.00933078
-1.09811e-09
-0.00933056
-1.06382e-09
-0.00933035
-1.01317e-09
-0.00933016
-9.67818e-10
-0.00932998
-8.40647e-10
-0.00932983
-6.72406e-10
-0.0093297
-4.58343e-10
-0.00932964
-1.15755e-10
-0.00932966
3.85969e-10
-0.00932984
1.00561e-09
-0.00933025
1.7653e-09
-0.00933095
2.64606e-09
-0.00933199
3.64043e-09
-0.00933341
4.82113e-09
-0.00933521
6.26191e-09
-0.00933743
7.74314e-09
-0.00934013
9.32185e-09
-0.00934349
1.10154e-08
-0.0093478
1.2004e-08
-0.00935326
1.18474e-08
-0.00935943
1.03078e-08
5.04854e-09
-0.00933157
-3.14696e-07
-0.0093313
-3.0565e-07
-0.00933104
-3.01209e-07
-0.00933079
-2.76619e-07
-0.00933057
-2.55432e-07
-0.00933036
-2.36455e-07
-0.00933017
-2.19116e-07
-0.00932999
-2.01388e-07
-0.00932984
-1.78753e-07
-0.00932972
-1.42631e-07
-0.00932965
-7.93589e-08
-0.00932967
2.83209e-08
-0.00932986
1.98131e-07
-0.00933026
4.39741e-07
-0.00933096
7.50824e-07
-0.00933201
1.11118e-06
-0.00933342
1.49402e-06
-0.00933523
1.88434e-06
-0.00933744
2.29804e-06
-0.00934014
2.79215e-06
-0.0093435
3.46212e-06
-0.00934781
4.40097e-06
-0.00935327
5.54998e-06
-0.00935944
6.24291e-06
6.51583e-06
-0.00941073
1.72064e-08
-0.00941105
8.27988e-08
-0.00941137
8.04176e-08
-0.00941166
7.19207e-08
-0.00941193
6.48006e-08
-0.00941217
5.81754e-08
-0.0094124
5.19715e-08
-0.0094126
4.57692e-08
-0.00941278
3.8422e-08
-0.00941292
2.77318e-08
-0.00941299
9.99552e-09
-0.00941295
-1.98346e-08
-0.00941272
-6.64135e-08
-0.00941221
-1.37233e-07
-0.00941133
-2.30301e-07
-0.00941
-3.41498e-07
-0.00940819
-4.63048e-07
-0.00940587
-5.89912e-07
-0.00940301
-7.26557e-07
-0.00939949
-8.90174e-07
-0.00939509
-1.1113e-06
-0.00938945
-1.41653e-06
-0.00938226
-1.78602e-06
-0.00937423
-1.91477e-06
-1.85607e-06
-0.00931267
-6.45972e-07
-1.74316e-08
-0.00931222
-3.12497e-07
-8.05067e-08
-0.00931175
-3.47037e-07
-7.81791e-08
-0.00931131
-3.22182e-07
-6.95795e-08
-0.0093109
-3.0284e-07
-6.23809e-08
-0.00931053
-2.85912e-07
-5.57226e-08
-0.00931018
-2.71111e-07
-4.95252e-08
-0.00930986
-2.56794e-07
-4.33673e-08
-0.00930956
-2.39058e-07
-3.61569e-08
-0.00930932
-2.10209e-07
-2.5714e-08
-0.00930915
-1.57976e-07
-8.34944e-09
-0.00930913
-6.53717e-08
2.11405e-08
-0.00930934
8.48658e-08
6.71065e-08
-0.0093099
3.00265e-07
1.37085e-07
-0.00931091
5.81369e-07
2.29066e-07
-0.00931246
9.09609e-07
3.38867e-07
-0.0093146
1.25923e-06
4.58514e-07
-0.00931734
1.61413e-06
5.82716e-07
-0.00932072
1.98653e-06
7.15323e-07
-0.00932486
2.42792e-06
8.72928e-07
-0.00933003
3.03308e-06
1.08335e-06
-0.00933667
3.9004e-06
1.3716e-06
-0.00934518
5.06248e-06
1.71808e-06
-0.00935484
5.98874e-06
1.82683e-06
7.32649e-06
1.78638e-06
-0.00939691
-0.00939714
-0.00939741
-0.00939766
-0.00939789
-0.0093981
-0.00939831
-0.0093985
-0.00939867
-0.00939883
-0.00939895
-0.009399
-0.00939892
-0.00939866
-0.00939816
-0.00939735
-0.00939621
-0.00939473
-0.00939289
-0.00939062
-0.00938776
-0.00938405
-0.00937921
-0.00937347
-0.00933156
-3.19026e-07
2.60749e-09
-0.00933129
-3.06901e-07
1.33262e-09
-0.00933102
-3.03019e-07
1.65702e-09
-0.00933078
-2.78627e-07
1.86876e-09
-0.00933056
-2.57709e-07
2.07467e-09
-0.00933035
-2.3903e-07
2.32662e-09
-0.00933016
-2.22032e-07
2.64868e-09
-0.00932998
-2.04726e-07
3.01233e-09
-0.00932983
-1.82567e-07
3.47119e-09
-0.0093297
-1.46967e-07
4.04351e-09
-0.00932964
-8.42876e-08
4.73762e-09
-0.00932966
2.26459e-08
5.21276e-09
-0.00932984
1.91386e-07
6.371e-09
-0.00933025
4.31856e-07
7.61178e-09
-0.00933095
7.41487e-07
9.27194e-09
-0.00933199
1.09993e-06
1.15438e-08
-0.00933341
1.47998e-06
1.47008e-08
-0.00933521
1.86603e-06
1.92103e-08
-0.00933743
2.27268e-06
2.62255e-08
-0.00934013
2.75541e-06
3.69834e-08
-0.00934349
3.40565e-06
5.33757e-08
-0.0093478
4.31412e-06
7.63932e-08
-0.00935326
5.42012e-06
1.05997e-07
-0.00935943
6.07128e-06
1.27583e-07
6.3501e-06
1.11284e-07
-0.00941072
-0.00941105
-0.00941137
-0.00941166
-0.00941193
-0.00941217
-0.00941239
-0.0094126
-0.00941278
-0.00941292
-0.00941299
-0.00941295
-0.00941272
-0.00941221
-0.00941133
-0.00941
-0.00940819
-0.00940587
-0.00940301
-0.0093995
-0.00939511
-0.00938947
-0.00938228
-0.00937425
-0.00941073
3.13767e-07
-0.00941105
3.04619e-07
-0.00941137
3.00042e-07
-0.00941166
2.75337e-07
-0.00941193
2.54107e-07
-0.00941217
2.35048e-07
-0.0094124
2.17578e-07
-0.0094126
1.99756e-07
-0.00941278
1.76983e-07
-0.00941292
1.40691e-07
-0.00941299
7.73322e-08
-0.00941295
-3.01589e-08
-0.00941272
-2.0018e-07
-0.00941221
-4.41924e-07
-0.00941133
-7.53168e-07
-0.00941
-1.11368e-06
-0.00940819
-1.49646e-06
-0.00940587
-1.8861e-06
-0.00940301
-2.29834e-06
-0.00939949
-2.78863e-06
-0.00939509
-3.45204e-06
-0.00938945
-4.37969e-06
-0.00938227
-5.51064e-06
-0.00937423
-6.18079e-06
-6.41688e-06
-0.00933157
-0.0093313
-0.00933104
-0.00933079
-0.00933057
-0.00933036
-0.00933017
-0.00933
-0.00932984
-0.00932972
-0.00932965
-0.00932967
-0.00932986
-0.00933026
-0.00933096
-0.00933201
-0.00933342
-0.00933523
-0.00933744
-0.00934014
-0.0093435
-0.00934781
-0.00935328
-0.00935945
)
;

boundaryField
{
    outletCentralUnloaded
    {
        type            calculated;
        value           nonuniform List<scalar> 2(0.00584922 0.00584922);
    }
    inletCentralUnloaded
    {
        type            calculated;
        value           nonuniform List<scalar> 2(-0.0058737 -0.0058737);
    }
    outletFuelElement
    {
        type            calculated;
        value           nonuniform List<scalar> 
12
(
0.00939634
0.00931332
0.00941045
0.00933184
0.00933186
0.00941045
0.00931332
0.00939634
0.00933184
0.00941045
0.00941045
0.00933186
)
;
    }
    inletFuelElement
    {
        type            calculated;
        value           nonuniform List<scalar> 
12
(
-0.00953884
-0.00953884
-0.00953883
-0.00953883
-0.00953884
-0.00953884
-0.00953884
-0.00953884
-0.00953883
-0.00953883
-0.00953884
-0.00953884
)
;
    }
    defaultFaces
    {
        type            calculated;
        value           nonuniform List<scalar> 
450
(
5.54768e-24
-1.87713e-23
0
1.12915e-23
-4.80149e-24
0
8.27242e-24
4.3875e-24
0
-2.02885e-23
-1.27943e-23
0
-9.85589e-24
-2.0666e-23
0
-1.95127e-23
-9.70804e-24
0
-1.50206e-23
-2.51759e-24
0
-1.94977e-23
-1.04781e-23
0
-1.0641e-23
-5.18819e-24
0
-1.23459e-23
-5.44927e-24
0
-8.60476e-24
-7.82474e-24
0
-3.66773e-24
-1.7815e-24
0
6.5206e-24
4.48525e-24
0
1.93075e-23
1.02579e-23
0
3.53761e-23
7.37777e-24
0
5.89052e-23
4.53862e-23
0
6.01703e-23
1.24019e-23
0
1.26619e-22
6.94611e-23
0
9.41403e-23
-8.13086e-23
0
-4.34801e-23
-2.46811e-23
0
-1.06552e-22
-1.1099e-22
0
1.70795e-22
-1.608e-22
0
-1.91579e-22
1.82433e-22
0
-1.71453e-22
-1.04277e-22
0
-1.69162e-22
-1.38087e-22
0
1.11062e-23
0
1.13097e-23
0
3.86393e-24
0
7.9722e-24
0
-8.27862e-24
0
4.32758e-24
0
9.1127e-24
0
2.41642e-24
0
-1.29169e-24
0
4.17819e-24
0
1.51569e-24
0
-8.33206e-25
0
-3.70578e-24
0
-1.25164e-23
0
-1.90488e-23
0
-5.51865e-23
0
6.50285e-23
0
-6.2445e-23
0
3.82619e-23
0
-9.59951e-23
0
-9.2701e-23
0
2.04444e-22
0
5.53461e-23
0
-1.50001e-22
0
-1.92185e-22
0
7.29819e-24
-3.71545e-24
-3.80762e-24
-7.85508e-24
4.07805e-24
-4.26309e-24
-4.48801e-24
-2.37997e-24
5.08838e-24
-2.74304e-24
-2.98507e-24
4.10237e-25
3.64935e-24
0
9.38304e-24
0
-2.56498e-23
0
-3.77916e-23
-4.74605e-23
6.11937e-23
-8.11157e-23
-1.10036e-22
0
0
0
0
0
0
0
0
0
0
0
0
0
0
0
0
0
0
0
0
0
0
0
0
0
0
0
-7.40414e-24
3.70207e-24
3.7699e-24
7.53981e-24
1.15918e-23
2.31836e-23
-7.97219e-24
-7.97219e-24
6.20896e-24
-6.20896e-24
-6.49137e-24
-8.65516e-24
-6.83452e-24
-4.55634e-24
-4.83285e-24
-4.83285e-24
1.16252e-23
-2.58337e-24
-4.17819e-24
-2.78546e-24
-1.89461e-24
-7.57842e-25
1.66641e-24
1.14566e-24
3.70577e-24
3.70577e-24
1.25164e-23
8.34424e-24
9.52437e-24
1.90487e-23
4.41491e-23
3.31118e-23
-3.90171e-23
6.50284e-23
3.12224e-23
6.24449e-23
-1.91309e-22
1.33916e-22
-1.9199e-22
-7.19962e-23
0
-1.54501e-22
-2.04444e-22
2.45333e-22
-5.5346e-23
-1.66038e-22
0
-1.87501e-22
-2.88277e-22
-1.44138e-22
4.51681e-24
0
-1.47711e-23
1.37603e-24
0
-3.76039e-24
4.62307e-24
0
-3.08329e-23
-2.95547e-23
0
7.95184e-24
5.3581e-24
0
-8.25738e-24
-2.6957e-23
0
0
-2.49414e-23
0
4.54457e-24
-2.52703e-23
0
4.82032e-24
-6.75648e-24
0
-1.03066e-23
-1.63702e-23
0
2.77822e-24
-1.43588e-23
0
6.04698e-24
-5.54219e-24
0
8.31046e-25
7.76814e-24
-0
-1.84812e-24
2.42275e-23
-0
0
5.18667e-23
-0
-9.50072e-24
9.82462e-23
-0
-1.10107e-23
6.68086e-23
-0
0
1.66225e-22
-0
-3.11547e-23
9.85132e-23
-0
-3.81849e-23
-7.75402e-23
-0
4.79104e-23
-7.69489e-24
-0
1.23406e-22
1.67546e-22
-0
8.16721e-23
-1.84461e-22
-0
1.10588e-22
-7.81172e-23
-0
7.49601e-23
-2.11683e-22
-0
1.92152e-22
0
-3.71545e-24
0
-3.92754e-24
4.07805e-24
-4.26309e-24
-4.48801e-24
-4.75994e-24
-2.54419e-24
-2.74304e-24
-2.98507e-24
4.10237e-25
0
8.21833e-24
1.87661e-23
0
-5.12996e-23
6.16215e-23
-7.55831e-23
4.74605e-23
6.11937e-23
-1.62231e-22
-2.20072e-22
7.47476e-23
0
1.48083e-23
0
1.50796e-23
0
0
0
9.96524e-24
0
-8.27862e-24
0
6.49138e-24
0
9.1127e-24
0
7.24927e-24
0
0
0
4.17819e-24
0
2.65245e-24
0
-1.66641e-24
0
-3.70578e-24
-0
-1.66885e-23
-0
-1.90488e-23
-0
-1.10373e-23
-0
7.80342e-23
-0
-9.36674e-23
-0
1.53048e-22
-0
-9.59951e-23
-0
-1.85402e-22
-0
2.04444e-22
-0
0
-0
-2.25002e-22
-0
-1.92185e-22
-0
-1.342e-23
-3.70207e-24
-1.13097e-23
1.13097e-23
-7.72785e-24
1.15918e-23
-7.97219e-24
-1.99305e-23
2.06965e-24
6.20896e-24
-4.32758e-24
-1.73103e-23
-6.83452e-24
-1.13909e-23
-6.04106e-24
-1.20821e-23
0
-7.7501e-24
-3.48183e-24
-6.96365e-24
-1.13676e-24
-4.54705e-24
0
4.89508e-24
0
1.6676e-23
8.34424e-24
3.75491e-23
1.90487e-23
6.19084e-23
1.10373e-23
8.82983e-23
0
6.50285e-23
3.12224e-23
1.87335e-22
-3.82618e-23
1.14786e-22
0
-1.19994e-22
-6.18006e-23
-1.23601e-22
0
2.04444e-22
2.21384e-22
-2.21384e-22
7.50006e-23
-1.87501e-22
0
-2.40231e-22
-0
-0
-0
-0
-0
-0
-0
-0
-0
-0
-0
0
0
0
0
0
0
0
0
0
0
0
0
0
0
)
;
    }
    baffle_master
    {
        type            calculated;
        value           nonuniform List<scalar> 
150
(
-2.14661e-29
0
0
1.46285e-29
0
0
6.67138e-30
0
7.76568e-30
3.79357e-30
0
-7.76632e-30
1.14779e-28
0
6.21357e-29
8.12768e-30
0
-3.10704e-29
1.0053e-29
0
-3.1073e-29
1.4686e-29
0
-3.10755e-29
-2.52685e-30
0
0
-2.75867e-30
0
-3.10806e-29
1.95954e-30
0
0
1.11144e-29
0
-1.55429e-29
-2.32116e-30
0
0
2.02546e-30
0
0
6.14832e-30
0
-1.55467e-29
6.61929e-30
0
0
1.10427e-28
0
4.66479e-29
5.91987e-30
0
1.55506e-29
8.6839e-29
0
9.33115e-29
-1.53571e-29
0
0
-6.78198e-30
0
3.11091e-29
-1.33467e-28
0
-9.33353e-29
1.01078e-29
0
0
-8.08402e-31
0
-1.94481e-30
1.03604e-29
0
-6.22387e-29
0
-6.84676e-29
0
-3.10602e-29
-7.8446e-29
0
0
-2.4347e-29
0
0
1.127e-29
-0
-3.10678e-29
-4.37993e-29
-0
-3.10704e-29
5.12545e-29
-0
-3.1073e-29
6.66325e-29
-0
-3.10755e-29
6.96017e-29
-0
6.21561e-29
4.25482e-29
-0
0
8.85844e-29
-0
-1.55416e-29
5.39581e-29
-0
-1.55429e-29
1.78242e-29
-0
-1.94302e-30
1.9183e-30
-0
0
-1.56261e-29
0
1.55467e-29
-3.99381e-29
0
4.66441e-29
-4.07999e-29
0
-4.66479e-29
-3.47445e-29
0
1.55506e-29
-4.42771e-29
0
-6.22077e-29
6.77603e-30
0
3.11065e-29
2.16087e-29
0
0
6.06501e-29
0
-1.24447e-28
1.53543e-28
0
-6.22287e-29
-3.47308e-29
0
0
-1.28086e-30
-0
-6.22387e-29
-1.34942e-28
-0
)
;
    }
    baffle_slave
    {
        type            calculated;
        value           nonuniform List<scalar> 
150
(
-3.75026e-24
-0
7.29819e-24
-1.38846e-24
-0
3.71545e-24
-5.92854e-25
-0
-3.80762e-24
4.89201e-25
-0
0
-9.77762e-24
-0
-8.15609e-24
-1.32739e-25
-0
0
4.19213e-25
-0
0
3.26039e-24
-0
0
2.05948e-24
-0
2.54419e-24
1.36639e-24
-0
0
-2.23038e-24
-0
-1.49254e-24
4.08689e-25
0
0
0
0
-3.64935e-24
5.1172e-25
0
0
1.75282e-24
0
-1.87661e-23
6.77409e-24
0
-2.17556e-23
-8.30716e-23
0
-1.02599e-22
-1.15158e-23
0
0
-6.59306e-23
0
-7.55831e-23
-1.47895e-23
0
-9.4921e-23
-1.52604e-23
0
-6.11937e-23
1.72017e-22
0
8.11157e-23
5.15017e-24
0
-1.10036e-22
-2.10048e-23
0
0
-5.39858e-23
0
-1.91996e-22
-4.1976e-24
2.31266e-23
0
-5.41408e-24
8.90931e-24
0
4.69887e-24
9.01138e-24
0
-3.39377e-24
1.16185e-23
0
-5.05575e-24
-1.47299e-23
0
-7.95815e-24
8.89352e-24
0
-1.31619e-24
3.91266e-24
0
-3.42473e-24
6.37259e-24
0
5.10542e-24
6.25764e-24
0
-2.81252e-24
5.55095e-24
0
-1.07575e-24
5.43655e-24
0
2.25107e-25
3.47386e-24
0
3.80736e-24
-6.24865e-25
0
-4.22314e-24
-7.35597e-24
0
2.30682e-23
-1.17585e-23
0
-2.08861e-24
-1.89675e-23
0
-2.58129e-23
-2.1966e-23
0
-8.78638e-24
-4.12648e-23
0
-4.8291e-23
-7.65265e-24
0
5.54075e-23
4.21501e-23
0
1.37317e-23
6.10416e-23
0
-1.67109e-22
1.53044e-22
0
-1.07279e-22
-9.957e-23
0
-3.84579e-23
1.12026e-22
0
-3.06631e-23
9.29756e-23
0
)
;
    }
}


// ************************************************************************* //
