/*--------------------------------*- C++ -*----------------------------------*\
| =========                 |                                                 |
| \\      /  F ield         | OpenFOAM: The Open Source CFD Toolbox           |
|  \\    /   O peration     | Version:  2212                                  |
|   \\  /    A nd           | Website:  www.openfoam.com                      |
|    \\/     M anipulation  |                                                 |
\*---------------------------------------------------------------------------*/
FoamFile
{
    version     2.0;
    format      ascii;
    arch        "LSB;label=32;scalar=64";
    class       volScalarField;
    location    "65/fluidRegion";
    object      epsilon;
}
// * * * * * * * * * * * * * * * * * * * * * * * * * * * * * * * * * * * * * //

dimensions      [0 2 -3 0 0 0 0];

internalField   nonuniform List<scalar> 
350
(
66.9846
66.9684
66.9522
66.9359
66.9194
66.9028
66.8861
66.8695
66.8531
66.8369
66.8211
66.806
66.7916
66.7785
66.7669
66.7578
66.7521
66.7519
66.76
66.7812
66.8224
66.8945
67.0138
67.2051
67.5061
66.9846
66.9684
66.9522
66.9359
66.9194
66.9028
66.8861
66.8695
66.8531
66.8369
66.8211
66.806
66.7916
66.7785
66.7669
66.7578
66.7521
66.7519
66.76
66.7812
66.8224
66.8945
67.0138
67.2051
67.5061
7.65453e+06
7.04401e+06
6.36826e+06
5.64852e+06
4.91264e+06
4.18617e+06
3.49127e+06
2.84598e+06
2.2638e+06
1.75357e+06
1.31962e+06
962094
677439
459103
298330
185109
109161
60856.2
31884.8
15618.5
7152.1
3117.53
1385.8
735.661
547.113
7.82027e+06
7.19798e+06
6.50912e+06
5.77482e+06
5.02362e+06
4.28165e+06
3.57161e+06
2.91198e+06
2.31664e+06
1.79468e+06
1.35061e+06
984631
693180
469607
304989
189094
111396
62020.1
32440.3
15856.9
7241.74
3145.89
1392.98
737.106
547.536
7.62742e+06
7.01875e+06
6.34527e+06
5.62798e+06
4.89466e+06
4.17076e+06
3.47835e+06
2.8354e+06
2.25536e+06
1.74703e+06
1.31471e+06
958532
674958
457451
297284
184483
108810
60672.3
31796.2
15579.6
7136.89
3112.26
1384.17
735.172
546.938
7.78356e+06
7.16381e+06
6.47778e+06
5.74665e+06
4.99881e+06
4.26025e+06
3.55357e+06
2.89713e+06
2.30472e+06
1.78539e+06
1.34359e+06
979517
689601
467214
303470
188183
110885
61753.8
32313.2
15802.4
7221.3
3139.47
1391.39
736.806
547.456
7.78356e+06
7.16381e+06
6.47778e+06
5.74665e+06
4.99881e+06
4.26025e+06
3.55357e+06
2.89713e+06
2.30472e+06
1.78539e+06
1.34359e+06
979517
689601
467214
303470
188183
110885
61753.7
32313.1
15802.4
7221.29
3139.47
1391.39
736.806
547.457
7.62743e+06
7.01876e+06
6.34528e+06
5.62799e+06
4.89466e+06
4.17076e+06
3.47836e+06
2.83541e+06
2.25536e+06
1.74703e+06
1.31471e+06
958533
674959
457451
297284
184483
108810
60672.2
31796.1
15579.6
7136.85
3112.24
1384.16
735.167
546.936
7.82027e+06
7.19798e+06
6.50912e+06
5.77482e+06
5.02362e+06
4.28165e+06
3.57161e+06
2.91198e+06
2.31664e+06
1.79468e+06
1.35061e+06
984632
693181
469607
304989
189094
111396
62020.1
32440.3
15856.9
7241.74
3145.89
1392.98
737.106
547.537
7.65453e+06
7.04401e+06
6.36826e+06
5.64852e+06
4.91264e+06
4.18617e+06
3.49127e+06
2.84598e+06
2.2638e+06
1.75357e+06
1.31962e+06
962094
677439
459103
298330
185109
109161
60856.2
31884.8
15618.4
7152.08
3117.51
1385.79
735.656
547.109
7.78356e+06
7.16381e+06
6.47778e+06
5.74665e+06
4.9988e+06
4.26025e+06
3.55357e+06
2.89713e+06
2.30472e+06
1.78539e+06
1.34359e+06
979516
689601
467214
303470
188183
110885
61753.7
32313.2
15802.4
7221.29
3139.47
1391.39
736.804
547.455
7.62742e+06
7.01875e+06
6.34527e+06
5.62798e+06
4.89466e+06
4.17076e+06
3.47835e+06
2.8354e+06
2.25536e+06
1.74703e+06
1.31471e+06
958532
674958
457451
297284
184483
108810
60672.4
31796.2
15579.7
7136.94
3112.29
1384.19
735.183
546.945
7.62743e+06
7.01876e+06
6.34527e+06
5.62798e+06
4.89466e+06
4.17076e+06
3.47835e+06
2.83541e+06
2.25536e+06
1.74703e+06
1.31471e+06
958532
674958
457450
297284
184482
108809
60672.1
31796
15579.5
7136.84
3112.24
1384.16
735.168
546.937
7.78356e+06
7.16381e+06
6.47778e+06
5.74665e+06
4.9988e+06
4.26025e+06
3.55356e+06
2.89713e+06
2.30472e+06
1.78539e+06
1.34359e+06
979516
689600
467214
303470
188183
110885
61753.6
32313.1
15802.3
7221.25
3139.44
1391.37
736.797
547.452
)
;

boundaryField
{
    outletCentralUnloaded
    {
        type            zeroGradient;
    }
    inletCentralUnloaded
    {
        type            zeroGradient;
    }
    outletFuelElement
    {
        type            zeroGradient;
    }
    inletFuelElement
    {
        type            zeroGradient;
    }
    defaultFaces
    {
        type            zeroGradient;
    }
    baffle_master
    {
        type            zeroGradient;
    }
    baffle_slave
    {
        type            zeroGradient;
    }
}


// ************************************************************************* //
