/*--------------------------------*- C++ -*----------------------------------*\
| =========                 |                                                 |
| \\      /  F ield         | OpenFOAM: The Open Source CFD Toolbox           |
|  \\    /   O peration     | Version:  2212                                  |
|   \\  /    A nd           | Website:  www.openfoam.com                      |
|    \\/     M anipulation  |                                                 |
\*---------------------------------------------------------------------------*/
FoamFile
{
    version     2.0;
    format      ascii;
    arch        "LSB;label=32;scalar=64";
    class       volScalarField;
    location    "65/fluidRegion";
    object      p_rgh;
}
// * * * * * * * * * * * * * * * * * * * * * * * * * * * * * * * * * * * * * //

dimensions      [1 -1 -2 0 0 0 0];

internalField   nonuniform List<scalar> 
350
(
3.44743e+06
3.44772e+06
3.44802e+06
3.44831e+06
3.44861e+06
3.4489e+06
3.4492e+06
3.44949e+06
3.44979e+06
3.45008e+06
3.45038e+06
3.45067e+06
3.45097e+06
3.45127e+06
3.45157e+06
3.45186e+06
3.45216e+06
3.45245e+06
3.45275e+06
3.45305e+06
3.45334e+06
3.45364e+06
3.45393e+06
3.45423e+06
3.45451e+06
3.44743e+06
3.44772e+06
3.44802e+06
3.44831e+06
3.44861e+06
3.4489e+06
3.4492e+06
3.44949e+06
3.44979e+06
3.45008e+06
3.45038e+06
3.45067e+06
3.45097e+06
3.45127e+06
3.45157e+06
3.45186e+06
3.45216e+06
3.45245e+06
3.45275e+06
3.45305e+06
3.45334e+06
3.45364e+06
3.45393e+06
3.45423e+06
3.45451e+06
3.47385e+06
3.52569e+06
3.57693e+06
3.62724e+06
3.67633e+06
3.72391e+06
3.76973e+06
3.81354e+06
3.85514e+06
3.89434e+06
3.93098e+06
3.96492e+06
3.99606e+06
4.02431e+06
4.04963e+06
4.07202e+06
4.09151e+06
4.10821e+06
4.12224e+06
4.13379e+06
4.14306e+06
4.15026e+06
4.15564e+06
4.15949e+06
4.16217e+06
3.47385e+06
3.52569e+06
3.57693e+06
3.62724e+06
3.67633e+06
3.72391e+06
3.76973e+06
3.81354e+06
3.85514e+06
3.89434e+06
3.93098e+06
3.96492e+06
3.99606e+06
4.02431e+06
4.04963e+06
4.07202e+06
4.09151e+06
4.10821e+06
4.12224e+06
4.13379e+06
4.14306e+06
4.15026e+06
4.15564e+06
4.15949e+06
4.16217e+06
3.47385e+06
3.52569e+06
3.57693e+06
3.62724e+06
3.67633e+06
3.72391e+06
3.76973e+06
3.81354e+06
3.85514e+06
3.89434e+06
3.93098e+06
3.96492e+06
3.99606e+06
4.02431e+06
4.04963e+06
4.07202e+06
4.09151e+06
4.10821e+06
4.12224e+06
4.13379e+06
4.14306e+06
4.15026e+06
4.15564e+06
4.15949e+06
4.16217e+06
3.47385e+06
3.52569e+06
3.57693e+06
3.62724e+06
3.67633e+06
3.72391e+06
3.76973e+06
3.81354e+06
3.85514e+06
3.89434e+06
3.93098e+06
3.96492e+06
3.99606e+06
4.02431e+06
4.04963e+06
4.07202e+06
4.09151e+06
4.10821e+06
4.12224e+06
4.13379e+06
4.14306e+06
4.15026e+06
4.15564e+06
4.15949e+06
4.16217e+06
3.47385e+06
3.52569e+06
3.57693e+06
3.62724e+06
3.67633e+06
3.72391e+06
3.76973e+06
3.81354e+06
3.85514e+06
3.89434e+06
3.93098e+06
3.96492e+06
3.99606e+06
4.02431e+06
4.04963e+06
4.07202e+06
4.09151e+06
4.10821e+06
4.12224e+06
4.13379e+06
4.14306e+06
4.15026e+06
4.15564e+06
4.15949e+06
4.16217e+06
3.47385e+06
3.52569e+06
3.57693e+06
3.62724e+06
3.67633e+06
3.72391e+06
3.76973e+06
3.81354e+06
3.85514e+06
3.89434e+06
3.93098e+06
3.96492e+06
3.99606e+06
4.02431e+06
4.04963e+06
4.07202e+06
4.09151e+06
4.10821e+06
4.12224e+06
4.13379e+06
4.14306e+06
4.15026e+06
4.15564e+06
4.15949e+06
4.16217e+06
3.47385e+06
3.52569e+06
3.57693e+06
3.62724e+06
3.67633e+06
3.72391e+06
3.76973e+06
3.81354e+06
3.85514e+06
3.89434e+06
3.93098e+06
3.96492e+06
3.99606e+06
4.02431e+06
4.04963e+06
4.07202e+06
4.09151e+06
4.10821e+06
4.12224e+06
4.13379e+06
4.14306e+06
4.15026e+06
4.15564e+06
4.15949e+06
4.16217e+06
3.47385e+06
3.52569e+06
3.57693e+06
3.62724e+06
3.67633e+06
3.72391e+06
3.76973e+06
3.81354e+06
3.85514e+06
3.89434e+06
3.93098e+06
3.96492e+06
3.99606e+06
4.02431e+06
4.04963e+06
4.07202e+06
4.09151e+06
4.10821e+06
4.12224e+06
4.13379e+06
4.14306e+06
4.15026e+06
4.15564e+06
4.15949e+06
4.16217e+06
3.47385e+06
3.52569e+06
3.57693e+06
3.62724e+06
3.67633e+06
3.72391e+06
3.76973e+06
3.81354e+06
3.85514e+06
3.89434e+06
3.93098e+06
3.96492e+06
3.99606e+06
4.02431e+06
4.04963e+06
4.07202e+06
4.09151e+06
4.10821e+06
4.12224e+06
4.13379e+06
4.14306e+06
4.15026e+06
4.15564e+06
4.15949e+06
4.16217e+06
3.47385e+06
3.52569e+06
3.57693e+06
3.62724e+06
3.67633e+06
3.72391e+06
3.76973e+06
3.81354e+06
3.85514e+06
3.89434e+06
3.93098e+06
3.96492e+06
3.99606e+06
4.02431e+06
4.04963e+06
4.07202e+06
4.09151e+06
4.10821e+06
4.12224e+06
4.13379e+06
4.14306e+06
4.15026e+06
4.15564e+06
4.15949e+06
4.16217e+06
3.47385e+06
3.52569e+06
3.57693e+06
3.62724e+06
3.67633e+06
3.72391e+06
3.76973e+06
3.81354e+06
3.85514e+06
3.89434e+06
3.93098e+06
3.96492e+06
3.99606e+06
4.02431e+06
4.04963e+06
4.07202e+06
4.09151e+06
4.10821e+06
4.12224e+06
4.13379e+06
4.14306e+06
4.15026e+06
4.15564e+06
4.15949e+06
4.16217e+06
3.47385e+06
3.52569e+06
3.57693e+06
3.62724e+06
3.67633e+06
3.72391e+06
3.76973e+06
3.81354e+06
3.85514e+06
3.89434e+06
3.93098e+06
3.96492e+06
3.99606e+06
4.02431e+06
4.04963e+06
4.07202e+06
4.09151e+06
4.10821e+06
4.12224e+06
4.13379e+06
4.14306e+06
4.15026e+06
4.15564e+06
4.15949e+06
4.16217e+06
)
;

boundaryField
{
    outletCentralUnloaded
    {
        type            fixedValue;
        value           uniform 3.44728e+06;
    }
    inletCentralUnloaded
    {
        type            zeroGradient;
    }
    outletFuelElement
    {
        type            fixedValue;
        value           uniform 3.44728e+06;
    }
    inletFuelElement
    {
        type            zeroGradient;
    }
    defaultFaces
    {
        type            zeroGradient;
    }
    baffle_master
    {
        type            zeroGradient;
    }
    baffle_slave
    {
        type            zeroGradient;
    }
}


// ************************************************************************* //
