/*--------------------------------*- C++ -*----------------------------------*\
| =========                 |                                                 |
| \\      /  F ield         | OpenFOAM: The Open Source CFD Toolbox           |
|  \\    /   O peration     | Version:  2212                                  |
|   \\  /    A nd           | Website:  www.openfoam.com                      |
|    \\/     M anipulation  |                                                 |
\*---------------------------------------------------------------------------*/
FoamFile
{
    version     2.0;
    format      ascii;
    arch        "LSB;label=32;scalar=64";
    class       volScalarField;
    location    "65/fluidRegion";
    object      Re;
}
// * * * * * * * * * * * * * * * * * * * * * * * * * * * * * * * * * * * * * //

dimensions      [0 0 0 0 0 0 0];

internalField   nonuniform List<scalar> 
350
(
174020
174020
174022
174024
174028
174032
174036
174040
174043
174045
174045
174044
174041
174036
174032
174027
174023
174020
174019
174018
174019
174021
174024
174027
174392
174020
174020
174022
174024
174028
174032
174036
174040
174043
174045
174045
174044
174041
174036
174032
174027
174023
174020
174019
174018
174019
174021
174024
174027
174392
55431.8
55382.7
55383.9
55384.1
55383.1
55380.7
55376.8
55371.2
55363.7
55354.1
55342.2
55327.9
55311.4
55292.7
55271.5
55246.6
55216.4
55178.9
55133.2
55085.3
55054.6
55100.7
55367.8
56114
56605
54940.7
54884
54881.1
54877.1
54872.3
54866.3
54859.1
54850.4
54840
54827.8
54813.7
54798.3
54782.1
54766.3
54751.5
54737.8
54723.9
54708
54689.5
54674.6
54684.1
54781.1
55115.7
55952.2
56552.3
55513.9
55464.4
55466.1
55466.6
55465.8
55463.6
55459.8
55454.3
55446.9
55437.2
55425.1
55410.5
55393.4
55373.5
55350.5
55323.1
55289.4
55247.4
55196.4
55142.1
55103.6
55139.9
55394.6
56126.1
56606.9
55050.5
54996
54994.2
54991.4
54987.6
54982.7
54976.4
54968.6
54959.1
54947.6
54934.2
54919.2
54903.2
54886.9
54870.9
54854.8
54837.3
54816.7
54792.2
54769.9
54770.4
54855.9
55175.2
55991.2
56565.3
55050.5
54996
54994.2
54991.4
54987.6
54982.7
54976.4
54968.6
54959.1
54947.6
54934.2
54919.2
54903.2
54886.9
54870.9
54854.8
54837.3
54816.7
54792.2
54769.9
54770.4
54855.9
55175.2
55991.2
56565.4
55513.9
55464.4
55466.1
55466.6
55465.8
55463.6
55459.8
55454.3
55446.8
55437.2
55425.1
55410.5
55393.3
55373.5
55350.4
55323
55289.3
55247.4
55196.4
55142
55103.5
55139.7
55394.4
56126
56606.8
54940.7
54884
54881.1
54877.1
54872.3
54866.3
54859.1
54850.4
54840
54827.8
54813.7
54798.3
54782.1
54766.3
54751.5
54737.8
54723.9
54708
54689.5
54674.6
54684.1
54781.1
55115.7
55952.2
56552.3
55431.8
55382.7
55383.9
55384.1
55383.1
55380.7
55376.8
55371.2
55363.7
55354.1
55342.2
55327.9
55311.4
55292.7
55271.5
55246.6
55216.4
55178.9
55133.2
55085.3
55054.6
55100.7
55367.8
56114
56605
55050.5
54996
54994.2
54991.4
54987.6
54982.7
54976.4
54968.6
54959.1
54947.6
54934.2
54919.2
54903.2
54886.9
54870.9
54854.8
54837.3
54816.7
54792.2
54769.9
54770.4
54855.9
55175.2
55991.2
56565.3
55513.9
55464.4
55466.1
55466.6
55465.8
55463.6
55459.8
55454.3
55446.9
55437.2
55425.1
55410.5
55393.4
55373.5
55350.5
55323.1
55289.4
55247.4
55196.4
55142.1
55103.6
55139.8
55394.6
56126.1
56606.9
55513.9
55464.4
55466.1
55466.6
55465.8
55463.6
55459.8
55454.3
55446.8
55437.2
55425.1
55410.5
55393.3
55373.5
55350.4
55323
55289.3
55247.4
55196.4
55142
55103.5
55139.7
55394.4
56126
56606.8
55050.5
54996
54994.2
54991.4
54987.6
54982.7
54976.4
54968.6
54959.1
54947.6
54934.2
54919.2
54903.2
54886.9
54870.9
54854.8
54837.4
54816.7
54792.2
54769.9
54770.4
54855.9
55175.2
55991.2
56565.4
)
;

boundaryField
{
    outletCentralUnloaded
    {
        type            zeroGradient;
    }
    inletCentralUnloaded
    {
        type            zeroGradient;
    }
    outletFuelElement
    {
        type            zeroGradient;
    }
    inletFuelElement
    {
        type            zeroGradient;
    }
    defaultFaces
    {
        type            zeroGradient;
    }
    baffle_master
    {
        type            zeroGradient;
    }
    baffle_slave
    {
        type            zeroGradient;
    }
}


// ************************************************************************* //
