/*--------------------------------*- C++ -*----------------------------------*\
| =========                 |                                                 |
| \\      /  F ield         | OpenFOAM: The Open Source CFD Toolbox           |
|  \\    /   O peration     | Version:  2212                                  |
|   \\  /    A nd           | Website:  www.openfoam.com                      |
|    \\/     M anipulation  |                                                 |
\*---------------------------------------------------------------------------*/
FoamFile
{
    version     2.0;
    format      ascii;
    arch        "LSB;label=32;scalar=64";
    class       volScalarField;
    location    "65/fluidRegion";
    object      T;
}
// * * * * * * * * * * * * * * * * * * * * * * * * * * * * * * * * * * * * * //

dimensions      [0 0 0 1 0 0 0];

internalField   nonuniform List<scalar> 
350
(
83.2889
83.2894
83.2899
83.2904
83.2908
83.2913
83.2918
83.2923
83.2928
83.2933
83.2938
83.2942
83.2947
83.2952
83.2957
83.2962
83.2967
83.2971
83.2975
83.2978
83.2981
83.2984
83.2989
83.2994
83.2999
83.2889
83.2894
83.2899
83.2904
83.2908
83.2913
83.2918
83.2923
83.2928
83.2933
83.2938
83.2942
83.2947
83.2952
83.2957
83.2962
83.2967
83.2971
83.2975
83.2978
83.2981
83.2984
83.2989
83.2994
83.2999
1823.54
1817.37
1798.78
1768.01
1725.4
1671.44
1606.75
1532.08
1448.31
1356.45
1257.65
1153.23
1044.71
933.852
822.605
713.068
607.349
507.412
414.966
331.45
258.121
196.165
146.804
111.209
90.085
1851.79
1845.83
1827.25
1796.25
1753.21
1698.6
1633.06
1557.36
1472.36
1379.11
1278.74
1172.61
1062.24
949.4
836.092
724.466
616.698
514.823
420.611
335.542
260.898
197.875
147.708
111.573
90.1624
1818.95
1812.76
1794.2
1763.48
1720.96
1667.12
1602.58
1528.09
1444.53
1352.91
1254.36
1150.22
1042.01
931.468
820.548
711.34
605.941
506.303
414.128
330.847
257.716
195.917
146.674
111.156
90.0727
1845.44
1839.42
1820.82
1789.86
1746.9
1692.43
1627.07
1551.59
1466.87
1373.92
1273.91
1168.16
1058.21
945.821
832.983
721.835
614.537
513.108
419.304
334.594
260.254
197.478
147.498
111.489
90.1446
1845.44
1839.42
1820.82
1789.86
1746.9
1692.43
1627.07
1551.59
1466.87
1373.92
1273.91
1168.16
1058.21
945.821
832.983
721.835
614.537
513.108
419.304
334.594
260.254
197.478
147.498
111.489
90.1446
1818.95
1812.76
1794.2
1763.48
1720.96
1667.12
1602.58
1528.09
1444.53
1352.91
1254.36
1150.22
1042.01
931.469
820.549
711.341
605.942
506.304
414.129
330.848
257.717
195.918
146.674
111.156
90.0726
1851.79
1845.83
1827.25
1796.25
1753.21
1698.6
1633.06
1557.36
1472.36
1379.11
1278.74
1172.61
1062.24
949.4
836.092
724.466
616.698
514.823
420.611
335.542
260.898
197.875
147.708
111.573
90.1624
1823.54
1817.37
1798.78
1768.01
1725.4
1671.44
1606.75
1532.08
1448.31
1356.45
1257.65
1153.23
1044.71
933.852
822.605
713.068
607.349
507.412
414.966
331.45
258.121
196.165
146.804
111.209
90.085
1845.44
1839.42
1820.82
1789.86
1746.9
1692.43
1627.07
1551.59
1466.87
1373.92
1273.91
1168.16
1058.21
945.821
832.983
721.835
614.537
513.108
419.304
334.594
260.254
197.478
147.498
111.489
90.1446
1818.95
1812.76
1794.2
1763.48
1720.96
1667.12
1602.58
1528.09
1444.53
1352.91
1254.36
1150.22
1042.01
931.468
820.548
711.341
605.941
506.303
414.128
330.847
257.716
195.918
146.674
111.156
90.0727
1818.95
1812.76
1794.2
1763.48
1720.96
1667.12
1602.58
1528.09
1444.53
1352.91
1254.36
1150.22
1042.01
931.469
820.549
711.341
605.942
506.304
414.128
330.848
257.717
195.918
146.674
111.156
90.0726
1845.44
1839.42
1820.82
1789.86
1746.9
1692.43
1627.07
1551.59
1466.87
1373.92
1273.91
1168.16
1058.21
945.821
832.983
721.835
614.537
513.108
419.304
334.594
260.254
197.478
147.498
111.489
90.1446
)
;

boundaryField
{
    outletCentralUnloaded
    {
        type            zeroGradient;
    }
    inletCentralUnloaded
    {
        type            fixedValue;
        value           uniform 83.3;
    }
    outletFuelElement
    {
        type            zeroGradient;
    }
    inletFuelElement
    {
        type            fixedValue;
        value           uniform 83.3;
    }
    defaultFaces
    {
        type            zeroGradient;
    }
    baffle_master
    {
        type            zeroGradient;
    }
    baffle_slave
    {
        type            zeroGradient;
    }
}


// ************************************************************************* //
