/*--------------------------------*- C++ -*----------------------------------*\
| =========                 |                                                 |
| \\      /  F ield         | OpenFOAM: The Open Source CFD Toolbox           |
|  \\    /   O peration     | Version:  2212                                  |
|   \\  /    A nd           | Website:  www.openfoam.com                      |
|    \\/     M anipulation  |                                                 |
\*---------------------------------------------------------------------------*/
FoamFile
{
    version     2.0;
    format      ascii;
    arch        "LSB;label=32;scalar=64";
    class       volScalarField;
    location    "65/fluidRegion";
    object      Tcav.nuclearFuelPin;
}
// * * * * * * * * * * * * * * * * * * * * * * * * * * * * * * * * * * * * * //

dimensions      [0 0 0 1 0 0 0];

internalField   nonuniform List<scalar> 
350
(
0
0
0
0
0
0
0
0
0
0
0
0
0
0
0
0
0
0
0
0
0
0
0
0
0
0
0
0
0
0
0
0
0
0
0
0
0
0
0
0
0
0
0
0
0
0
0
0
0
0
1845.74
1883.83
1908.98
1921.18
1920.56
1907.39
1882.1
1845.25
1797.55
1739.86
1673.14
1598.5
1517.16
1430.46
1339.83
1246.74
1152.57
1058.4
964.621
870.406
772.842
665.634
538.029
377.918
186.904
1874.19
1912.9
1938.43
1950.79
1950.1
1936.64
1910.84
1873.27
1824.66
1765.87
1697.9
1621.84
1538.96
1450.6
1358.22
1263.32
1167.33
1071.38
975.929
880.183
781.23
672.69
543.597
381.536
188.127
1841.12
1879.13
1904.23
1916.43
1915.84
1902.73
1877.54
1840.82
1793.28
1735.78
1669.27
1594.86
1513.77
1427.34
1336.99
1244.19
1150.31
1056.42
962.898
868.923
771.578
664.581
537.21
377.39
186.718
1867.79
1906.34
1931.77
1944.08
1943.39
1929.98
1904.29
1866.87
1818.46
1759.91
1692.22
1616.48
1533.94
1445.96
1353.98
1259.49
1163.92
1068.38
973.314
877.922
779.289
671.056
542.307
380.696
187.844
1867.79
1906.34
1931.77
1944.08
1943.39
1929.98
1904.29
1866.87
1818.46
1759.91
1692.22
1616.48
1533.94
1445.96
1353.98
1259.49
1163.92
1068.38
973.314
877.922
779.289
671.056
542.307
380.696
187.844
1841.12
1879.13
1904.24
1916.43
1915.84
1902.74
1877.54
1840.82
1793.28
1735.78
1669.27
1594.86
1513.77
1427.34
1336.99
1244.19
1150.31
1056.42
962.899
868.923
771.578
664.582
537.211
377.391
186.718
1874.19
1912.9
1938.43
1950.79
1950.1
1936.64
1910.84
1873.27
1824.66
1765.87
1697.9
1621.84
1538.96
1450.6
1358.22
1263.32
1167.33
1071.38
975.929
880.183
781.23
672.69
543.598
381.536
188.127
1845.74
1883.83
1908.98
1921.18
1920.56
1907.39
1882.1
1845.25
1797.55
1739.86
1673.14
1598.5
1517.16
1430.46
1339.83
1246.74
1152.57
1058.4
964.621
870.406
772.842
665.634
538.03
377.918
186.904
1867.79
1906.34
1931.77
1944.08
1943.39
1929.98
1904.29
1866.87
1818.46
1759.91
1692.22
1616.48
1533.94
1445.96
1353.98
1259.49
1163.92
1068.38
973.314
877.922
779.289
671.056
542.307
380.696
187.844
1841.12
1879.13
1904.23
1916.43
1915.84
1902.73
1877.54
1840.82
1793.28
1735.78
1669.27
1594.86
1513.77
1427.34
1336.99
1244.19
1150.31
1056.42
962.898
868.923
771.578
664.581
537.211
377.39
186.718
1841.12
1879.13
1904.24
1916.43
1915.84
1902.74
1877.54
1840.82
1793.28
1735.78
1669.27
1594.86
1513.77
1427.34
1336.99
1244.19
1150.31
1056.42
962.899
868.923
771.578
664.582
537.211
377.391
186.718
1867.79
1906.34
1931.77
1944.08
1943.39
1929.98
1904.29
1866.87
1818.46
1759.91
1692.22
1616.48
1533.94
1445.96
1353.98
1259.49
1163.92
1068.38
973.314
877.922
779.289
671.056
542.307
380.696
187.844
)
;

boundaryField
{
    outletCentralUnloaded
    {
        type            zeroGradient;
    }
    inletCentralUnloaded
    {
        type            zeroGradient;
    }
    outletFuelElement
    {
        type            zeroGradient;
    }
    inletFuelElement
    {
        type            zeroGradient;
    }
    defaultFaces
    {
        type            zeroGradient;
    }
    baffle_master
    {
        type            zeroGradient;
    }
    baffle_slave
    {
        type            zeroGradient;
    }
}


// ************************************************************************* //
