/*--------------------------------*- C++ -*----------------------------------*\
| =========                 |                                                 |
| \\      /  F ield         | OpenFOAM: The Open Source CFD Toolbox           |
|  \\    /   O peration     | Version:  2212                                  |
|   \\  /    A nd           | Website:  www.openfoam.com                      |
|    \\/     M anipulation  |                                                 |
\*---------------------------------------------------------------------------*/
FoamFile
{
    version     2.0;
    format      ascii;
    arch        "LSB;label=32;scalar=64";
    class       volScalarField;
    location    "65/fluidRegion";
    object      Tci.nuclearFuelPin;
}
// * * * * * * * * * * * * * * * * * * * * * * * * * * * * * * * * * * * * * //

dimensions      [0 0 0 1 0 0 0];

internalField   nonuniform List<scalar> 
350
(
0
0
0
0
0
0
0
0
0
0
0
0
0
0
0
0
0
0
0
0
0
0
0
0
0
0
0
0
0
0
0
0
0
0
0
0
0
0
0
0
0
0
0
0
0
0
0
0
0
0
1851.84
1902.06
1939.05
1962.62
1972.72
1969.44
1953.06
1924
1882.86
1830.37
1767.43
1695.08
1614.51
1527.04
1434.12
1337.25
1237.89
1137.16
1035.59
932.462
825.007
707.085
568.113
396.16
193.018
1880.36
1931.34
1968.85
1992.71
2002.86
1999.4
1982.61
1952.93
1910.95
1857.43
1793.27
1719.53
1637.43
1548.29
1453.59
1354.87
1253.62
1151.05
1047.71
942.95
833.992
714.617
574.026
399.987
194.311
1847.21
1897.33
1934.26
1957.8
1967.9
1964.67
1948.37
1919.43
1878.44
1826.13
1763.39
1691.27
1610.95
1523.75
1431.11
1334.54
1235.47
1135.04
1033.74
930.865
823.647
705.957
567.239
395.599
192.82
1873.95
1924.74
1962.11
1985.89
1996.01
1992.58
1975.87
1946.32
1904.52
1851.23
1787.34
1713.92
1632.15
1543.4
1449.1
1350.81
1249.99
1147.84
1044.91
940.525
831.914
712.873
572.656
399.099
194.012
1873.95
1924.74
1962.11
1985.89
1996.01
1992.58
1975.87
1946.32
1904.52
1851.23
1787.34
1713.92
1632.15
1543.4
1449.1
1350.81
1249.99
1147.84
1044.91
940.525
831.914
712.874
572.656
399.099
194.012
1847.21
1897.33
1934.26
1957.8
1967.9
1964.67
1948.37
1919.43
1878.44
1826.13
1763.39
1691.27
1610.95
1523.75
1431.11
1334.54
1235.47
1135.04
1033.74
930.866
823.648
705.958
567.24
395.599
192.82
1880.36
1931.34
1968.85
1992.71
2002.86
1999.4
1982.61
1952.93
1910.95
1857.43
1793.27
1719.53
1637.43
1548.29
1453.59
1354.87
1253.62
1151.05
1047.71
942.95
833.992
714.617
574.026
399.987
194.311
1851.84
1902.06
1939.05
1962.62
1972.72
1969.44
1953.06
1924
1882.86
1830.37
1767.43
1695.08
1614.51
1527.04
1434.12
1337.25
1237.89
1137.16
1035.59
932.462
825.007
707.085
568.113
396.159
193.018
1873.95
1924.74
1962.11
1985.89
1996.01
1992.58
1975.87
1946.32
1904.52
1851.23
1787.34
1713.92
1632.15
1543.4
1449.1
1350.81
1249.99
1147.84
1044.91
940.525
831.914
712.874
572.656
399.099
194.012
1847.21
1897.33
1934.26
1957.8
1967.9
1964.67
1948.37
1919.43
1878.44
1826.13
1763.39
1691.27
1610.95
1523.75
1431.11
1334.54
1235.47
1135.04
1033.74
930.865
823.647
705.957
567.24
395.599
192.82
1847.21
1897.33
1934.26
1957.8
1967.9
1964.67
1948.37
1919.43
1878.44
1826.13
1763.39
1691.27
1610.95
1523.75
1431.11
1334.54
1235.47
1135.04
1033.74
930.866
823.648
705.958
567.24
395.599
192.82
1873.95
1924.73
1962.11
1985.89
1996.01
1992.58
1975.87
1946.32
1904.52
1851.23
1787.34
1713.92
1632.15
1543.4
1449.1
1350.81
1249.99
1147.84
1044.91
940.525
831.914
712.874
572.656
399.099
194.012
)
;

boundaryField
{
    outletCentralUnloaded
    {
        type            zeroGradient;
    }
    inletCentralUnloaded
    {
        type            zeroGradient;
    }
    outletFuelElement
    {
        type            zeroGradient;
    }
    inletFuelElement
    {
        type            zeroGradient;
    }
    defaultFaces
    {
        type            zeroGradient;
    }
    baffle_master
    {
        type            zeroGradient;
    }
    baffle_slave
    {
        type            zeroGradient;
    }
}


// ************************************************************************* //
