/*--------------------------------*- C++ -*----------------------------------*\
| =========                 |                                                 |
| \\      /  F ield         | OpenFOAM: The Open Source CFD Toolbox           |
|  \\    /   O peration     | Version:  2212                                  |
|   \\  /    A nd           | Website:  www.openfoam.com                      |
|    \\/     M anipulation  |                                                 |
\*---------------------------------------------------------------------------*/
FoamFile
{
    version     2.0;
    format      ascii;
    arch        "LSB;label=32;scalar=64";
    class       volScalarField;
    location    "65/fluidRegion";
    object      Tco.nuclearFuelPin;
}
// * * * * * * * * * * * * * * * * * * * * * * * * * * * * * * * * * * * * * //

dimensions      [0 0 0 1 0 0 0];

internalField   nonuniform List<scalar> 
350
(
0
0
0
0
0
0
0
0
0
0
0
0
0
0
0
0
0
0
0
0
0
0
0
0
0
0
0
0
0
0
0
0
0
0
0
0
0
0
0
0
0
0
0
0
0
0
0
0
0
0
1840.04
1866.81
1880.9
1882.49
1871.87
1849.46
1815.85
1771.73
1717.92
1655.36
1585.12
1508.34
1426.28
1340.29
1251.8
1162.24
1072.94
984.879
898.373
812.477
724.147
626.939
509.946
360.889
181.197
1868.43
1895.68
1910.03
1911.66
1900.85
1878.05
1843.84
1798.91
1744.12
1680.41
1608.87
1530.65
1447.04
1359.4
1269.18
1177.85
1086.78
997.018
908.922
821.591
731.976
633.552
515.193
364.312
182.355
1835.43
1862.14
1876.21
1877.81
1867.24
1844.92
1811.42
1767.43
1713.79
1651.43
1581.41
1504.86
1423.06
1337.34
1249.13
1159.85
1070.82
983.029
896.771
811.099
722.971
625.956
509.179
360.392
181.021
1862.04
1889.17
1903.45
1905.05
1894.27
1871.55
1837.46
1792.7
1738.12
1674.67
1603.42
1525.52
1442.26
1355
1265.18
1174.25
1083.58
994.212
906.482
819.482
730.164
632.02
513.976
363.517
182.087
1862.04
1889.17
1903.45
1905.05
1894.27
1871.55
1837.46
1792.7
1738.12
1674.67
1603.42
1525.52
1442.26
1355
1265.18
1174.25
1083.58
994.212
906.482
819.482
730.164
632.02
513.976
363.517
182.087
1835.43
1862.14
1876.21
1877.81
1867.24
1844.92
1811.42
1767.43
1713.79
1651.44
1581.41
1504.86
1423.06
1337.34
1249.13
1159.85
1070.82
983.03
896.772
811.1
722.971
625.957
509.179
360.393
181.021
1868.43
1895.68
1910.03
1911.66
1900.85
1878.05
1843.84
1798.91
1744.12
1680.41
1608.87
1530.65
1447.04
1359.4
1269.18
1177.85
1086.78
997.018
908.922
821.591
731.976
633.552
515.193
364.312
182.355
1840.04
1866.81
1880.9
1882.49
1871.87
1849.46
1815.85
1771.73
1717.92
1655.36
1585.12
1508.34
1426.28
1340.29
1251.8
1162.24
1072.94
984.879
898.373
812.477
724.147
626.939
509.947
360.889
181.197
1862.04
1889.17
1903.45
1905.05
1894.27
1871.55
1837.46
1792.7
1738.12
1674.67
1603.42
1525.52
1442.26
1355
1265.18
1174.25
1083.58
994.212
906.482
819.482
730.164
632.02
513.976
363.517
182.087
1835.43
1862.14
1876.21
1877.81
1867.24
1844.92
1811.42
1767.43
1713.79
1651.43
1581.41
1504.86
1423.06
1337.34
1249.13
1159.85
1070.82
983.029
896.771
811.1
722.971
625.957
509.179
360.392
181.021
1835.43
1862.14
1876.21
1877.81
1867.24
1844.92
1811.42
1767.43
1713.79
1651.44
1581.41
1504.86
1423.06
1337.34
1249.13
1159.85
1070.82
983.03
896.772
811.1
722.971
625.957
509.179
360.393
181.021
1862.04
1889.17
1903.45
1905.05
1894.27
1871.55
1837.46
1792.7
1738.12
1674.67
1603.42
1525.52
1442.26
1355
1265.18
1174.25
1083.58
994.212
906.482
819.482
730.164
632.02
513.976
363.517
182.087
)
;

boundaryField
{
    outletCentralUnloaded
    {
        type            zeroGradient;
    }
    inletCentralUnloaded
    {
        type            zeroGradient;
    }
    outletFuelElement
    {
        type            zeroGradient;
    }
    inletFuelElement
    {
        type            zeroGradient;
    }
    defaultFaces
    {
        type            zeroGradient;
    }
    baffle_master
    {
        type            zeroGradient;
    }
    baffle_slave
    {
        type            zeroGradient;
    }
}


// ************************************************************************* //
