/*--------------------------------*- C++ -*----------------------------------*\
| =========                 |                                                 |
| \\      /  F ield         | OpenFOAM: The Open Source CFD Toolbox           |
|  \\    /   O peration     | Version:  2212                                  |
|   \\  /    A nd           | Website:  www.openfoam.com                      |
|    \\/     M anipulation  |                                                 |
\*---------------------------------------------------------------------------*/
FoamFile
{
    version     2.0;
    format      ascii;
    arch        "LSB;label=32;scalar=64";
    class       volScalarField;
    location    "65/fluidRegion";
    object      Tfi.nuclearFuelPin;
}
// * * * * * * * * * * * * * * * * * * * * * * * * * * * * * * * * * * * * * //

dimensions      [0 0 0 1 0 0 0];

internalField   nonuniform List<scalar> 
350
(
0
0
0
0
0
0
0
0
0
0
0
0
0
0
0
0
0
0
0
0
0
0
0
0
0
0
0
0
0
0
0
0
0
0
0
0
0
0
0
0
0
0
0
0
0
0
0
0
0
0
2424.48
3612.91
4761.11
5851.37
6866.82
7791.69
8611.63
9313.88
9887.48
10323.5
10615.1
10757.8
10749.3
10589.8
10282
9830.63
9242.84
8527.45
7694.62
6755.28
5719.74
4596.56
3390.93
2107.83
766.677
2459.55
3661.77
4823.22
5925.99
6953.01
7888.34
8717.45
9427.45
10007.3
10447.8
10742.3
10886
10876.8
10714.9
10402.8
9945.53
9350.27
8625.99
7783.02
6832.47
5784.79
4648.65
3429.18
2131.27
774.54
2418.8
3605.06
4751.17
5839.46
6853.08
7776.31
8594.8
9295.83
9868.46
10303.8
10594.9
10737.4
10729
10570
10262.8
9812.42
9225.82
8511.85
7680.63
6743.06
5709.45
4588.34
3384.91
2104.15
765.434
2451.62
3650.66
4809.04
5908.92
6933.26
7866.17
8693.16
9401.35
9979.72
10419.2
10713
10856.5
10847.4
10686.1
10375
9919.07
9325.53
8603.29
7762.66
6814.69
5769.8
4636.65
3420.36
2125.86
772.729
2451.62
3650.66
4809.05
5908.92
6933.26
7866.17
8693.16
9401.35
9979.72
10419.2
10713
10856.5
10847.4
10686.1
10375
9919.07
9325.53
8603.29
7762.66
6814.69
5769.8
4636.65
3420.37
2125.86
772.729
2418.81
3605.06
4751.17
5839.46
6853.08
7776.31
8594.81
9295.83
9868.46
10303.8
10594.9
10737.4
10729
10570
10262.8
9812.42
9225.82
8511.85
7680.63
6743.06
5709.45
4588.34
3384.91
2104.15
765.434
2459.55
3661.77
4823.22
5925.99
6953.01
7888.34
8717.45
9427.44
10007.3
10447.8
10742.3
10886
10876.8
10714.9
10402.8
9945.53
9350.27
8625.99
7783.02
6832.47
5784.79
4648.65
3429.18
2131.27
774.54
2424.48
3612.91
4761.11
5851.37
6866.82
7791.69
8611.63
9313.87
9887.48
10323.5
10615.1
10757.8
10749.3
10589.8
10282
9830.63
9242.84
8527.45
7694.62
6755.28
5719.73
4596.56
3390.93
2107.83
766.678
2451.62
3650.66
4809.05
5908.92
6933.26
7866.17
8693.16
9401.35
9979.72
10419.2
10713
10856.5
10847.4
10686.1
10375
9919.07
9325.53
8603.29
7762.66
6814.69
5769.8
4636.65
3420.37
2125.87
772.729
2418.8
3605.06
4751.17
5839.46
6853.08
7776.31
8594.8
9295.83
9868.45
10303.8
10594.9
10737.4
10729
10570
10262.8
9812.42
9225.82
8511.84
7680.63
6743.06
5709.45
4588.34
3384.91
2104.15
765.434
2418.8
3605.06
4751.17
5839.46
6853.08
7776.31
8594.8
9295.83
9868.46
10303.8
10594.9
10737.4
10729
10570
10262.8
9812.42
9225.82
8511.85
7680.63
6743.06
5709.45
4588.34
3384.91
2104.15
765.434
2451.62
3650.66
4809.05
5908.92
6933.26
7866.17
8693.16
9401.35
9979.72
10419.2
10713
10856.5
10847.4
10686.1
10375
9919.07
9325.53
8603.29
7762.66
6814.69
5769.8
4636.65
3420.37
2125.86
772.729
)
;

boundaryField
{
    outletCentralUnloaded
    {
        type            zeroGradient;
    }
    inletCentralUnloaded
    {
        type            zeroGradient;
    }
    outletFuelElement
    {
        type            zeroGradient;
    }
    inletFuelElement
    {
        type            zeroGradient;
    }
    defaultFaces
    {
        type            zeroGradient;
    }
    baffle_master
    {
        type            zeroGradient;
    }
    baffle_slave
    {
        type            zeroGradient;
    }
}


// ************************************************************************* //
