/*--------------------------------*- C++ -*----------------------------------*\
| =========                 |                                                 |
| \\      /  F ield         | OpenFOAM: The Open Source CFD Toolbox           |
|  \\    /   O peration     | Version:  2212                                  |
|   \\  /    A nd           | Website:  www.openfoam.com                      |
|    \\/     M anipulation  |                                                 |
\*---------------------------------------------------------------------------*/
FoamFile
{
    version     2.0;
    format      ascii;
    arch        "LSB;label=32;scalar=64";
    class       volScalarField;
    location    "65/fluidRegion";
    object      Tfo.nuclearFuelPin;
}
// * * * * * * * * * * * * * * * * * * * * * * * * * * * * * * * * * * * * * //

dimensions      [0 0 0 1 0 0 0];

internalField   nonuniform List<scalar> 
350
(
0
0
0
0
0
0
0
0
0
0
0
0
0
0
0
0
0
0
0
0
0
0
0
0
0
0
0
0
0
0
0
0
0
0
0
0
0
0
0
0
0
0
0
0
0
0
0
0
0
0
2022.44
2411.67
2779.62
3120.89
3430.42
3703.59
3936.3
4125.05
4267
4360.01
4402.66
4394.35
4335.24
4226.33
4069.39
3866.95
3622.11
3338.31
3018.94
2666.75
2282.87
1865.54
1408.87
905.97
363.875
2052.91
2446.78
2819.04
3164.25
3477.26
3753.41
3988.57
4179.19
4322.4
4416.03
4458.68
4449.72
4389.32
4278.5
4119.05
3913.55
3665.16
3377.41
3053.78
2697.1
2308.55
1886.34
1424.42
915.637
367.125
2017.5
2406.01
2773.29
3113.96
3422.95
3695.66
3927.99
4116.46
4258.23
4351.14
4393.81
4385.61
4326.72
4218.11
4061.58
3859.62
3615.34
3332.17
3013.47
2661.99
2278.85
1862.3
1406.46
904.48
363.366
2046.05
2438.83
2810.09
3154.37
3466.57
3742.02
3976.6
4166.78
4309.69
4403.17
4445.81
4436.98
4376.88
4266.49
4107.61
3902.81
3655.23
3368.4
3045.75
2690.11
2302.63
1881.55
1420.83
913.405
366.376
2046.05
2438.83
2810.09
3154.37
3466.57
3742.02
3976.6
4166.78
4309.69
4403.17
4445.81
4436.98
4376.88
4266.49
4107.61
3902.81
3655.23
3368.4
3045.75
2690.11
2302.63
1881.55
1420.83
913.405
366.376
2017.5
2406.01
2773.29
3113.96
3422.95
3695.66
3927.99
4116.46
4258.23
4351.15
4393.81
4385.61
4326.72
4218.11
4061.58
3859.62
3615.34
3332.17
3013.47
2661.99
2278.85
1862.3
1406.47
904.48
363.366
2052.91
2446.78
2819.04
3164.25
3477.26
3753.41
3988.57
4179.19
4322.4
4416.03
4458.68
4449.72
4389.32
4278.5
4119.05
3913.55
3665.16
3377.41
3053.78
2697.1
2308.55
1886.34
1424.42
915.637
367.125
2022.44
2411.67
2779.62
3120.89
3430.42
3703.59
3936.3
4125.05
4267
4360.01
4402.66
4394.35
4335.24
4226.33
4069.39
3866.95
3622.11
3338.31
3018.94
2666.75
2282.87
1865.54
1408.87
905.97
363.875
2046.05
2438.83
2810.09
3154.37
3466.57
3742.02
3976.6
4166.78
4309.69
4403.17
4445.81
4436.98
4376.88
4266.49
4107.61
3902.81
3655.23
3368.4
3045.75
2690.11
2302.63
1881.55
1420.83
913.405
366.376
2017.5
2406.01
2773.29
3113.96
3422.95
3695.66
3927.99
4116.46
4258.23
4351.14
4393.81
4385.61
4326.72
4218.11
4061.58
3859.62
3615.34
3332.17
3013.47
2661.99
2278.85
1862.3
1406.47
904.479
363.366
2017.5
2406.01
2773.29
3113.96
3422.95
3695.66
3927.99
4116.46
4258.23
4351.15
4393.81
4385.61
4326.72
4218.11
4061.58
3859.62
3615.34
3332.17
3013.47
2661.99
2278.85
1862.3
1406.47
904.48
363.366
2046.05
2438.83
2810.09
3154.37
3466.57
3742.02
3976.6
4166.78
4309.69
4403.17
4445.81
4436.98
4376.88
4266.49
4107.61
3902.81
3655.23
3368.4
3045.75
2690.11
2302.63
1881.55
1420.83
913.405
366.376
)
;

boundaryField
{
    outletCentralUnloaded
    {
        type            zeroGradient;
    }
    inletCentralUnloaded
    {
        type            zeroGradient;
    }
    outletFuelElement
    {
        type            zeroGradient;
    }
    inletFuelElement
    {
        type            zeroGradient;
    }
    defaultFaces
    {
        type            zeroGradient;
    }
    baffle_master
    {
        type            zeroGradient;
    }
    baffle_slave
    {
        type            zeroGradient;
    }
}


// ************************************************************************* //
