/*--------------------------------*- C++ -*----------------------------------*\
| =========                 |                                                 |
| \\      /  F ield         | OpenFOAM: The Open Source CFD Toolbox           |
|  \\    /   O peration     | Version:  2212                                  |
|   \\  /    A nd           | Website:  www.openfoam.com                      |
|    \\/     M anipulation  |                                                 |
\*---------------------------------------------------------------------------*/
FoamFile
{
    version     2.0;
    format      ascii;
    arch        "LSB;label=32;scalar=64";
    class       scalarFieldField;
    location    "65/fluidRegion";
    object      Trad.nuclearFuelPin;
}
// * * * * * * * * * * * * * * * * * * * * * * * * * * * * * * * * * * * * * //


350
(
0()
0()
0()
0()
0()
0()
0()
0()
0()
0()
0()
0()
0()
0()
0()
0()
0()
0()
0()
0()
0()
0()
0()
0()
0()
0()
0()
0()
0()
0()
0()
0()
0()
0()
0()
0()
0()
0()
0()
0()
0()
0()
0()
0()
0()
0()
0()
0()
0()
0()

20
(
2424.48
2422.69
2417.33
2408.4
2395.9
2379.82
2360.17
2336.95
2310.15
2279.78
2245.83
2208.31
2167.21
2122.53
2074.28
2022.44
1851.84
1847.78
1843.85
1840.04
)


20
(
3612.91
3607.57
3591.56
3564.86
3527.5
3479.45
3420.73
3351.33
3271.25
3180.5
3079.06
2966.95
2844.15
2710.67
2566.51
2411.67
1902.06
1889.92
1878.18
1866.81
)


20
(
4761.11
4752.3
4725.89
4681.86
4620.21
4540.96
4444.09
4329.61
4197.52
4047.81
3880.49
3695.55
3492.99
3272.82
3035.03
2779.62
1939.05
1919.03
1899.66
1880.9
)


20
(
5851.37
5839.24
5802.83
5742.16
5657.21
5548
5414.52
5256.76
5074.73
4868.43
4637.86
4383.02
4103.9
3800.51
3472.84
3120.89
1962.62
1935.03
1908.34
1882.49
)


20
(
6866.82
6851.54
6805.73
6729.37
6622.46
6485.01
6317.01
6118.47
5889.38
5629.75
5339.57
5018.84
4667.56
4285.73
3873.35
3430.42
1972.72
1937.99
1904.4
1871.87
)


20
(
7791.69
7773.53
7719.02
7628.18
7500.99
7337.48
7137.62
6901.42
6628.89
6320.01
5974.79
5593.24
5175.34
4721.1
4230.51
3703.59
1969.44
1928.13
1888.17
1849.46
)


20
(
8611.63
8590.86
8528.52
8424.63
8279.18
8092.17
7863.6
7593.47
7281.79
6928.55
6533.74
6097.38
5619.45
5099.96
4538.91
3936.3
1953.06
1905.82
1860.11
1815.85
)


20
(
9313.88
9290.82
9221.63
9106.33
8944.9
8737.35
8483.68
8183.89
7837.97
7445.93
7007.77
6523.48
5993.06
5416.52
4793.85
4125.05
1924
1871.57
1820.85
1771.73
)


20
(
9887.48
9862.5
9787.56
9662.66
9487.81
9262.99
8988.22
8663.49
8288.79
7864.14
7389.52
6864.94
6290.4
5665.9
4991.43
4267
1882.86
1826.07
1771.13
1717.92
)


20
(
10323.5
10297
10217.5
10085
9899.43
9660.89
9369.35
9024.8
8627.24
8176.66
7673.08
7116.49
6506.89
5844.27
5128.65
4360.01
1830.37
1770.11
1711.82
1655.36
)


20
(
10615.1
10587.5
10504.7
10366.6
10173.3
9924.84
9621.12
9262.19
8848.03
8378.65
7854.05
7274.22
6639.17
5948.89
5203.39
4402.66
1767.43
1704.66
1643.93
1585.12
)


20
(
10757.8
10729.5
10644.6
10503.2
10305.3
10050.7
9739.63
9371.97
8947.74
8466.96
7929.6
7335.69
6685.2
5978.15
5214.53
4394.35
1695.08
1630.78
1568.58
1508.34
)


20
(
10749.3
10720.8
10635.2
10492.7
10293.2
10036.6
9723.03
9352.45
8924.85
8440.24
7898.61
7299.97
6644.31
5931.64
5161.95
4335.24
1614.51
1549.7
1487
1426.28
)


20
(
10589.8
10561.5
10476.7
10335.3
10137.3
9882.76
9571.66
9204
8779.77
8298.97
7761.62
7167.69
6517.2
5810.15
5046.52
4226.33
1527.04
1462.74
1400.54
1340.29
)


20
(
10282
10254.3
10171.5
10033.5
9840.18
9591.68
9287.96
8929.01
8514.85
8045.46
7520.84
6941
6305.94
5615.65
4870.14
4069.39
1434.12
1371.35
1310.62
1251.8
)


20
(
9830.63
9804.12
9724.61
9592.08
9406.55
9168
8876.45
8531.89
8134.31
7683.72
7180.13
6623.52
6013.9
5351.26
4635.61
3866.95
1337.25
1276.99
1218.7
1162.24
)


20
(
9242.84
9217.86
9142.92
9018.01
8843.15
8618.32
8343.54
8018.78
7644.07
7219.4
6744.76
6220.16
5645.59
5021.06
4346.57
3622.11
1237.89
1181.09
1126.15
1072.94
)


20
(
8527.45
8504.39
8435.2
8319.89
8158.45
7950.89
7697.2
7397.39
7051.45
6659.38
6221.19
5736.87
5206.42
4629.85
4007.14
3338.31
1137.16
1084.73
1034
984.879
)


20
(
7694.62
7673.84
7611.5
7507.6
7362.14
7175.11
6946.52
6676.38
6364.67
6011.39
5616.56
5180.16
4702.2
4182.68
3621.59
3018.94
1035.59
988.343
942.637
898.373
)


20
(
6755.28
6737.11
6682.6
6591.74
6464.54
6301
6101.12
5864.9
5592.33
5283.42
4938.17
4556.57
4138.63
3684.35
3193.72
2666.75
932.462
891.149
851.183
812.477
)


20
(
5719.74
5704.46
5658.64
5582.26
5475.34
5337.87
5169.84
4971.27
4742.15
4482.48
4192.25
3871.48
3520.15
3138.28
2725.85
2282.87
825.007
790.279
756.683
724.147
)


20
(
4596.56
4584.43
4548.01
4487.32
4402.36
4293.12
4159.61
4001.82
3819.75
3613.41
3382.79
3127.89
2848.72
2545.27
2217.54
1865.54
707.085
679.49
652.793
626.939
)


20
(
3390.93
3382.12
3355.7
3311.65
3249.99
3170.71
3073.81
2959.29
2827.15
2677.4
2510.02
2325.03
2122.42
1902.19
1664.34
1408.87
568.113
548.085
528.71
509.946
)


20
(
2107.83
2102.49
2086.47
2059.76
2022.37
1974.29
1915.54
1846.1
1765.97
1675.17
1573.68
1461.5
1338.64
1205.1
1060.88
905.97
396.16
384.015
372.267
360.889
)


20
(
766.677
764.887
759.516
750.565
738.033
721.921
702.228
678.955
652.101
621.667
587.653
550.058
508.883
464.127
415.791
363.875
193.018
188.948
185.01
181.197
)


20
(
2459.55
2457.74
2452.32
2443.29
2430.64
2414.38
2394.51
2371.02
2343.91
2313.2
2278.86
2240.91
2199.34
2154.15
2105.34
2052.91
1880.36
1876.25
1872.28
1868.43
)


20
(
3661.77
3656.37
3640.17
3613.17
3575.38
3526.79
3467.39
3397.2
3316.2
3224.41
3121.81
3008.41
2884.21
2749.2
2603.39
2446.78
1931.34
1919.06
1907.18
1895.68
)


20
(
4823.22
4814.32
4787.6
4743.06
4680.71
4600.55
4502.58
4386.78
4253.18
4101.75
3932.52
3745.46
3540.58
3317.89
3077.38
2819.04
1968.85
1948.6
1929.01
1910.03
)


20
(
5925.99
5913.72
5876.9
5815.53
5729.61
5619.15
5484.13
5324.57
5140.46
4931.8
4698.59
4440.83
4158.51
3851.64
3520.22
3164.25
1992.71
1964.8
1937.8
1911.66
)


20
(
6953.01
6937.56
6891.22
6813.99
6705.86
6566.83
6396.91
6196.09
5964.38
5701.77
5408.27
5083.87
4728.56
4342.36
3925.26
3477.26
2002.86
1967.74
1933.76
1900.85
)


20
(
7888.34
7869.96
7814.83
7722.95
7594.31
7428.92
7226.77
6987.87
6712.21
6399.8
6050.63
5664.7
5242.02
4782.58
4286.37
3753.41
1999.4
1957.62
1917.2
1878.05
)


20
(
8717.45
8696.44
8633.39
8528.3
8381.19
8192.04
7960.85
7687.63
7372.38
7015.09
6615.76
6174.4
5691
5165.56
4598.08
3988.57
1982.61
1934.83
1888.6
1843.84
)


20
(
9427.45
9404.12
9334.15
9217.52
9054.25
8844.32
8587.74
8284.52
7934.64
7538.11
7094.92
6605.08
6068.59
5485.45
4855.64
4179.19
1952.93
1899.9
1848.6
1798.91
)


20
(
10007.3
9981.99
9906.19
9779.86
9603.01
9375.62
9097.69
8769.24
8390.26
7960.74
7480.69
6950.1
6368.98
5737.32
5055.13
4322.4
1910.95
1853.51
1797.93
1744.12
)


20
(
10447.8
10421
10340.6
10206.6
10018.9
9777.64
9482.76
9134.26
8732.14
8276.41
7767.06
7204.09
6587.51
5917.3
5193.48
4416.03
1857.43
1796.48
1737.51
1680.41
)


20
(
10742.3
10714.3
10630.6
10490.9
10295.5
10044.1
9736.92
9373.87
8954.97
8480.21
7949.6
7363.13
6720.81
6022.62
5268.58
4458.68
1793.27
1729.78
1668.35
1608.87
)


20
(
10886
10857.4
10771.6
10628.6
10428.3
10170.9
9856.22
9484.35
9055.27
8568.98
8025.47
7424.75
6766.81
6051.66
5279.3
4449.72
1719.53
1654.5
1591.58
1530.65
)


20
(
10876.8
10848
10761.5
10617.3
10415.5
10156
9838.83
9464
9031.5
8541.34
7993.51
7388.01
6724.84
6004.01
5225.5
4389.32
1637.43
1571.87
1508.46
1447.04
)


20
(
10714.9
10686.2
10600.4
10457.4
10257.2
9999.71
9685.05
9313.18
8884.09
8397.79
7854.28
7253.55
6595.61
5880.45
5108.08
4278.5
1548.29
1483.25
1420.34
1359.4
)


20
(
10402.8
10374.8
10291.1
10151.4
9955.94
9704.59
9397.39
9034.33
8615.42
8140.66
7610.03
7023.55
6381.21
5683.02
4928.96
4119.05
1453.59
1390.1
1328.67
1269.18
)


20
(
9945.53
9918.72
9838.3
9704.25
9516.59
9275.32
8980.42
8631.91
8229.78
7774.04
7264.67
6701.69
6085.08
5414.86
4691.01
3913.55
1354.87
1293.92
1234.96
1177.85
)


20
(
9350.27
9325
9249.2
9122.87
8946
8718.6
8440.66
8112.19
7733.19
7303.65
6823.57
6292.96
5711.82
5080.13
4397.91
3665.16
1253.62
1196.17
1140.6
1086.78
)


20
(
8625.99
8602.66
8532.68
8416.05
8252.76
8042.82
7786.23
7482.98
7133.08
6736.52
6293.31
5803.44
5266.92
4683.74
4053.9
3377.41
1151.05
1098.01
1046.71
997.018
)


20
(
7783.02
7762
7698.95
7593.85
7446.72
7257.56
7026.35
6753.11
6437.83
6080.51
5681.15
5239.76
4756.32
4230.85
3663.33
3053.78
1047.71
999.923
953.693
908.922
)


20
(
6832.47
6814.09
6758.95
6667.05
6538.4
6372.99
6170.82
5931.89
5656.2
5343.75
4994.54
4608.57
4185.85
3726.36
3230.11
2697.1
942.95
901.164
860.74
821.591
)


20
(
5784.79
5769.34
5722.99
5645.74
5537.59
5398.55
5228.6
5027.75
4796
4533.36
4239.81
3915.36
3560.01
3173.76
2756.61
2308.55
833.992
798.866
764.885
731.976
)


20
(
4648.65
4636.37
4599.54
4538.16
4452.22
4341.73
4206.68
4047.09
3862.93
3654.23
3420.97
3163.15
2880.78
2573.86
2242.38
1886.34
714.617
686.705
659.702
633.552
)


20
(
3429.18
3420.27
3393.54
3348.99
3286.62
3206.43
3108.42
2992.59
2858.94
2707.47
2538.18
2351.07
2146.14
1923.38
1682.81
1424.42
574.026
553.769
534.171
515.193
)


20
(
2131.27
2125.86
2109.66
2082.64
2044.82
1996.2
1936.77
1866.53
1785.49
1693.64
1590.99
1477.53
1353.27
1218.2
1072.32
915.637
399.987
387.703
375.82
364.312
)


20
(
774.54
772.73
767.297
758.244
745.568
729.271
709.353
685.813
658.652
627.87
593.465
555.44
513.793
468.525
419.636
367.125
194.311
190.194
186.212
182.355
)


20
(
2418.8
2417.02
2411.67
2402.76
2390.28
2374.23
2354.62
2331.44
2304.69
2274.37
2240.48
2203.03
2162
2117.41
2069.24
2017.5
1847.21
1843.15
1839.23
1835.43
)


20
(
3605.06
3599.73
3583.74
3557.1
3519.8
3471.84
3413.23
3343.96
3264.02
3173.43
3072.18
2960.27
2837.7
2704.46
2560.57
2406.01
1897.33
1885.21
1873.49
1862.14
)


20
(
4751.17
4742.38
4716.01
4672.06
4610.53
4531.42
4434.73
4320.46
4188.6
4039.17
3872.15
3687.55
3485.36
3265.59
3028.23
2773.29
1934.26
1914.27
1894.93
1876.21
)


20
(
5839.46
5827.34
5791.01
5730.44
5645.65
5536.64
5403.4
5245.93
5064.23
4858.31
4628.16
4373.78
4095.17
3792.33
3465.26
3113.96
1957.8
1930.26
1903.61
1877.81
)


20
(
6853.08
6837.83
6792.1
6715.88
6609.17
6471.97
6304.28
6106.1
5877.43
5618.27
5328.61
5008.47
4657.83
4276.7
3865.07
3422.95
1967.9
1933.24
1899.71
1867.24
)


20
(
7776.31
7758.17
7703.77
7613.09
7486.14
7322.92
7123.42
6887.66
6615.62
6307.31
5962.72
5581.86
5164.72
4711.31
4221.62
3695.66
1964.67
1923.44
1883.55
1844.92
)


20
(
8594.8
8574.06
8511.84
8408.14
8262.95
8076.28
7848.13
7578.5
7267.38
6914.78
6520.7
6085.13
5608.08
5089.54
4529.51
3927.99
1948.37
1901.22
1855.6
1811.42
)


20
(
9295.83
9272.81
9203.75
9088.66
8927.53
8720.36
8467.15
8167.9
7822.62
7431.29
6993.92
6510.52
5981.07
5405.58
4784.04
4116.46
1919.43
1867.1
1816.47
1767.43
)


20
(
9868.46
9843.52
9768.72
9644.05
9469.52
9245.11
8970.84
8646.7
8272.69
7848.81
7375.06
6851.43
6277.94
5654.58
4981.34
4258.23
1878.44
1821.75
1766.91
1713.79
)


20
(
10303.8
10277.3
10197.9
10065.7
9880.46
9642.36
9351.35
9007.43
8610.59
8160.84
7658.18
7102.6
6494.11
5832.71
5118.38
4351.14
1826.13
1765.98
1707.79
1651.43
)


20
(
10594.9
10567.4
10484.7
10346.9
10154
9905.92
9602.76
9244.47
8831.07
8362.55
7838.9
7260.13
6626.24
5937.22
5193.08
4393.81
1763.39
1700.73
1640.11
1581.41
)


20
(
10737.4
10709.2
10624.5
10483.3
10285.7
10031.7
9721.14
9354.15
8930.7
8450.79
7914.42
7321.58
6672.29
5966.53
5204.3
4385.61
1691.27
1627.09
1565
1504.86
)


20
(
10729
10700.6
10615.2
10472.9
10273.8
10017.7
9704.68
9334.77
8907.95
8424.23
7883.59
7286.04
6631.58
5920.2
5151.92
4326.72
1610.95
1546.25
1483.67
1423.06
)


20
(
10570
10541.7
10457.1
10315.9
10118.3
9864.22
9553.69
9186.7
8763.25
8283.33
7746.95
7154.11
6504.81
5799.04
5036.81
4218.11
1523.75
1459.57
1397.47
1337.34
)


20
(
10262.8
10235.2
10152.6
10014.8
9821.84
9573.79
9270.63
8912.34
8498.92
8030.39
7506.73
6927.95
6294.04
5605.01
4860.86
4061.58
1431.11
1368.45
1307.83
1249.13
)


20
(
9812.42
9785.96
9706.59
9574.31
9389.12
9151.01
8859.98
8516.05
8119.2
7669.43
7166.76
6611.16
6002.65
5341.22
4626.88
3859.62
1334.54
1274.39
1216.2
1159.85
)


20
(
9225.82
9200.89
9126.08
9001.41
8826.86
8602.44
8328.16
8004
7629.97
7206.07
6732.3
6208.65
5635.13
5011.74
4338.48
3615.34
1235.47
1178.78
1123.93
1070.82
)


20
(
8511.85
8488.82
8419.76
8304.66
8143.52
7936.33
7683.11
7383.84
7038.53
6647.18
6209.79
5726.35
5196.87
4621.35
3999.78
3332.17
1135.04
1082.7
1032.06
983.029
)


20
(
7680.63
7659.88
7597.66
7493.94
7348.74
7162.06
6933.89
6664.23
6353.09
6000.46
5606.35
5170.75
4693.66
4175.08
3615.02
3013.47
1033.74
986.577
940.954
896.771
)


20
(
6743.06
6724.92
6670.51
6579.82
6452.86
6289.61
6090.1
5854.3
5582.24
5273.89
4929.27
4548.37
4131.19
3677.73
3188
2661.99
930.865
889.628
849.734
811.099
)


20
(
5709.45
5694.2
5648.46
5572.23
5465.5
5328.28
5160.56
4962.35
4733.64
4474.44
4184.75
3864.56
3513.88
3132.7
2721.02
2278.85
823.647
788.983
755.448
722.971
)


20
(
4588.34
4576.22
4539.88
4479.3
4394.49
4285.45
4152.18
3994.68
3812.94
3606.98
3376.78
3122.35
2843.68
2540.79
2213.66
1862.3
705.957
678.411
651.763
625.956
)


20
(
3384.91
3376.12
3349.74
3305.77
3244.22
3165.08
3068.36
2954.05
2822.16
2672.68
2505.61
2320.95
2118.71
1898.88
1661.47
1406.46
567.239
547.248
527.908
509.179
)


20
(
2104.15
2098.82
2082.82
2056.16
2018.84
1970.86
1912.21
1842.89
1762.91
1672.27
1570.97
1459
1336.36
1203.07
1059.11
904.48
395.599
383.477
371.75
360.392
)


20
(
765.434
763.647
758.286
749.351
736.842
720.759
701.102
677.872
651.067
620.688
586.736
549.209
508.109
463.435
415.188
363.366
192.82
188.758
184.828
181.021
)


20
(
2451.62
2449.82
2444.42
2435.41
2422.79
2406.58
2386.75
2363.33
2336.29
2305.66
2271.41
2233.56
2192.09
2147.02
2098.34
2046.05
1873.95
1869.85
1865.88
1862.04
)


20
(
3650.66
3645.27
3629.12
3602.19
3564.49
3516.02
3456.79
3386.77
3305.99
3214.44
3112.11
2999
2875.12
2740.47
2595.04
2438.83
1924.74
1912.49
1900.64
1889.17
)


20
(
4809.04
4800.16
4773.51
4729.09
4666.91
4586.95
4489.23
4373.74
4240.49
4089.46
3920.66
3734.09
3529.75
3307.64
3067.75
2810.09
1962.11
1941.91
1922.37
1903.45
)


20
(
5908.92
5896.68
5859.95
5798.74
5713.05
5602.88
5468.21
5309.07
5125.44
4917.32
4684.72
4427.62
4146.05
3839.98
3509.42
3154.37
1985.89
1958.06
1931.13
1905.05
)


20
(
6933.26
6917.85
6871.63
6794.6
6686.75
6548.09
6378.61
6178.32
5947.21
5685.29
5392.55
5068.99
4714.61
4329.42
3913.4
3466.57
1996.01
1960.98
1927.09
1894.27
)


20
(
7866.17
7847.84
7792.85
7701.21
7572.91
7407.95
7206.33
6968.05
6693.11
6381.51
6033.25
5648.33
5226.75
4768.5
4273.59
3742.02
1992.58
1950.91
1910.59
1871.55
)


20
(
8693.16
8672.2
8609.31
8504.5
8357.77
8169.11
7938.53
7666.02
7351.59
6995.23
6596.94
6156.73
5674.59
5150.52
4584.53
3976.6
1975.87
1928.22
1882.11
1837.46
)


20
(
9401.35
9378.09
9308.3
9191.98
9029.13
8819.75
8563.84
8261.4
7912.44
7516.94
7074.91
6586.35
6051.26
5469.63
4841.47
4166.78
1946.32
1893.43
1842.26
1792.7
)


20
(
9979.72
9954.52
9878.92
9752.92
9576.53
9349.73
9072.53
8744.94
8366.94
7938.54
7459.74
6930.54
6350.93
5720.92
5040.51
4309.69
1904.52
1847.23
1791.8
1738.12
)


20
(
10419.2
10392.5
10312.3
10178.6
9991.43
9750.79
9456.68
9109.09
8708.02
8253.48
7745.46
7183.96
6568.98
5900.52
5178.58
4403.17
1851.23
1790.44
1731.63
1674.67
)


20
(
10713
10685.2
10601.6
10462.3
10267.4
10016.7
9710.28
9348.18
8930.37
8456.85
7927.62
7342.68
6702.03
6005.67
5253.6
4445.81
1787.34
1724.01
1662.75
1603.42
)


20
(
10856.5
10828
10742.4
10599.7
10400
10143.2
9829.39
9458.49
9030.53
8545.5
8003.41
7404.26
6748.04
6034.75
5264.4
4436.98
1713.92
1649.05
1586.3
1525.52
)


20
(
10847.4
10818.7
10732.4
10588.6
10387.3
10128.5
9812.17
9438.32
9006.96
8518.07
7971.67
7367.75
6706.31
5987.35
5210.87
4376.88
1632.15
1566.77
1503.52
1442.26
)


20
(
10686.1
10657.5
10571.9
10429.3
10229.6
9972.79
9658.95
9288.04
8860.07
8375.04
7832.95
7233.78
6577.56
5864.27
5093.91
4266.49
1543.4
1478.53
1415.78
1355
)


20
(
10375
10347.1
10263.5
10124.3
9929.28
9678.59
9372.19
9010.08
8592.26
8118.73
7589.49
7004.54
6363.88
5667.5
4915.41
4107.61
1449.1
1385.77
1324.51
1265.18
)


20
(
9919.07
9892.33
9812.11
9678.42
9491.25
9250.61
8956.48
8608.88
8207.8
7753.24
7245.2
6683.68
6068.68
5400.21
4678.25
3902.81
1350.81
1290.01
1231.2
1174.25
)


20
(
9325.53
9300.33
9224.72
9098.72
8922.31
8695.5
8418.29
8090.68
7712.66
7284.24
6805.42
6276.19
5696.56
5066.52
4386.08
3655.23
1249.99
1192.69
1137.26
1083.58
)


20
(
8603.29
8580.03
8510.23
8393.9
8231.04
8021.65
7765.72
7463.26
7114.27
6718.75
6276.69
5788.1
5252.98
4671.32
4043.13
3368.4
1147.84
1094.94
1043.77
994.212
)


20
(
7762.66
7741.7
7678.81
7573.99
7427.24
7238.57
7007.96
6735.43
6420.97
6064.59
5666.27
5226.03
4743.85
4219.75
3653.71
3045.75
1044.91
997.245
951.136
906.482
)


20
(
6814.69
6796.36
6741.36
6649.71
6521.39
6356.41
6154.76
5916.45
5641.48
5329.85
4981.55
4596.59
4174.97
3716.68
3221.72
2690.11
940.525
898.848
858.529
819.482
)


20
(
5769.8
5754.39
5708.17
5631.12
5523.25
5384.57
5215.06
5014.74
4783.6
4521.63
4228.85
3905.25
3550.83
3165.58
2749.52
2302.63
831.914
796.88
762.987
730.164
)


20
(
4636.65
4624.4
4587.67
4526.45
4440.73
4330.53
4195.84
4036.66
3852.98
3644.82
3412.17
3155.03
2873.39
2567.27
2236.65
1881.55
712.873
685.034
658.102
632.02
)


20
(
3420.36
3411.48
3384.82
3340.38
3278.18
3198.2
3100.44
2984.92
2851.61
2700.54
2531.69
2345.07
2140.67
1918.5
1678.55
1420.83
572.656
552.452
532.906
513.976
)


20
(
2125.86
2120.48
2104.31
2077.37
2039.65
1991.15
1931.87
1861.82
1780.99
1689.38
1587
1473.83
1349.89
1215.18
1069.68
913.405
399.099
386.848
374.995
363.517
)


20
(
772.729
770.923
765.505
756.475
743.832
727.578
707.712
684.233
657.143
626.441
592.126
554.2
512.662
467.511
418.749
366.376
194.012
189.906
185.934
182.087
)


20
(
2451.62
2449.82
2444.42
2435.41
2422.79
2406.58
2386.75
2363.33
2336.29
2305.66
2271.41
2233.56
2192.09
2147.02
2098.34
2046.05
1873.95
1869.85
1865.88
1862.04
)


20
(
3650.66
3645.27
3629.12
3602.19
3564.49
3516.02
3456.79
3386.77
3305.99
3214.44
3112.11
2999
2875.12
2740.47
2595.04
2438.83
1924.74
1912.49
1900.64
1889.17
)


20
(
4809.05
4800.16
4773.51
4729.09
4666.91
4586.96
4489.23
4373.74
4240.49
4089.46
3920.66
3734.09
3529.75
3307.64
3067.75
2810.09
1962.11
1941.91
1922.37
1903.45
)


20
(
5908.92
5896.68
5859.95
5798.75
5713.05
5602.88
5468.21
5309.07
5125.44
4917.32
4684.72
4427.62
4146.05
3839.98
3509.42
3154.37
1985.89
1958.06
1931.13
1905.05
)


20
(
6933.26
6917.85
6871.63
6794.6
6686.75
6548.09
6378.61
6178.32
5947.21
5685.29
5392.54
5068.99
4714.61
4329.42
3913.4
3466.57
1996.01
1960.98
1927.09
1894.27
)


20
(
7866.17
7847.84
7792.85
7701.21
7572.91
7407.95
7206.33
6968.05
6693.11
6381.51
6033.25
5648.33
5226.75
4768.5
4273.59
3742.02
1992.58
1950.91
1910.59
1871.55
)


20
(
8693.16
8672.2
8609.31
8504.5
8357.77
8169.11
7938.53
7666.02
7351.59
6995.23
6596.94
6156.73
5674.59
5150.52
4584.53
3976.6
1975.87
1928.22
1882.11
1837.46
)


20
(
9401.35
9378.09
9308.3
9191.97
9029.13
8819.75
8563.84
8261.4
7912.44
7516.94
7074.91
6586.35
6051.26
5469.63
4841.47
4166.78
1946.32
1893.43
1842.26
1792.7
)


20
(
9979.72
9954.52
9878.92
9752.92
9576.53
9349.73
9072.53
8744.94
8366.94
7938.54
7459.74
6930.54
6350.93
5720.92
5040.5
4309.69
1904.52
1847.23
1791.8
1738.12
)


20
(
10419.2
10392.5
10312.3
10178.6
9991.43
9750.79
9456.68
9109.09
8708.02
8253.48
7745.46
7183.96
6568.98
5900.52
5178.58
4403.17
1851.23
1790.44
1731.63
1674.67
)


20
(
10713
10685.2
10601.6
10462.3
10267.4
10016.7
9710.28
9348.18
8930.37
8456.85
7927.62
7342.68
6702.03
6005.67
5253.59
4445.81
1787.34
1724.01
1662.75
1603.42
)


20
(
10856.5
10828
10742.4
10599.7
10400
10143.2
9829.39
9458.49
9030.53
8545.5
8003.41
7404.26
6748.04
6034.75
5264.4
4436.98
1713.92
1649.05
1586.3
1525.52
)


20
(
10847.4
10818.7
10732.4
10588.6
10387.3
10128.5
9812.17
9438.32
9006.95
8518.07
7971.67
7367.75
6706.31
5987.35
5210.87
4376.88
1632.15
1566.77
1503.52
1442.26
)


20
(
10686.1
10657.5
10571.9
10429.3
10229.6
9972.79
9658.95
9288.04
8860.07
8375.04
7832.94
7233.78
6577.56
5864.27
5093.91
4266.49
1543.4
1478.53
1415.78
1355
)


20
(
10375
10347.1
10263.5
10124.3
9929.28
9678.59
9372.19
9010.08
8592.26
8118.73
7589.49
7004.54
6363.88
5667.5
4915.41
4107.61
1449.1
1385.77
1324.51
1265.18
)


20
(
9919.07
9892.33
9812.11
9678.42
9491.25
9250.6
8956.48
8608.88
8207.8
7753.24
7245.2
6683.68
6068.68
5400.21
4678.25
3902.81
1350.81
1290.01
1231.2
1174.25
)


20
(
9325.53
9300.33
9224.72
9098.72
8922.31
8695.5
8418.29
8090.68
7712.66
7284.24
6805.42
6276.19
5696.56
5066.52
4386.08
3655.23
1249.99
1192.69
1137.26
1083.58
)


20
(
8603.29
8580.03
8510.23
8393.9
8231.04
8021.65
7765.72
7463.26
7114.27
6718.75
6276.69
5788.1
5252.98
4671.32
4043.13
3368.4
1147.84
1094.94
1043.77
994.212
)


20
(
7762.66
7741.7
7678.81
7573.99
7427.24
7238.57
7007.96
6735.43
6420.97
6064.59
5666.27
5226.03
4743.85
4219.75
3653.71
3045.75
1044.91
997.245
951.136
906.482
)


20
(
6814.69
6796.35
6741.36
6649.71
6521.39
6356.41
6154.76
5916.45
5641.48
5329.85
4981.55
4596.59
4174.97
3716.68
3221.72
2690.11
940.525
898.848
858.529
819.482
)


20
(
5769.8
5754.39
5708.16
5631.12
5523.25
5384.57
5215.06
5014.74
4783.6
4521.63
4228.85
3905.25
3550.82
3165.58
2749.52
2302.63
831.914
796.88
762.987
730.164
)


20
(
4636.65
4624.4
4587.67
4526.45
4440.73
4330.53
4195.84
4036.66
3852.98
3644.82
3412.17
3155.03
2873.39
2567.27
2236.65
1881.55
712.874
685.035
658.103
632.02
)


20
(
3420.37
3411.48
3384.82
3340.39
3278.18
3198.2
3100.44
2984.92
2851.62
2700.54
2531.69
2345.07
2140.67
1918.5
1678.55
1420.83
572.656
552.452
532.906
513.976
)


20
(
2125.86
2120.48
2104.31
2077.37
2039.65
1991.15
1931.87
1861.82
1780.99
1689.38
1587
1473.83
1349.89
1215.18
1069.68
913.405
399.099
386.848
374.995
363.517
)


20
(
772.729
770.923
765.505
756.475
743.833
727.578
707.712
684.233
657.143
626.441
592.126
554.2
512.662
467.512
418.75
366.376
194.012
189.906
185.934
182.087
)


20
(
2418.81
2417.02
2411.67
2402.76
2390.28
2374.23
2354.62
2331.44
2304.69
2274.37
2240.49
2203.03
2162.01
2117.41
2069.24
2017.5
1847.21
1843.16
1839.23
1835.43
)


20
(
3605.06
3599.73
3583.74
3557.1
3519.8
3471.85
3413.23
3343.96
3264.03
3173.43
3072.18
2960.27
2837.7
2704.47
2560.57
2406.01
1897.33
1885.21
1873.49
1862.14
)


20
(
4751.17
4742.38
4716.01
4672.06
4610.53
4531.42
4434.73
4320.46
4188.61
4039.17
3872.15
3687.55
3485.36
3265.59
3028.24
2773.29
1934.26
1914.27
1894.94
1876.21
)


20
(
5839.46
5827.35
5791.01
5730.44
5645.66
5536.64
5403.4
5245.93
5064.24
4858.31
4628.16
4373.78
4095.17
3792.33
3465.26
3113.96
1957.8
1930.26
1903.62
1877.81
)


20
(
6853.08
6837.83
6792.1
6715.88
6609.17
6471.97
6304.28
6106.1
5877.43
5618.27
5328.61
5008.47
4657.83
4276.7
3865.07
3422.95
1967.9
1933.24
1899.71
1867.24
)


20
(
7776.31
7758.17
7703.77
7613.09
7486.14
7322.92
7123.42
6887.66
6615.62
6307.31
5962.72
5581.86
5164.73
4711.31
4221.62
3695.66
1964.67
1923.44
1883.55
1844.92
)


20
(
8594.81
8574.06
8511.84
8408.14
8262.95
8076.29
7848.14
7578.5
7267.39
6914.79
6520.7
6085.13
5608.08
5089.54
4529.51
3927.99
1948.37
1901.22
1855.6
1811.42
)


20
(
9295.83
9272.81
9203.75
9088.66
8927.53
8720.36
8467.15
8167.9
7822.62
7431.29
6993.92
6510.52
5981.07
5405.58
4784.04
4116.46
1919.43
1867.1
1816.47
1767.43
)


20
(
9868.46
9843.52
9768.72
9644.05
9469.52
9245.11
8970.84
8646.7
8272.69
7848.81
7375.06
6851.44
6277.94
5654.58
4981.34
4258.23
1878.44
1821.75
1766.91
1713.79
)


20
(
10303.8
10277.3
10197.9
10065.7
9880.46
9642.36
9351.35
9007.43
8610.59
8160.84
7658.18
7102.61
6494.11
5832.71
5118.39
4351.15
1826.13
1765.98
1707.79
1651.44
)


20
(
10594.9
10567.4
10484.7
10346.9
10154
9905.92
9602.76
9244.48
8831.07
8362.55
7838.9
7260.13
6626.24
5937.22
5193.08
4393.81
1763.39
1700.73
1640.11
1581.41
)


20
(
10737.4
10709.2
10624.5
10483.3
10285.7
10031.7
9721.14
9354.15
8930.7
8450.79
7914.42
7321.59
6672.29
5966.53
5204.3
4385.61
1691.27
1627.09
1565
1504.86
)


20
(
10729
10700.6
10615.2
10472.9
10273.8
10017.7
9704.68
9334.77
8907.95
8424.23
7883.59
7286.04
6631.58
5920.2
5151.92
4326.72
1610.95
1546.26
1483.67
1423.06
)


20
(
10570
10541.7
10457.1
10315.9
10118.3
9864.22
9553.69
9186.7
8763.25
8283.33
7746.95
7154.11
6504.81
5799.04
5036.81
4218.11
1523.75
1459.57
1397.48
1337.34
)


20
(
10262.8
10235.2
10152.6
10014.8
9821.84
9573.79
9270.63
8912.34
8498.92
8030.39
7506.73
6927.95
6294.04
5605.02
4860.86
4061.58
1431.11
1368.45
1307.83
1249.13
)


20
(
9812.42
9785.96
9706.6
9574.31
9389.12
9151.01
8859.99
8516.05
8119.2
7669.44
7166.76
6611.16
6002.65
5341.23
4626.88
3859.62
1334.54
1274.39
1216.2
1159.85
)


20
(
9225.82
9200.89
9126.08
9001.41
8826.86
8602.44
8328.16
8004
7629.97
7206.07
6732.3
6208.65
5635.14
5011.75
4338.48
3615.34
1235.47
1178.78
1123.93
1070.82
)


20
(
8511.85
8488.83
8419.76
8304.66
8143.52
7936.33
7683.11
7383.84
7038.53
6647.18
6209.79
5726.35
5196.87
4621.35
3999.78
3332.17
1135.04
1082.7
1032.07
983.03
)


20
(
7680.63
7659.88
7597.66
7493.94
7348.74
7162.06
6933.89
6664.24
6353.09
6000.47
5606.35
5170.75
4693.66
4175.09
3615.02
3013.47
1033.74
986.578
940.955
896.772
)


20
(
6743.06
6724.92
6670.51
6579.82
6452.86
6289.62
6090.1
5854.31
5582.24
5273.89
4929.27
4548.37
4131.19
3677.73
3188
2661.99
930.866
889.629
849.735
811.1
)


20
(
5709.45
5694.2
5648.46
5572.23
5465.5
5328.28
5160.56
4962.35
4733.64
4474.44
4184.75
3864.56
3513.88
3132.7
2721.02
2278.85
823.648
788.983
755.448
722.971
)


20
(
4588.34
4576.23
4539.88
4479.3
4394.49
4285.45
4152.18
3994.68
3812.94
3606.98
3376.78
3122.35
2843.69
2540.79
2213.66
1862.3
705.958
678.412
651.764
625.957
)


20
(
3384.91
3376.12
3349.74
3305.77
3244.22
3165.09
3068.36
2954.05
2822.16
2672.68
2505.61
2320.95
2118.71
1898.88
1661.47
1406.47
567.24
547.249
527.909
509.179
)


20
(
2104.15
2098.82
2082.82
2056.16
2018.84
1970.86
1912.21
1842.89
1762.91
1672.27
1570.97
1459
1336.37
1203.07
1059.11
904.48
395.599
383.477
371.75
360.393
)


20
(
765.434
763.647
758.286
749.351
736.842
720.759
701.103
677.872
651.067
620.688
586.736
549.21
508.109
463.436
415.188
363.366
192.82
188.758
184.828
181.021
)


20
(
2459.55
2457.74
2452.32
2443.29
2430.64
2414.38
2394.51
2371.02
2343.91
2313.2
2278.86
2240.91
2199.34
2154.15
2105.34
2052.91
1880.36
1876.25
1872.28
1868.43
)


20
(
3661.77
3656.37
3640.17
3613.17
3575.38
3526.78
3467.39
3397.2
3316.2
3224.41
3121.81
3008.41
2884.21
2749.2
2603.39
2446.78
1931.34
1919.06
1907.18
1895.68
)


20
(
4823.22
4814.32
4787.6
4743.06
4680.71
4600.55
4502.58
4386.79
4253.18
4101.76
3932.52
3745.46
3540.58
3317.89
3077.38
2819.04
1968.85
1948.6
1929.01
1910.03
)


20
(
5925.99
5913.72
5876.9
5815.53
5729.61
5619.15
5484.14
5324.57
5140.46
4931.8
4698.59
4440.83
4158.51
3851.64
3520.22
3164.25
1992.71
1964.8
1937.8
1911.66
)


20
(
6953.01
6937.56
6891.22
6813.98
6705.85
6566.83
6396.91
6196.09
5964.38
5701.77
5408.27
5083.87
4728.56
4342.36
3925.26
3477.26
2002.86
1967.74
1933.76
1900.85
)


20
(
7888.34
7869.96
7814.83
7722.95
7594.31
7428.92
7226.77
6987.87
6712.21
6399.8
6050.63
5664.7
5242.02
4782.58
4286.37
3753.41
1999.4
1957.62
1917.2
1878.05
)


20
(
8717.45
8696.44
8633.39
8528.3
8381.19
8192.04
7960.85
7687.63
7372.38
7015.09
6615.76
6174.4
5691
5165.56
4598.08
3988.57
1982.61
1934.83
1888.6
1843.84
)


20
(
9427.44
9404.12
9334.14
9217.52
9054.24
8844.32
8587.74
8284.52
7934.64
7538.11
7094.92
6605.08
6068.59
5485.45
4855.64
4179.19
1952.93
1899.9
1848.6
1798.91
)


20
(
10007.3
9981.99
9906.19
9779.86
9603.01
9375.62
9097.69
8769.24
8390.26
7960.74
7480.69
6950.1
6368.98
5737.32
5055.13
4322.4
1910.95
1853.51
1797.93
1744.12
)


20
(
10447.8
10421
10340.6
10206.6
10018.9
9777.64
9482.76
9134.26
8732.14
8276.41
7767.06
7204.09
6587.51
5917.3
5193.48
4416.03
1857.43
1796.48
1737.51
1680.41
)


20
(
10742.3
10714.3
10630.6
10490.9
10295.5
10044.1
9736.92
9373.87
8954.97
8480.21
7949.6
7363.13
6720.81
6022.62
5268.58
4458.68
1793.27
1729.78
1668.35
1608.87
)


20
(
10886
10857.4
10771.6
10628.6
10428.3
10170.9
9856.22
9484.35
9055.27
8568.98
8025.47
7424.75
6766.81
6051.66
5279.3
4449.72
1719.53
1654.5
1591.58
1530.65
)


20
(
10876.8
10848
10761.5
10617.3
10415.5
10156
9838.82
9464
9031.5
8541.34
7993.51
7388.01
6724.84
6004.01
5225.5
4389.32
1637.43
1571.87
1508.46
1447.04
)


20
(
10714.9
10686.2
10600.4
10457.4
10257.2
9999.71
9685.05
9313.18
8884.09
8397.79
7854.28
7253.55
6595.61
5880.45
5108.08
4278.5
1548.29
1483.25
1420.34
1359.4
)


20
(
10402.8
10374.8
10291.1
10151.4
9955.94
9704.59
9397.39
9034.33
8615.42
8140.66
7610.03
7023.55
6381.21
5683.02
4928.96
4119.05
1453.59
1390.1
1328.67
1269.18
)


20
(
9945.53
9918.72
9838.3
9704.25
9516.59
9275.32
8980.42
8631.91
8229.78
7774.04
7264.67
6701.69
6085.08
5414.86
4691.01
3913.55
1354.87
1293.92
1234.96
1177.85
)


20
(
9350.27
9325
9249.2
9122.87
8946
8718.6
8440.66
8112.19
7733.19
7303.65
6823.57
6292.96
5711.82
5080.13
4397.91
3665.16
1253.62
1196.17
1140.6
1086.78
)


20
(
8625.99
8602.66
8532.68
8416.05
8252.76
8042.82
7786.23
7482.98
7133.07
6736.52
6293.31
5803.44
5266.92
4683.74
4053.9
3377.41
1151.05
1098.01
1046.71
997.018
)


20
(
7783.02
7762
7698.95
7593.85
7446.72
7257.56
7026.35
6753.11
6437.83
6080.51
5681.15
5239.76
4756.32
4230.85
3663.33
3053.78
1047.71
999.923
953.693
908.922
)


20
(
6832.47
6814.09
6758.95
6667.05
6538.4
6372.99
6170.82
5931.89
5656.2
5343.75
4994.54
4608.57
4185.85
3726.36
3230.11
2697.1
942.95
901.164
860.74
821.591
)


20
(
5784.79
5769.34
5722.99
5645.74
5537.59
5398.54
5228.6
5027.75
4796
4533.36
4239.81
3915.36
3560.01
3173.76
2756.61
2308.55
833.992
798.866
764.885
731.976
)


20
(
4648.65
4636.37
4599.54
4538.16
4452.22
4341.73
4206.69
4047.09
3862.94
3654.23
3420.97
3163.15
2880.78
2573.86
2242.38
1886.34
714.617
686.705
659.703
633.552
)


20
(
3429.18
3420.27
3393.54
3348.99
3286.62
3206.43
3108.42
2992.59
2858.94
2707.47
2538.18
2351.07
2146.14
1923.38
1682.81
1424.42
574.026
553.769
534.172
515.193
)


20
(
2131.27
2125.86
2109.65
2082.64
2044.82
1996.2
1936.77
1866.53
1785.49
1693.64
1590.99
1477.53
1353.27
1218.2
1072.32
915.637
399.987
387.703