/*--------------------------------*- C++ -*----------------------------------*\
| =========                 |                                                 |
| \\      /  F ield         | OpenFOAM: The Open Source CFD Toolbox           |
|  \\    /   O peration     | Version:  2212                                  |
|   \\  /    A nd           | Website:  www.openfoam.com                      |
|    \\/     M anipulation  |                                                 |
\*---------------------------------------------------------------------------*/
FoamFile
{
    version     2.0;
    format      ascii;
    arch        "LSB;label=32;scalar=64";
    class       volScalarField;
    location    "41/fluidRegion";
    object      epsilon;
}
// * * * * * * * * * * * * * * * * * * * * * * * * * * * * * * * * * * * * * //

dimensions      [0 2 -3 0 0 0 0];

internalField   nonuniform List<scalar> 
350
(
66.9827
66.966
66.9492
66.9323
66.9155
66.8987
66.882
66.8654
66.849
66.8329
66.8171
66.8017
66.7871
66.7736
66.7617
66.7524
66.7468
66.747
66.7559
66.7779
66.8201
66.893
67.013
67.205
67.5073
66.9827
66.966
66.9492
66.9323
66.9155
66.8987
66.882
66.8654
66.849
66.8329
66.8171
66.8017
66.7871
66.7736
66.7617
66.7524
66.7468
66.747
66.7559
66.7779
66.8201
66.893
67.013
67.205
67.5073
7.56052e+06
6.96172e+06
6.29763e+06
5.58886e+06
4.86309e+06
4.14574e+06
3.45889e+06
2.82056e+06
2.24428e+06
1.73894e+06
1.30896e+06
954553
672291
455725
296211
183845
108450
60481.7
31702.4
15537.9
7120.82
3107.48
1383.5
735.553
547.384
7.72378e+06
7.1135e+06
6.43659e+06
5.71354e+06
4.9727e+06
4.24009e+06
3.53831e+06
2.88584e+06
2.29656e+06
1.77963e+06
1.33963e+06
976867
687878
466128
302807
187794
110665
61635.1
32253
15774.3
7209.7
3135.62
1390.63
736.989
547.806
7.5338e+06
6.93681e+06
6.27493e+06
5.56858e+06
4.84532e+06
4.1305e+06
3.44611e+06
2.8101e+06
2.23593e+06
1.73247e+06
1.30409e+06
951025
669833
454087
295174
183225
108101
60299.1
31614.4
15499.3
7105.69
3102.23
1381.88
735.063
547.207
7.68762e+06
7.07982e+06
6.40566e+06
5.68573e+06
4.9482e+06
4.21895e+06
3.52048e+06
2.87115e+06
2.28477e+06
1.77044e+06
1.33269e+06
971803
684334
463758
301302
186892
110159
61371.2
32127
15720.2
7189.44
3129.25
1389.05
736.692
547.727
7.68762e+06
7.07982e+06
6.40567e+06
5.68573e+06
4.9482e+06
4.21895e+06
3.52048e+06
2.87115e+06
2.28477e+06
1.77044e+06
1.33269e+06
971803
684334
463758
301302
186892
110159
61371.2
32127
15720.2
7189.44
3129.25
1389.05
736.692
547.727
7.53382e+06
6.93683e+06
6.27494e+06
5.56859e+06
4.84533e+06
4.13051e+06
3.44612e+06
2.8101e+06
2.23593e+06
1.73247e+06
1.3041e+06
951027
669834
454088
295175
183225
108102
60299.2
31614.4
15499.3
7105.7
3102.23
1381.88
735.062
547.208
7.72378e+06
7.1135e+06
6.43659e+06
5.71354e+06
4.9727e+06
4.24009e+06
3.53831e+06
2.88584e+06
2.29656e+06
1.77963e+06
1.33963e+06
976867
687878
466128
302807
187794
110665
61635.1
32253
15774.3
7209.71
3135.62
1390.64
736.988
547.805
7.56052e+06
6.96172e+06
6.29763e+06
5.58886e+06
4.86309e+06
4.14574e+06
3.45889e+06
2.82056e+06
2.24428e+06
1.73894e+06
1.30896e+06
954553
672291
455725
296211
183845
108450
60481.7
31702.4
15537.9
7120.83
3107.49
1383.51
735.56
547.391
7.68762e+06
7.07982e+06
6.40566e+06
5.68573e+06
4.9482e+06
4.21895e+06
3.52048e+06
2.87115e+06
2.28477e+06
1.77044e+06
1.33269e+06
971803
684334
463758
301302
186892
110159
61371.2
32127
15720.2
7189.44
3129.25
1389.06
736.694
547.729
7.5338e+06
6.93681e+06
6.27493e+06
5.56858e+06
4.84532e+06
4.1305e+06
3.44611e+06
2.8101e+06
2.23593e+06
1.73247e+06
1.30409e+06
951025
669833
454087
295174
183225
108101
60299.1
31614.4
15499.3
7105.66
3102.21
1381.86
735.051
547.197
7.53382e+06
6.93683e+06
6.27494e+06
5.56859e+06
4.84533e+06
4.13051e+06
3.44612e+06
2.8101e+06
2.23593e+06
1.73247e+06
1.3041e+06
951027
669834
454088
295175
183225
108102
60299.3
31614.4
15499.3
7105.7
3102.23
1381.87
735.06
547.205
7.68762e+06
7.07982e+06
6.40567e+06
5.68573e+06
4.9482e+06
4.21895e+06
3.52048e+06
2.87115e+06
2.28477e+06
1.77044e+06
1.33269e+06
971803
684334
463758
301302
186892
110159
61371.2
32127
15720.3
7189.46
3129.26
1389.07
736.703
547.737
)
;

boundaryField
{
    outletCentralUnloaded
    {
        type            zeroGradient;
    }
    inletCentralUnloaded
    {
        type            zeroGradient;
    }
    outletFuelElement
    {
        type            zeroGradient;
    }
    inletFuelElement
    {
        type            zeroGradient;
    }
    defaultFaces
    {
        type            zeroGradient;
    }
    baffle_master
    {
        type            zeroGradient;
    }
    baffle_slave
    {
        type            zeroGradient;
    }
}


// ************************************************************************* //
