/*--------------------------------*- C++ -*----------------------------------*\
| =========                 |                                                 |
| \\      /  F ield         | OpenFOAM: The Open Source CFD Toolbox           |
|  \\    /   O peration     | Version:  2212                                  |
|   \\  /    A nd           | Website:  www.openfoam.com                      |
|    \\/     M anipulation  |                                                 |
\*---------------------------------------------------------------------------*/
FoamFile
{
    version     2.0;
    format      ascii;
    arch        "LSB;label=32;scalar=64";
    class       volScalarField;
    location    "41/fluidRegion";
    object      heatFlux.structure;
}
// * * * * * * * * * * * * * * * * * * * * * * * * * * * * * * * * * * * * * //

dimensions      [1 0 -3 0 0 0 0];

internalField   nonuniform List<scalar> 
350
(
-258285
-258290
-258298
-258307
-258316
-258325
-258334
-258341
-258347
-258352
-258355
-258355
-258355
-258352
-258348
-258344
-258341
-258338
-258337
-258338
-258341
-258346
-258353
-258361
-258801
-258285
-258290
-258298
-258307
-258316
-258325
-258334
-258341
-258347
-258352
-258355
-258355
-258355
-258352
-258348
-258344
-258341
-258338
-258337
-258338
-258341
-258346
-258353
-258361
-258801
421952
1.31448e+06
2.18594e+06
3.02261e+06
3.8113e+06
4.53958e+06
5.19598e+06
5.77015e+06
6.25305e+06
6.63707e+06
6.91616e+06
7.08594e+06
7.14374e+06
7.08865e+06
6.92155e+06
6.64508e+06
6.26359e+06
5.78309e+06
5.21112e+06
4.55679e+06
3.83038e+06
3.04354e+06
2.20891e+06
1.34027e+06
451535
426462
1.32922e+06
2.21067e+06
3.05694e+06
3.85467e+06
4.59131e+06
5.25524e+06
5.836e+06
6.32444e+06
6.71287e+06
6.99518e+06
7.16692e+06
7.22539e+06
7.16969e+06
7.00069e+06
6.72107e+06
6.33523e+06
5.84924e+06
5.27074e+06
4.60893e+06
3.87421e+06
3.07835e+06
2.23416e+06
1.35557e+06
456662
421233
1.31213e+06
2.182e+06
3.01714e+06
3.80439e+06
4.53134e+06
5.18654e+06
5.75966e+06
6.24168e+06
6.62499e+06
6.90358e+06
7.07305e+06
7.13074e+06
7.07575e+06
6.90895e+06
6.63298e+06
6.25218e+06
5.77255e+06
5.20163e+06
4.54849e+06
3.8234e+06
3.038e+06
2.20489e+06
1.33783e+06
450718
425421
1.32582e+06
2.20498e+06
3.04903e+06
3.84469e+06
4.5794e+06
5.24159e+06
5.82084e+06
6.308e+06
6.69542e+06
6.97699e+06
7.14828e+06
7.2066e+06
7.15104e+06
6.98247e+06
6.70358e+06
6.31874e+06
5.83401e+06
5.25701e+06
4.59693e+06
3.86412e+06
3.07034e+06
2.22835e+06
1.35205e+06
455482
425421
1.32582e+06
2.20498e+06
3.04903e+06
3.84469e+06
4.5794e+06
5.24159e+06
5.82084e+06
6.308e+06
6.69542e+06
6.97699e+06
7.14828e+06
7.2066e+06
7.15103e+06
6.98247e+06
6.70358e+06
6.31874e+06
5.83401e+06
5.25701e+06
4.59692e+06
3.86412e+06
3.07034e+06
2.22835e+06
1.35205e+06
455482
421233
1.31213e+06
2.182e+06
3.01714e+06
3.80439e+06
4.53134e+06
5.18654e+06
5.75966e+06
6.24168e+06
6.62499e+06
6.90358e+06
7.07305e+06
7.13074e+06
7.07575e+06
6.90895e+06
6.63298e+06
6.25218e+06
5.77255e+06
5.20163e+06
4.54849e+06
3.8234e+06
3.038e+06
2.20489e+06
1.33783e+06
450718
426462
1.32922e+06
2.21067e+06
3.05694e+06
3.85467e+06
4.59131e+06
5.25524e+06
5.836e+06
6.32444e+06
6.71287e+06
6.99518e+06
7.16692e+06
7.22539e+06
7.16969e+06
7.00069e+06
6.72107e+06
6.33523e+06
5.84924e+06
5.27074e+06
4.60893e+06
3.87421e+06
3.07836e+06
2.23416e+06
1.35557e+06
456662
421952
1.31448e+06
2.18594e+06
3.02261e+06
3.8113e+06
4.53958e+06
5.19598e+06
5.77015e+06
6.25305e+06
6.63707e+06
6.91616e+06
7.08594e+06
7.14374e+06
7.08865e+06
6.92155e+06
6.64508e+06
6.26359e+06
5.78309e+06
5.21112e+06
4.55679e+06
3.83038e+06
3.04354e+06
2.20892e+06
1.34027e+06
451535
425421
1.32582e+06
2.20498e+06
3.04903e+06
3.84469e+06
4.5794e+06
5.24159e+06
5.82084e+06
6.308e+06
6.69542e+06
6.97699e+06
7.14828e+06
7.2066e+06
7.15104e+06
6.98247e+06
6.70358e+06
6.31874e+06
5.83401e+06
5.25701e+06
4.59693e+06
3.86412e+06
3.07034e+06
2.22835e+06
1.35205e+06
455482
421233
1.31213e+06
2.182e+06
3.01714e+06
3.80439e+06
4.53134e+06
5.18654e+06
5.75966e+06
6.24168e+06
6.62499e+06
6.90358e+06
7.07305e+06
7.13073e+06
7.07575e+06
6.90895e+06
6.63298e+06
6.25218e+06
5.77255e+06
5.20163e+06
4.54849e+06
3.8234e+06
3.038e+06
2.20489e+06
1.33783e+06
450718
421233
1.31213e+06
2.182e+06
3.01714e+06
3.80439e+06
4.53134e+06
5.18654e+06
5.75966e+06
6.24168e+06
6.62499e+06
6.90358e+06
7.07305e+06
7.13074e+06
7.07575e+06
6.90895e+06
6.63298e+06
6.25218e+06
5.77255e+06
5.20163e+06
4.54849e+06
3.8234e+06
3.038e+06
2.20489e+06
1.33783e+06
450718
425421
1.32582e+06
2.20498e+06
3.04903e+06
3.84469e+06
4.5794e+06
5.24159e+06
5.82084e+06
6.308e+06
6.69542e+06
6.97699e+06
7.14828e+06
7.2066e+06
7.15104e+06
6.98247e+06
6.70358e+06
6.31874e+06
5.83401e+06
5.25701e+06
4.59693e+06
3.86412e+06
3.07034e+06
2.22835e+06
1.35205e+06
455482
)
;

boundaryField
{
    outletCentralUnloaded
    {
        type            zeroGradient;
    }
    inletCentralUnloaded
    {
        type            zeroGradient;
    }
    outletFuelElement
    {
        type            zeroGradient;
    }
    inletFuelElement
    {
        type            zeroGradient;
    }
    defaultFaces
    {
        type            zeroGradient;
    }
    baffle_master
    {
        type            zeroGradient;
    }
    baffle_slave
    {
        type            zeroGradient;
    }
}


// ************************************************************************* //
