/*--------------------------------*- C++ -*----------------------------------*\
| =========                 |                                                 |
| \\      /  F ield         | OpenFOAM: The Open Source CFD Toolbox           |
|  \\    /   O peration     | Version:  2212                                  |
|   \\  /    A nd           | Website:  www.openfoam.com                      |
|    \\/     M anipulation  |                                                 |
\*---------------------------------------------------------------------------*/
FoamFile
{
    version     2.0;
    format      ascii;
    arch        "LSB;label=32;scalar=64";
    class       volTensorField;
    location    "41/fluidRegion";
    object      Kd;
}
// * * * * * * * * * * * * * * * * * * * * * * * * * * * * * * * * * * * * * //

dimensions      [1 -3 -1 0 0 0 0];

internalField   nonuniform List<tensor> 
350
(
(84.7342 0 0 0 84.7342 0 0 0 84.7342)
(84.7349 0 0 0 84.7349 0 0 0 84.7349)
(84.7364 0 0 0 84.7364 0 0 0 84.7364)
(84.7383 0 0 0 84.7383 0 0 0 84.7383)
(84.7403 0 0 0 84.7403 0 0 0 84.7403)
(84.7423 0 0 0 84.7423 0 0 0 84.7423)
(84.7441 0 0 0 84.7441 0 0 0 84.7441)
(84.7455 0 0 0 84.7455 0 0 0 84.7455)
(84.7465 0 0 0 84.7465 0 0 0 84.7465)
(84.747 0 0 0 84.747 0 0 0 84.747)
(84.7469 0 0 0 84.7469 0 0 0 84.7469)
(84.7463 0 0 0 84.7463 0 0 0 84.7463)
(84.7451 0 0 0 84.7451 0 0 0 84.7451)
(84.7434 0 0 0 84.7434 0 0 0 84.7434)
(84.7415 0 0 0 84.7415 0 0 0 84.7415)
(84.7394 0 0 0 84.7394 0 0 0 84.7394)
(84.7374 0 0 0 84.7374 0 0 0 84.7374)
(84.7357 0 0 0 84.7357 0 0 0 84.7357)
(84.7345 0 0 0 84.7345 0 0 0 84.7345)
(84.7339 0 0 0 84.7339 0 0 0 84.7339)
(84.7339 0 0 0 84.7339 0 0 0 84.7339)
(84.7346 0 0 0 84.7346 0 0 0 84.7346)
(84.7359 0 0 0 84.7359 0 0 0 84.7359)
(84.7376 0 0 0 84.7376 0 0 0 84.7376)
(84.8721 0 0 0 84.8721 0 0 0 84.8721)
(84.7342 0 0 0 84.7342 0 0 0 84.7342)
(84.7349 0 0 0 84.7349 0 0 0 84.7349)
(84.7364 0 0 0 84.7364 0 0 0 84.7364)
(84.7383 0 0 0 84.7383 0 0 0 84.7383)
(84.7403 0 0 0 84.7403 0 0 0 84.7403)
(84.7423 0 0 0 84.7423 0 0 0 84.7423)
(84.7441 0 0 0 84.7441 0 0 0 84.7441)
(84.7455 0 0 0 84.7455 0 0 0 84.7455)
(84.7465 0 0 0 84.7465 0 0 0 84.7465)
(84.747 0 0 0 84.747 0 0 0 84.747)
(84.7469 0 0 0 84.7469 0 0 0 84.7469)
(84.7463 0 0 0 84.7463 0 0 0 84.7463)
(84.7451 0 0 0 84.7451 0 0 0 84.7451)
(84.7434 0 0 0 84.7434 0 0 0 84.7434)
(84.7415 0 0 0 84.7415 0 0 0 84.7415)
(84.7394 0 0 0 84.7394 0 0 0 84.7394)
(84.7374 0 0 0 84.7374 0 0 0 84.7374)
(84.7357 0 0 0 84.7357 0 0 0 84.7357)
(84.7345 0 0 0 84.7345 0 0 0 84.7345)
(84.7339 0 0 0 84.7339 0 0 0 84.7339)
(84.7339 0 0 0 84.7339 0 0 0 84.7339)
(84.7346 0 0 0 84.7346 0 0 0 84.7346)
(84.7359 0 0 0 84.7359 0 0 0 84.7359)
(84.7376 0 0 0 84.7376 0 0 0 84.7376)
(84.8721 0 0 0 84.8721 0 0 0 84.8721)
(682.249 0 0 0 682.249 0 0 0 682.249)
(681.769 0 0 0 681.769 0 0 0 681.769)
(681.781 0 0 0 681.781 0 0 0 681.781)
(681.784 0 0 0 681.784 0 0 0 681.784)
(681.775 0 0 0 681.775 0 0 0 681.775)
(681.753 0 0 0 681.753 0 0 0 681.753)
(681.718 0 0 0 681.718 0 0 0 681.718)
(681.667 0 0 0 681.667 0 0 0 681.667)
(681.598 0 0 0 681.598 0 0 0 681.598)
(681.509 0 0 0 681.509 0 0 0 681.509)
(681.399 0 0 0 681.399 0 0 0 681.399)
(681.268 0 0 0 681.268 0 0 0 681.268)
(681.117 0 0 0 681.117 0 0 0 681.117)
(680.944 0 0 0 680.944 0 0 0 680.944)
(680.748 0 0 0 680.748 0 0 0 680.748)
(680.519 0 0 0 680.519 0 0 0 680.519)
(680.241 0 0 0 680.241 0 0 0 680.241)
(679.894 0 0 0 679.894 0 0 0 679.894)
(679.474 0 0 0 679.474 0 0 0 679.474)
(679.035 0 0 0 679.035 0 0 0 679.035)
(678.757 0 0 0 678.757 0 0 0 678.757)
(679.191 0 0 0 679.191 0 0 0 679.191)
(681.661 0 0 0 681.661 0 0 0 681.661)
(688.504 0 0 0 688.504 0 0 0 688.504)
(692.923 0 0 0 692.923 0 0 0 692.923)
(677.725 0 0 0 677.725 0 0 0 677.725)
(677.173 0 0 0 677.173 0 0 0 677.173)
(677.146 0 0 0 677.146 0 0 0 677.146)
(677.109 0 0 0 677.109 0 0 0 677.109)
(677.064 0 0 0 677.064 0 0 0 677.064)
(677.009 0 0 0 677.009 0 0 0 677.009)
(676.942 0 0 0 676.942 0 0 0 676.942)
(676.862 0 0 0 676.862 0 0 0 676.862)
(676.766 0 0 0 676.766 0 0 0 676.766)
(676.653 0 0 0 676.653 0 0 0 676.653)
(676.523 0 0 0 676.523 0 0 0 676.523)
(676.38 0 0 0 676.38 0 0 0 676.38)
(676.232 0 0 0 676.232 0 0 0 676.232)
(676.086 0 0 0 676.086 0 0 0 676.086)
(675.95 0 0 0 675.95 0 0 0 675.95)
(675.823 0 0 0 675.823 0 0 0 675.823)
(675.695 0 0 0 675.695 0 0 0 675.695)
(675.549 0 0 0 675.549 0 0 0 675.549)
(675.379 0 0 0 675.379 0 0 0 675.379)
(675.244 0 0 0 675.244 0 0 0 675.244)
(675.338 0 0 0 675.338 0 0 0 675.338)
(676.244 0 0 0 676.244 0 0 0 676.244)
(679.341 0 0 0 679.341 0 0 0 679.341)
(687.023 0 0 0 687.023 0 0 0 687.023)
(692.441 0 0 0 692.441 0 0 0 692.441)
(683.006 0 0 0 683.006 0 0 0 683.006)
(682.522 0 0 0 682.522 0 0 0 682.522)
(682.538 0 0 0 682.538 0 0 0 682.538)
(682.543 0 0 0 682.543 0 0 0 682.543)
(682.537 0 0 0 682.537 0 0 0 682.537)
(682.517 0 0 0 682.517 0 0 0 682.517)
(682.483 0 0 0 682.483 0 0 0 682.483)
(682.432 0 0 0 682.432 0 0 0 682.432)
(682.364 0 0 0 682.364 0 0 0 682.364)
(682.275 0 0 0 682.275 0 0 0 682.275)
(682.164 0 0 0 682.164 0 0 0 682.164)
(682.03 0 0 0 682.03 0 0 0 682.03)
(681.872 0 0 0 681.872 0 0 0 681.872)
(681.689 0 0 0 681.689 0 0 0 681.689)
(681.477 0 0 0 681.477 0 0 0 681.477)
(681.224 0 0 0 681.224 0 0 0 681.224)
(680.913 0 0 0 680.913 0 0 0 680.913)
(680.527 0 0 0 680.527 0 0 0 680.527)
(680.057 0 0 0 680.057 0 0 0 680.057)
(679.558 0 0 0 679.558 0 0 0 679.558)
(679.208 0 0 0 679.208 0 0 0 679.208)
(679.551 0 0 0 679.551 0 0 0 679.551)
(681.907 0 0 0 681.907 0 0 0 681.907)
(688.616 0 0 0 688.616 0 0 0 688.616)
(692.94 0 0 0 692.94 0 0 0 692.94)
(678.737 0 0 0 678.737 0 0 0 678.737)
(678.206 0 0 0 678.206 0 0 0 678.206)
(678.189 0 0 0 678.189 0 0 0 678.189)
(678.164 0 0 0 678.164 0 0 0 678.164)
(678.129 0 0 0 678.129 0 0 0 678.129)
(678.083 0 0 0 678.083 0 0 0 678.083)
(678.026 0 0 0 678.026 0 0 0 678.026)
(677.954 0 0 0 677.954 0 0 0 677.954)
(677.865 0 0 0 677.865 0 0 0 677.865)
(677.759 0 0 0 677.759 0 0 0 677.759)
(677.636 0 0 0 677.636 0 0 0 677.636)
(677.498 0 0 0 677.498 0 0 0 677.498)
(677.35 0 0 0 677.35 0 0 0 677.35)
(677.2 0 0 0 677.2 0 0 0 677.2)
(677.052 0 0 0 677.052 0 0 0 677.052)
(676.904 0 0 0 676.904 0 0 0 676.904)
(676.743 0 0 0 676.743 0 0 0 676.743)
(676.553 0 0 0 676.553 0 0 0 676.553)
(676.327 0 0 0 676.327 0 0 0 676.327)
(676.124 0 0 0 676.124 0 0 0 676.124)
(676.134 0 0 0 676.134 0 0 0 676.134)
(676.934 0 0 0 676.934 0 0 0 676.934)
(679.889 0 0 0 679.889 0 0 0 679.889)
(687.38 0 0 0 687.38 0 0 0 687.38)
(692.561 0 0 0 692.561 0 0 0 692.561)
(678.737 0 0 0 678.737 0 0 0 678.737)
(678.206 0 0 0 678.206 0 0 0 678.206)
(678.189 0 0 0 678.189 0 0 0 678.189)
(678.164 0 0 0 678.164 0 0 0 678.164)
(678.129 0 0 0 678.129 0 0 0 678.129)
(678.083 0 0 0 678.083 0 0 0 678.083)
(678.026 0 0 0 678.026 0 0 0 678.026)
(677.954 0 0 0 677.954 0 0 0 677.954)
(677.865 0 0 0 677.865 0 0 0 677.865)
(677.759 0 0 0 677.759 0 0 0 677.759)
(677.636 0 0 0 677.636 0 0 0 677.636)
(677.498 0 0 0 677.498 0 0 0 677.498)
(677.35 0 0 0 677.35 0 0 0 677.35)
(677.2 0 0 0 677.2 0 0 0 677.2)
(677.052 0 0 0 677.052 0 0 0 677.052)
(676.904 0 0 0 676.904 0 0 0 676.904)
(676.743 0 0 0 676.743 0 0 0 676.743)
(676.553 0 0 0 676.553 0 0 0 676.553)
(676.327 0 0 0 676.327 0 0 0 676.327)
(676.124 0 0 0 676.124 0 0 0 676.124)
(676.134 0 0 0 676.134 0 0 0 676.134)
(676.934 0 0 0 676.934 0 0 0 676.934)
(679.889 0 0 0 679.889 0 0 0 679.889)
(687.38 0 0 0 687.38 0 0 0 687.38)
(692.561 0 0 0 692.561 0 0 0 692.561)
(683.005 0 0 0 683.005 0 0 0 683.005)
(682.522 0 0 0 682.522 0 0 0 682.522)
(682.538 0 0 0 682.538 0 0 0 682.538)
(682.543 0 0 0 682.543 0 0 0 682.543)
(682.536 0 0 0 682.536 0 0 0 682.536)
(682.517 0 0 0 682.517 0 0 0 682.517)
(682.483 0 0 0 682.483 0 0 0 682.483)
(682.432 0 0 0 682.432 0 0 0 682.432)
(682.364 0 0 0 682.364 0 0 0 682.364)
(682.275 0 0 0 682.275 0 0 0 682.275)
(682.164 0 0 0 682.164 0 0 0 682.164)
(682.029 0 0 0 682.029 0 0 0 682.029)
(681.872 0 0 0 681.872 0 0 0 681.872)
(681.689 0 0 0 681.689 0 0 0 681.689)
(681.476 0 0 0 681.476 0 0 0 681.476)
(681.223 0 0 0 681.223 0 0 0 681.223)
(680.913 0 0 0 680.913 0 0 0 680.913)
(680.526 0 0 0 680.526 0 0 0 680.526)
(680.056 0 0 0 680.056 0 0 0 680.056)
(679.557 0 0 0 679.557 0 0 0 679.557)
(679.207 0 0 0 679.207 0 0 0 679.207)
(679.55 0 0 0 679.55 0 0 0 679.55)
(681.906 0 0 0 681.906 0 0 0 681.906)
(688.614 0 0 0 688.614 0 0 0 688.614)
(692.939 0 0 0 692.939 0 0 0 692.939)
(677.725 0 0 0 677.725 0 0 0 677.725)
(677.173 0 0 0 677.173 0 0 0 677.173)
(677.146 0 0 0 677.146 0 0 0 677.146)
(677.109 0 0 0 677.109 0 0 0 677.109)
(677.064 0 0 0 677.064 0 0 0 677.064)
(677.009 0 0 0 677.009 0 0 0 677.009)
(676.942 0 0 0 676.942 0 0 0 676.942)
(676.862 0 0 0 676.862 0 0 0 676.862)
(676.766 0 0 0 676.766 0 0 0 676.766)
(676.653 0 0 0 676.653 0 0 0 676.653)
(676.523 0 0 0 676.523 0 0 0 676.523)
(676.38 0 0 0 676.38 0 0 0 676.38)
(676.232 0 0 0 676.232 0 0 0 676.232)
(676.086 0 0 0 676.086 0 0 0 676.086)
(675.95 0 0 0 675.95 0 0 0 675.95)
(675.823 0 0 0 675.823 0 0 0 675.823)
(675.695 0 0 0 675.695 0 0 0 675.695)
(675.549 0 0 0 675.549 0 0 0 675.549)
(675.379 0 0 0 675.379 0 0 0 675.379)
(675.244 0 0 0 675.244 0 0 0 675.244)
(675.338 0 0 0 675.338 0 0 0 675.338)
(676.244 0 0 0 676.244 0 0 0 676.244)
(679.341 0 0 0 679.341 0 0 0 679.341)
(687.023 0 0 0 687.023 0 0 0 687.023)
(692.441 0 0 0 692.441 0 0 0 692.441)
(682.249 0 0 0 682.249 0 0 0 682.249)
(681.769 0 0 0 681.769 0 0 0 681.769)
(681.781 0 0 0 681.781 0 0 0 681.781)
(681.784 0 0 0 681.784 0 0 0 681.784)
(681.775 0 0 0 681.775 0 0 0 681.775)
(681.753 0 0 0 681.753 0 0 0 681.753)
(681.718 0 0 0 681.718 0 0 0 681.718)
(681.667 0 0 0 681.667 0 0 0 681.667)
(681.598 0 0 0 681.598 0 0 0 681.598)
(681.509 0 0 0 681.509 0 0 0 681.509)
(681.399 0 0 0 681.399 0 0 0 681.399)
(681.268 0 0 0 681.268 0 0 0 681.268)
(681.117 0 0 0 681.117 0 0 0 681.117)
(680.944 0 0 0 680.944 0 0 0 680.944)
(680.748 0 0 0 680.748 0 0 0 680.748)
(680.519 0 0 0 680.519 0 0 0 680.519)
(680.241 0 0 0 680.241 0 0 0 680.241)
(679.894 0 0 0 679.894 0 0 0 679.894)
(679.474 0 0 0 679.474 0 0 0 679.474)
(679.035 0 0 0 679.035 0 0 0 679.035)
(678.757 0 0 0 678.757 0 0 0 678.757)
(679.191 0 0 0 679.191 0 0 0 679.191)
(681.661 0 0 0 681.661 0 0 0 681.661)
(688.505 0 0 0 688.505 0 0 0 688.505)
(692.923 0 0 0 692.923 0 0 0 692.923)
(678.737 0 0 0 678.737 0 0 0 678.737)
(678.206 0 0 0 678.206 0 0 0 678.206)
(678.189 0 0 0 678.189 0 0 0 678.189)
(678.164 0 0 0 678.164 0 0 0 678.164)
(678.129 0 0 0 678.129 0 0 0 678.129)
(678.083 0 0 0 678.083 0 0 0 678.083)
(678.026 0 0 0 678.026 0 0 0 678.026)
(677.954 0 0 0 677.954 0 0 0 677.954)
(677.865 0 0 0 677.865 0 0 0 677.865)
(677.759 0 0 0 677.759 0 0 0 677.759)
(677.636 0 0 0 677.636 0 0 0 677.636)
(677.498 0 0 0 677.498 0 0 0 677.498)
(677.35 0 0 0 677.35 0 0 0 677.35)
(677.2 0 0 0 677.2 0 0 0 677.2)
(677.052 0 0 0 677.052 0 0 0 677.052)
(676.904 0 0 0 676.904 0 0 0 676.904)
(676.743 0 0 0 676.743 0 0 0 676.743)
(676.553 0 0 0 676.553 0 0 0 676.553)
(676.327 0 0 0 676.327 0 0 0 676.327)
(676.124 0 0 0 676.124 0 0 0 676.124)
(676.134 0 0 0 676.134 0 0 0 676.134)
(676.934 0 0 0 676.934 0 0 0 676.934)
(679.889 0 0 0 679.889 0 0 0 679.889)
(687.38 0 0 0 687.38 0 0 0 687.38)
(692.561 0 0 0 692.561 0 0 0 692.561)
(683.006 0 0 0 683.006 0 0 0 683.006)
(682.522 0 0 0 682.522 0 0 0 682.522)
(682.538 0 0 0 682.538 0 0 0 682.538)
(682.543 0 0 0 682.543 0 0 0 682.543)
(682.537 0 0 0 682.537 0 0 0 682.537)
(682.517 0 0 0 682.517 0 0 0 682.517)
(682.483 0 0 0 682.483 0 0 0 682.483)
(682.432 0 0 0 682.432 0 0 0 682.432)
(682.364 0 0 0 682.364 0 0 0 682.364)
(682.275 0 0 0 682.275 0 0 0 682.275)
(682.164 0 0 0 682.164 0 0 0 682.164)
(682.03 0 0 0 682.03 0 0 0 682.03)
(681.872 0 0 0 681.872 0 0 0 681.872)
(681.689 0 0 0 681.689 0 0 0 681.689)
(681.477 0 0 0 681.477 0 0 0 681.477)
(681.224 0 0 0 681.224 0 0 0 681.224)
(680.913 0 0 0 680.913 0 0 0 680.913)
(680.527 0 0 0 680.527 0 0 0 680.527)
(680.057 0 0 0 680.057 0 0 0 680.057)
(679.558 0 0 0 679.558 0 0 0 679.558)
(679.208 0 0 0 679.208 0 0 0 679.208)
(679.551 0 0 0 679.551 0 0 0 679.551)
(681.907 0 0 0 681.907 0 0 0 681.907)
(688.616 0 0 0 688.616 0 0 0 688.616)
(692.94 0 0 0 692.94 0 0 0 692.94)
(683.005 0 0 0 683.005 0 0 0 683.005)
(682.522 0 0 0 682.522 0 0 0 682.522)
(682.538 0 0 0 682.538 0 0 0 682.538)
(682.543 0 0 0 682.543 0 0 0 682.543)
(682.536 0 0 0 682.536 0 0 0 682.536)
(682.517 0 0 0 682.517 0 0 0 682.517)
(682.483 0 0 0 682.483 0 0 0 682.483)
(682.432 0 0 0 682.432 0 0 0 682.432)
(682.364 0 0 0 682.364 0 0 0 682.364)
(682.275 0 0 0 682.275 0 0 0 682.275)
(682.164 0 0 0 682.164 0 0 0 682.164)
(682.029 0 0 0 682.029 0 0 0 682.029)
(681.872 0 0 0 681.872 0 0 0 681.872)
(681.689 0 0 0 681.689 0 0 0 681.689)
(681.476 0 0 0 681.476 0 0 0 681.476)
(681.223 0 0 0 681.223 0 0 0 681.223)
(680.913 0 0 0 680.913 0 0 0 680.913)
(680.526 0 0 0 680.526 0 0 0 680.526)
(680.056 0 0 0 680.056 0 0 0 680.056)
(679.557 0 0 0 679.557 0 0 0 679.557)
(679.207 0 0 0 679.207 0 0 0 679.207)
(679.55 0 0 0 679.55 0 0 0 679.55)
(681.906 0 0 0 681.906 0 0 0 681.906)
(688.614 0 0 0 688.614 0 0 0 688.614)
(692.939 0 0 0 692.939 0 0 0 692.939)
(678.737 0 0 0 678.737 0 0 0 678.737)
(678.206 0 0 0 678.206 0 0 0 678.206)
(678.189 0 0 0 678.189 0 0 0 678.189)
(678.164 0 0 0 678.164 0 0 0 678.164)
(678.129 0 0 0 678.129 0 0 0 678.129)
(678.083 0 0 0 678.083 0 0 0 678.083)
(678.026 0 0 0 678.026 0 0 0 678.026)
(677.954 0 0 0 677.954 0 0 0 677.954)
(677.865 0 0 0 677.865 0 0 0 677.865)
(677.759 0 0 0 677.759 0 0 0 677.759)
(677.636 0 0 0 677.636 0 0 0 677.636)
(677.498 0 0 0 677.498 0 0 0 677.498)
(677.35 0 0 0 677.35 0 0 0 677.35)
(677.2 0 0 0 677.2 0 0 0 677.2)
(677.052 0 0 0 677.052 0 0 0 677.052)
(676.904 0 0 0 676.904 0 0 0 676.904)
(676.743 0 0 0 676.743 0 0 0 676.743)
(676.553 0 0 0 676.553 0 0 0 676.553)
(676.327 0 0 0 676.327 0 0 0 676.327)
(676.124 0 0 0 676.124 0 0 0 676.124)
(676.134 0 0 0 676.134 0 0 0 676.134)
(676.934 0 0 0 676.934 0 0 0 676.934)
(679.889 0 0 0 679.889 0 0 0 679.889)
(687.38 0 0 0 687.38 0 0 0 687.38)
(692.561 0 0 0 692.561 0 0 0 692.561)
)
;

boundaryField
{
    outletCentralUnloaded
    {
        type            zeroGradient;
    }
    inletCentralUnloaded
    {
        type            zeroGradient;
    }
    outletFuelElement
    {
        type            zeroGradient;
    }
    inletFuelElement
    {
        type            zeroGradient;
    }
    defaultFaces
    {
        type            zeroGradient;
    }
    baffle_master
    {
        type            zeroGradient;
    }
    baffle_slave
    {
        type            zeroGradient;
    }
}


// ************************************************************************* //
