/*--------------------------------*- C++ -*----------------------------------*\
| =========                 |                                                 |
| \\      /  F ield         | OpenFOAM: The Open Source CFD Toolbox           |
|  \\    /   O peration     | Version:  2212                                  |
|   \\  /    A nd           | Website:  www.openfoam.com                      |
|    \\/     M anipulation  |                                                 |
\*---------------------------------------------------------------------------*/
FoamFile
{
    version     2.0;
    format      ascii;
    arch        "LSB;label=32;scalar=64";
    class       volScalarField;
    location    "41/fluidRegion";
    object      nut;
}
// * * * * * * * * * * * * * * * * * * * * * * * * * * * * * * * * * * * * * //

dimensions      [0 2 -1 0 0 0 0];

internalField   nonuniform List<scalar> 
350
(
0.00053756
0.000537524
0.000537491
0.000537459
0.000537429
0.000537397
0.000537363
0.000537327
0.000537288
0.000537246
0.0005372
0.000537152
0.000537103
0.000537053
0.000537006
0.000536964
0.000536934
0.000536921
0.000536934
0.000536986
0.000537094
0.000537285
0.000537599
0.000538099
0.000539502
0.00053756
0.000537524
0.000537491
0.000537459
0.000537429
0.000537397
0.000537363
0.000537327
0.000537288
0.000537246
0.0005372
0.000537152
0.000537103
0.000537053
0.000537006
0.000536964
0.000536934
0.000536921
0.000536934
0.000536986
0.000537094
0.000537284
0.000537599
0.000538099
0.000539502
0.0103762
0.0101598
0.00989154
0.00956726
0.00919188
0.00877059
0.00830873
0.00781178
0.00728542
0.0067355
0.00616819
0.00559008
0.0050083
0.00443061
0.00386529
0.00332078
0.00280527
0.0023261
0.00188951
0.00150071
0.00116432
0.000884788
0.000666367
0.000511629
0.000416381
0.0104431
0.0102256
0.00995642
0.0096307
0.00925346
0.00882992
0.00836543
0.00786554
0.0073359
0.00678242
0.00621127
0.00562908
0.00504302
0.00446092
0.00389114
0.00334225
0.00282255
0.00233952
0.00189947
0.00150768
0.00116881
0.000887333
0.000667548
0.000512008
0.000416447
0.0103653
0.010149
0.00988094
0.00955692
0.00918188
0.00876099
0.00829958
0.00780314
0.00727733
0.00672801
0.00616133
0.00558389
0.0050028
0.00442582
0.0038612
0.00331738
0.00280252
0.00232395
0.0018879
0.00149956
0.00116354
0.0008843
0.000666086
0.000511481
0.000416332
0.0104283
0.010211
0.00994202
0.00961658
0.00923973
0.00881666
0.00835274
0.00785348
0.00732455
0.00677185
0.00620155
0.00562026
0.00503516
0.00445404
0.00388526
0.00333736
0.00281862
0.00233646
0.0018972
0.00150609
0.00116779
0.00088676
0.000667288
0.000511932
0.000416438
0.0104283
0.010211
0.00994202
0.00961658
0.00923973
0.00881666
0.00835274
0.00785348
0.00732455
0.00677185
0.00620155
0.00562026
0.00503516
0.00445404
0.00388526
0.00333736
0.00281862
0.00233646
0.0018972
0.00150609
0.00116779
0.00088676
0.000667288
0.000511932
0.000416438
0.0103653
0.010149
0.00988094
0.00955693
0.00918189
0.00876099
0.00829958
0.00780315
0.00727734
0.00672801
0.00616134
0.00558389
0.0050028
0.00442582
0.0038612
0.00331738
0.00280252
0.00232396
0.0018879
0.00149956
0.00116354
0.000884299
0.000666084
0.00051148
0.000416331
0.0104431
0.0102256
0.00995642
0.0096307
0.00925346
0.00882992
0.00836543
0.00786554
0.0073359
0.00678242
0.00621127
0.00562908
0.00504302
0.00446092
0.00389114
0.00334225
0.00282255
0.00233952
0.00189947
0.00150768
0.00116881
0.000887334
0.000667548
0.000512008
0.000416447
0.0103762
0.0101598
0.00989154
0.00956726
0.00919188
0.00877059
0.00830873
0.00781178
0.00728542
0.0067355
0.00616819
0.00559008
0.0050083
0.00443061
0.00386529
0.00332078
0.00280527
0.0023261
0.00188951
0.00150071
0.00116432
0.000884787
0.000666365
0.000511627
0.000416379
0.0104283
0.010211
0.00994202
0.00961658
0.00923973
0.00881666
0.00835274
0.00785348
0.00732455
0.00677185
0.00620155
0.00562026
0.00503516
0.00445404
0.00388526
0.00333736
0.00281862
0.00233646
0.0018972
0.00150609
0.00116779
0.000886759
0.000667287
0.000511931
0.000416437
0.0103653
0.010149
0.00988094
0.00955692
0.00918188
0.00876099
0.00829958
0.00780314
0.00727733
0.00672801
0.00616133
0.00558389
0.0050028
0.00442582
0.0038612
0.00331738
0.00280252
0.00232395
0.0018879
0.00149956
0.00116354
0.000884302
0.000666089
0.000511485
0.000416336
0.0103653
0.010149
0.00988094
0.00955693
0.00918189
0.00876099
0.00829958
0.00780315
0.00727734
0.00672801
0.00616134
0.00558389
0.0050028
0.00442582
0.0038612
0.00331738
0.00280252
0.00232395
0.0018879
0.00149956
0.00116354
0.000884299
0.000666085
0.00051148
0.000416332
0.0104283
0.010211
0.00994202
0.00961658
0.00923973
0.00881666
0.00835274
0.00785348
0.00732455
0.00677185
0.00620155
0.00562026
0.00503516
0.00445404
0.00388526
0.00333736
0.00281862
0.00233646
0.0018972
0.00150609
0.00116779
0.000886758
0.000667286
0.00051193
0.000416435
)
;

boundaryField
{
    outletCentralUnloaded
    {
        type            zeroGradient;
    }
    inletCentralUnloaded
    {
        type            zeroGradient;
    }
    outletFuelElement
    {
        type            zeroGradient;
    }
    inletFuelElement
    {
        type            zeroGradient;
    }
    defaultFaces
    {
        type            zeroGradient;
    }
    baffle_master
    {
        type            calculated;
        value           nonuniform List<scalar> 
150
(
0.00053756
0.00053756
0.00053756
0.000537524
0.000537524
0.000537524
0.000537491
0.000537491
0.000537491
0.000537459
0.000537459
0.000537459
0.000537429
0.000537429
0.000537429
0.000537397
0.000537397
0.000537397
0.000537363
0.000537363
0.000537363
0.000537327
0.000537327
0.000537327
0.000537288
0.000537288
0.000537288
0.000537246
0.000537246
0.000537246
0.0005372
0.0005372
0.0005372
0.000537152
0.000537152
0.000537152
0.000537103
0.000537103
0.000537103
0.000537053
0.000537053
0.000537053
0.000537006
0.000537006
0.000537006
0.000536964
0.000536964
0.000536964
0.000536934
0.000536934
0.000536934
0.000536921
0.000536921
0.000536921
0.000536934
0.000536934
0.000536934
0.000536986
0.000536986
0.000536986
0.000537094
0.000537094
0.000537094
0.000537285
0.000537285
0.000537285
0.000537599
0.000537599
0.000537599
0.000538099
0.000538099
0.000538099
0.000539502
0.000539502
0.000539502
0.00053756
0.00053756
0.00053756
0.000537524
0.000537524
0.000537524
0.000537491
0.000537491
0.000537491
0.000537459
0.000537459
0.000537459
0.000537429
0.000537429
0.000537429
0.000537397
0.000537397
0.000537397
0.000537363
0.000537363
0.000537363
0.000537327
0.000537327
0.000537327
0.000537288
0.000537288
0.000537288
0.000537246
0.000537246
0.000537246
0.0005372
0.0005372
0.0005372
0.000537152
0.000537152
0.000537152
0.000537103
0.000537103
0.000537103
0.000537053
0.000537053
0.000537053
0.000537006
0.000537006
0.000537006
0.000536964
0.000536964
0.000536964
0.000536934
0.000536934
0.000536934
0.000536921
0.000536921
0.000536921
0.000536934
0.000536934
0.000536934
0.000536986
0.000536986
0.000536986
0.000537094
0.000537094
0.000537094
0.000537284
0.000537284
0.000537284
0.000537599
0.000537599
0.000537599
0.000538099
0.000538099
0.000538099
0.000539502
0.000539502
0.000539502
)
;
    }
    baffle_slave
    {
        type            calculated;
        value           nonuniform List<scalar> 
150
(
0.0104431
0.0104283
0.0104283
0.0102256
0.010211
0.010211
0.00995642
0.00994202
0.00994202
0.0096307
0.00961658
0.00961658
0.00925346
0.00923973
0.00923973
0.00882992
0.00881666
0.00881666
0.00836543
0.00835274
0.00835274
0.00786554
0.00785348
0.00785348
0.0073359
0.00732455
0.00732455
0.00678242
0.00677185
0.00677185
0.00621127
0.00620155
0.00620155
0.00562908
0.00562026
0.00562026
0.00504302
0.00503516
0.00503516
0.00446092
0.00445404
0.00445404
0.00389114
0.00388526
0.00388526
0.00334225
0.00333736
0.00333736
0.00282255
0.00281862
0.00281862
0.00233952
0.00233646
0.00233646
0.00189947
0.0018972
0.0018972
0.00150768
0.00150609
0.00150609
0.00116881
0.00116779
0.00116779
0.000887333
0.00088676
0.000886758
0.000667548
0.000667288
0.000667286
0.000512008
0.000511932
0.00051193
0.000416447
0.000416438
0.000416435
0.0104283
0.0104431
0.0104283
0.010211
0.0102256
0.010211
0.00994202
0.00995642
0.00994202
0.00961658
0.0096307
0.00961658
0.00923973
0.00925346
0.00923973
0.00881666
0.00882992
0.00881666
0.00835274
0.00836543
0.00835274
0.00785348
0.00786554
0.00785348
0.00732455
0.0073359
0.00732455
0.00677185
0.00678242
0.00677185
0.00620155
0.00621127
0.00620155
0.00562026
0.00562908
0.00562026
0.00503516
0.00504302
0.00503516
0.00445404
0.00446092
0.00445404
0.00388526
0.00389114
0.00388526
0.00333736
0.00334225
0.00333736
0.00281862
0.00282255
0.00281862
0.00233646
0.00233952
0.00233646
0.0018972
0.00189947
0.0018972
0.00150609
0.00150768
0.00150609
0.00116779
0.00116881
0.00116779
0.00088676
0.000887334
0.000886759
0.000667288
0.000667548
0.000667287
0.000511932
0.000512008
0.000511931
0.000416438
0.000416447
0.000416437
)
;
    }
}


// ************************************************************************* //
