/*--------------------------------*- C++ -*----------------------------------*\
| =========                 |                                                 |
| \\      /  F ield         | OpenFOAM: The Open Source CFD Toolbox           |
|  \\    /   O peration     | Version:  2212                                  |
|   \\  /    A nd           | Website:  www.openfoam.com                      |
|    \\/     M anipulation  |                                                 |
\*---------------------------------------------------------------------------*/
FoamFile
{
    version     2.0;
    format      ascii;
    arch        "LSB;label=32;scalar=64";
    class       volScalarField;
    location    "41/fluidRegion";
    object      p;
}
// * * * * * * * * * * * * * * * * * * * * * * * * * * * * * * * * * * * * * //

dimensions      [1 -1 -2 0 0 0 0];

internalField   nonuniform List<scalar> 
350
(
3.44743e+06
3.44772e+06
3.44802e+06
3.44831e+06
3.44861e+06
3.4489e+06
3.4492e+06
3.4495e+06
3.44979e+06
3.45009e+06
3.45039e+06
3.45068e+06
3.45098e+06
3.45127e+06
3.45157e+06
3.45186e+06
3.45216e+06
3.45245e+06
3.45275e+06
3.45304e+06
3.45334e+06
3.45363e+06
3.45393e+06
3.45422e+06
3.45451e+06
3.44743e+06
3.44772e+06
3.44802e+06
3.44831e+06
3.44861e+06
3.4489e+06
3.4492e+06
3.4495e+06
3.44979e+06
3.45009e+06
3.45039e+06
3.45068e+06
3.45098e+06
3.45127e+06
3.45157e+06
3.45186e+06
3.45216e+06
3.45245e+06
3.45275e+06
3.45304e+06
3.45334e+06
3.45363e+06
3.45393e+06
3.45422e+06
3.45451e+06
3.4737e+06
3.52526e+06
3.57623e+06
3.6263e+06
3.67516e+06
3.72253e+06
3.76815e+06
3.81179e+06
3.85322e+06
3.89228e+06
3.92878e+06
3.96261e+06
3.99364e+06
4.02179e+06
4.04703e+06
4.06934e+06
4.08877e+06
4.10542e+06
4.11941e+06
4.13093e+06
4.14017e+06
4.14735e+06
4.15272e+06
4.15656e+06
4.15924e+06
3.4737e+06
3.52526e+06
3.57623e+06
3.6263e+06
3.67516e+06
3.72253e+06
3.76815e+06
3.81179e+06
3.85322e+06
3.89228e+06
3.92878e+06
3.96261e+06
3.99364e+06
4.02179e+06
4.04703e+06
4.06934e+06
4.08877e+06
4.10542e+06
4.11941e+06
4.13093e+06
4.14017e+06
4.14735e+06
4.15272e+06
4.15656e+06
4.15924e+06
3.4737e+06
3.52526e+06
3.57623e+06
3.6263e+06
3.67516e+06
3.72253e+06
3.76815e+06
3.81179e+06
3.85322e+06
3.89228e+06
3.92878e+06
3.96261e+06
3.99364e+06
4.02179e+06
4.04703e+06
4.06934e+06
4.08877e+06
4.10542e+06
4.11941e+06
4.13093e+06
4.14017e+06
4.14735e+06
4.15272e+06
4.15656e+06
4.15924e+06
3.4737e+06
3.52526e+06
3.57623e+06
3.6263e+06
3.67516e+06
3.72253e+06
3.76815e+06
3.81179e+06
3.85322e+06
3.89228e+06
3.92878e+06
3.96261e+06
3.99364e+06
4.02179e+06
4.04703e+06
4.06934e+06
4.08877e+06
4.10542e+06
4.11941e+06
4.13093e+06
4.14017e+06
4.14735e+06
4.15272e+06
4.15656e+06
4.15924e+06
3.4737e+06
3.52526e+06
3.57623e+06
3.6263e+06
3.67516e+06
3.72253e+06
3.76815e+06
3.81179e+06
3.85322e+06
3.89228e+06
3.92878e+06
3.96261e+06
3.99364e+06
4.02179e+06
4.04703e+06
4.06934e+06
4.08877e+06
4.10542e+06
4.11941e+06
4.13093e+06
4.14017e+06
4.14735e+06
4.15272e+06
4.15656e+06
4.15924e+06
3.4737e+06
3.52526e+06
3.57623e+06
3.6263e+06
3.67516e+06
3.72253e+06
3.76815e+06
3.81179e+06
3.85322e+06
3.89228e+06
3.92878e+06
3.96261e+06
3.99364e+06
4.02179e+06
4.04703e+06
4.06934e+06
4.08877e+06
4.10542e+06
4.11941e+06
4.13093e+06
4.14017e+06
4.14735e+06
4.15272e+06
4.15656e+06
4.15924e+06
3.4737e+06
3.52526e+06
3.57623e+06
3.6263e+06
3.67516e+06
3.72253e+06
3.76815e+06
3.81179e+06
3.85322e+06
3.89228e+06
3.92878e+06
3.96261e+06
3.99364e+06
4.02179e+06
4.04703e+06
4.06934e+06
4.08877e+06
4.10542e+06
4.11941e+06
4.13093e+06
4.14017e+06
4.14735e+06
4.15272e+06
4.15656e+06
4.15924e+06
3.4737e+06
3.52526e+06
3.57623e+06
3.6263e+06
3.67516e+06
3.72253e+06
3.76815e+06
3.81179e+06
3.85322e+06
3.89228e+06
3.92878e+06
3.96261e+06
3.99364e+06
4.02179e+06
4.04703e+06
4.06934e+06
4.08877e+06
4.10542e+06
4.11941e+06
4.13093e+06
4.14017e+06
4.14735e+06
4.15272e+06
4.15656e+06
4.15924e+06
3.4737e+06
3.52526e+06
3.57623e+06
3.6263e+06
3.67516e+06
3.72253e+06
3.76815e+06
3.81179e+06
3.85322e+06
3.89228e+06
3.92878e+06
3.96261e+06
3.99364e+06
4.02179e+06
4.04703e+06
4.06934e+06
4.08877e+06
4.10542e+06
4.11941e+06
4.13093e+06
4.14017e+06
4.14735e+06
4.15272e+06
4.15656e+06
4.15924e+06
3.4737e+06
3.52526e+06
3.57623e+06
3.6263e+06
3.67516e+06
3.72253e+06
3.76815e+06
3.81179e+06
3.85322e+06
3.89228e+06
3.92878e+06
3.96261e+06
3.99364e+06
4.02179e+06
4.04703e+06
4.06934e+06
4.08877e+06
4.10542e+06
4.11941e+06
4.13093e+06
4.14017e+06
4.14735e+06
4.15272e+06
4.15656e+06
4.15924e+06
3.4737e+06
3.52526e+06
3.57623e+06
3.6263e+06
3.67516e+06
3.72253e+06
3.76815e+06
3.81179e+06
3.85322e+06
3.89228e+06
3.92878e+06
3.96261e+06
3.99364e+06
4.02179e+06
4.04703e+06
4.06934e+06
4.08877e+06
4.10542e+06
4.11941e+06
4.13093e+06
4.14017e+06
4.14735e+06
4.15272e+06
4.15656e+06
4.15924e+06
3.4737e+06
3.52526e+06
3.57623e+06
3.6263e+06
3.67516e+06
3.72253e+06
3.76815e+06
3.81179e+06
3.85322e+06
3.89228e+06
3.92878e+06
3.96261e+06
3.99364e+06
4.02179e+06
4.04703e+06
4.06934e+06
4.08877e+06
4.10542e+06
4.11941e+06
4.13093e+06
4.14017e+06
4.14735e+06
4.15272e+06
4.15656e+06
4.15924e+06
)
;

boundaryField
{
    outletCentralUnloaded
    {
        type            fixedValue;
        value           uniform 3.44728e+06;
    }
    inletCentralUnloaded
    {
        type            zeroGradient;
    }
    outletFuelElement
    {
        type            fixedValue;
        value           uniform 3.44728e+06;
    }
    inletFuelElement
    {
        type            zeroGradient;
    }
    defaultFaces
    {
        type            zeroGradient;
    }
    baffle_master
    {
        type            zeroGradient;
    }
    baffle_slave
    {
        type            zeroGradient;
    }
}


// ************************************************************************* //
