/*--------------------------------*- C++ -*----------------------------------*\
| =========                 |                                                 |
| \\      /  F ield         | OpenFOAM: The Open Source CFD Toolbox           |
|  \\    /   O peration     | Version:  2212                                  |
|   \\  /    A nd           | Website:  www.openfoam.com                      |
|    \\/     M anipulation  |                                                 |
\*---------------------------------------------------------------------------*/
FoamFile
{
    version     2.0;
    format      ascii;
    arch        "LSB;label=32;scalar=64";
    class       volScalarField;
    location    "41/fluidRegion";
    object      Tcav.nuclearFuelPin;
}
// * * * * * * * * * * * * * * * * * * * * * * * * * * * * * * * * * * * * * //

dimensions      [0 0 0 1 0 0 0];

internalField   nonuniform List<scalar> 
350
(
0
0
0
0
0
0
0
0
0
0
0
0
0
0
0
0
0
0
0
0
0
0
0
0
0
0
0
0
0
0
0
0
0
0
0
0
0
0
0
0
0
0
0
0
0
0
0
0
0
0
1837.52
1876.01
1901.55
1914.14
1913.91
1901.13
1876.21
1839.74
1792.42
1735.09
1668.74
1594.45
1513.47
1427.11
1336.82
1244.05
1150.19
1056.3
962.772
868.764
771.364
664.3
536.919
377.325
187.222
1865.75
1904.87
1930.81
1943.57
1943.28
1930.21
1904.8
1867.62
1819.4
1760.98
1693.38
1617.69
1535.17
1447.16
1355.13
1260.56
1164.89
1069.23
974.037
878.505
779.722
671.329
542.461
380.923
188.439
1832.93
1871.34
1896.84
1909.42
1909.22
1896.5
1871.68
1835.33
1788.17
1731.03
1664.88
1590.83
1510.09
1424.01
1333.99
1241.51
1147.94
1054.33
961.055
867.285
770.104
663.251
536.104
376.8
187.037
1859.4
1898.36
1924.19
1936.9
1936.61
1923.59
1898.28
1861.25
1813.22
1755.05
1687.73
1612.36
1530.18
1442.55
1350.91
1256.75
1161.5
1066.25
971.432
876.252
777.788
669.702
541.177
380.088
188.157
1859.4
1898.36
1924.19
1936.9
1936.61
1923.59
1898.28
1861.25
1813.22
1755.05
1687.73
1612.36
1530.18
1442.55
1350.91
1256.75
1161.5
1066.25
971.432
876.252
777.788
669.702
541.177
380.088
188.157
1832.93
1871.34
1896.84
1909.43
1909.22
1896.5
1871.68
1835.34
1788.17
1731.03
1664.89
1590.83
1510.1
1424.01
1333.99
1241.51
1147.94
1054.33
961.055
867.286
770.105
663.252
536.104
376.801
187.037
1865.75
1904.87
1930.81
1943.57
1943.28
1930.21
1904.8
1867.62
1819.4
1760.98
1693.38
1617.69
1535.17
1447.16
1355.13
1260.56
1164.89
1069.23
974.037
878.505
779.721
671.329
542.461
380.923
188.439
1837.52
1876.01
1901.55
1914.14
1913.91
1901.13
1876.21
1839.74
1792.42
1735.09
1668.74
1594.45
1513.47
1427.11
1336.82
1244.05
1150.19
1056.3
962.772
868.764
771.364
664.301
536.919
377.325
187.222
1859.4
1898.36
1924.19
1936.9
1936.61
1923.59
1898.28
1861.25
1813.22
1755.05
1687.73
1612.36
1530.18
1442.55
1350.91
1256.75
1161.5
1066.25
971.432
876.252
777.788
669.702
541.177
380.088
188.157
1832.93
1871.34
1896.84
1909.42
1909.22
1896.5
1871.68
1835.33
1788.17
1731.03
1664.88
1590.83
1510.09
1424.01
1333.99
1241.51
1147.94
1054.33
961.055
867.285
770.104
663.251
536.104
376.8
187.037
1832.93
1871.34
1896.84
1909.43
1909.22
1896.5
1871.68
1835.34
1788.17
1731.03
1664.89
1590.83
1510.1
1424.01
1333.99
1241.51
1147.94
1054.33
961.055
867.286
770.105
663.252
536.104
376.801
187.037
1859.4
1898.36
1924.19
1936.9
1936.61
1923.59
1898.28
1861.25
1813.22
1755.05
1687.73
1612.36
1530.18
1442.55
1350.91
1256.75
1161.5
1066.25
971.432
876.252
777.788
669.702
541.177
380.088
188.157
)
;

boundaryField
{
    outletCentralUnloaded
    {
        type            zeroGradient;
    }
    inletCentralUnloaded
    {
        type            zeroGradient;
    }
    outletFuelElement
    {
        type            zeroGradient;
    }
    inletFuelElement
    {
        type            zeroGradient;
    }
    defaultFaces
    {
        type            zeroGradient;
    }
    baffle_master
    {
        type            zeroGradient;
    }
    baffle_slave
    {
        type            zeroGradient;
    }
}


// ************************************************************************* //
