/*--------------------------------*- C++ -*----------------------------------*\
| =========                 |                                                 |
| \\      /  F ield         | OpenFOAM: The Open Source CFD Toolbox           |
|  \\    /   O peration     | Version:  2212                                  |
|   \\  /    A nd           | Website:  www.openfoam.com                      |
|    \\/     M anipulation  |                                                 |
\*---------------------------------------------------------------------------*/
FoamFile
{
    version     2.0;
    format      ascii;
    arch        "LSB;label=32;scalar=64";
    class       volScalarField;
    location    "41/fluidRegion";
    object      Tfav.nuclearFuelPin;
}
// * * * * * * * * * * * * * * * * * * * * * * * * * * * * * * * * * * * * * //

dimensions      [0 0 0 1 0 0 0];

internalField   nonuniform List<scalar> 
350
(
0
0
0
0
0
0
0
0
0
0
0
0
0
0
0
0
0
0
0
0
0
0
0
0
0
0
0
0
0
0
0
0
0
0
0
0
0
0
0
0
0
0
0
0
0
0
0
0
0
0
2190.58
2976.75
3732.34
4445.84
5106.33
5703.66
6228.65
6673.2
7030.44
7294.85
7462.33
7530.31
7497.78
7365.3
7135.06
6810.71
6397.29
5900.89
5328.23
4686.09
3980.17
3213.97
2387.43
1500.19
565.617
2222.58
3017.96
3782.31
4504.02
5172.02
5776.07
6306.87
6756.24
7117.22
7384.24
7553.16
7621.38
7587.88
7453.24
7219.66
6890.87
6472
5969.24
5389.43
4739.5
4025.24
3250.16
2414.12
1516.6
571.129
2185.39
2970.12
3724.33
4436.54
5095.85
5692.13
6216.21
6660.01
7016.67
7280.68
7447.94
7515.89
7483.51
7351.39
7121.67
6798.03
6385.48
5890.09
5318.56
4677.65
3973.07
3208.28
2383.24
1497.62
564.748
2215.36
3008.6
3770.93
4490.73
5156.99
5759.48
6288.93
6737.17
7097.28
7363.69
7532.27
7600.43
7567.14
7432.99
7200.18
6872.41
6454.79
5953.49
5375.33
4727.2
4014.86
3241.82
2407.97
1512.82
569.859
2215.36
3008.6
3770.93
4490.73
5156.99
5759.48
6288.93
6737.17
7097.28
7363.69
7532.27
7600.43
7567.14
7432.99
7200.18
6872.41
6454.79
5953.49
5375.33
4727.2
4014.86
3241.82
2407.97
1512.82
569.859
2185.39
2970.12
3724.34
4436.55
5095.85
5692.13
6216.21
6660.01
7016.67
7280.68
7447.94
7515.89
7483.51
7351.39
7121.67
6798.03
6385.48
5890.09
5318.56
4677.65
3973.07
3208.28
2383.25
1497.62
564.748
2222.58
3017.96
3782.31
4504.02
5172.02
5776.07
6306.87
6756.24
7117.22
7384.24
7553.16
7621.38
7587.88
7453.24
7219.66
6890.87
6472
5969.24
5389.43
4739.5
4025.24
3250.16
2414.12
1516.6
571.129
2190.58
2976.75
3732.35
4445.84
5106.33
5703.66
6228.65
6673.2
7030.44
7294.85
7462.33
7530.31
7497.78
7365.3
7135.06
6810.71
6397.29
5900.89
5328.23
4686.09
3980.17
3213.97
2387.43
1500.19
565.617
2215.36
3008.6
3770.93
4490.73
5156.99
5759.48
6288.93
6737.17
7097.28
7363.69
7532.27
7600.43
7567.14
7432.99
7200.18
6872.41
6454.79
5953.49
5375.33
4727.2
4014.86
3241.82
2407.97
1512.82
569.859
2185.39
2970.12
3724.33
4436.54
5095.85
5692.13
6216.21
6660.01
7016.67
7280.67
7447.94
7515.89
7483.51
7351.39
7121.67
6798.03
6385.48
5890.09
5318.56
4677.65
3973.07
3208.28
2383.25
1497.62
564.748
2185.39
2970.12
3724.33
4436.55
5095.85
5692.13
6216.21
6660.01
7016.67
7280.68
7447.94
7515.89
7483.51
7351.39
7121.67
6798.03
6385.48
5890.09
5318.56
4677.65
3973.07
3208.28
2383.25
1497.62
564.748
2215.36
3008.6
3770.93
4490.73
5156.99
5759.48
6288.93
6737.17
7097.28
7363.69
7532.27
7600.43
7567.14
7432.99
7200.18
6872.41
6454.79
5953.49
5375.33
4727.2
4014.86
3241.82
2407.97
1512.82
569.858
)
;

boundaryField
{
    outletCentralUnloaded
    {
        type            zeroGradient;
    }
    inletCentralUnloaded
    {
        type            zeroGradient;
    }
    outletFuelElement
    {
        type            zeroGradient;
    }
    inletFuelElement
    {
        type            zeroGradient;
    }
    defaultFaces
    {
        type            zeroGradient;
    }
    baffle_master
    {
        type            zeroGradient;
    }
    baffle_slave
    {
        type            zeroGradient;
    }
}


// ************************************************************************* //
