/*--------------------------------*- C++ -*----------------------------------*\
| =========                 |                                                 |
| \\      /  F ield         | OpenFOAM: The Open Source CFD Toolbox           |
|  \\    /   O peration     | Version:  2212                                  |
|   \\  /    A nd           | Website:  www.openfoam.com                      |
|    \\/     M anipulation  |                                                 |
\*---------------------------------------------------------------------------*/
FoamFile
{
    version     2.0;
    format      ascii;
    arch        "LSB;label=32;scalar=64";
    class       volScalarField;
    location    "41/fluidRegion";
    object      Tfi.nuclearFuelPin;
}
// * * * * * * * * * * * * * * * * * * * * * * * * * * * * * * * * * * * * * //

dimensions      [0 0 0 1 0 0 0];

internalField   nonuniform List<scalar> 
350
(
0
0
0
0
0
0
0
0
0
0
0
0
0
0
0
0
0
0
0
0
0
0
0
0
0
0
0
0
0
0
0
0
0
0
0
0
0
0
0
0
0
0
0
0
0
0
0
0
0
0
2377.12
3563.74
4710.35
5799.27
6813.67
7737.82
8557.4
9259.66
9833.67
10270.5
10563.3
10707.6
10701.2
10544.1
10239.1
9790.83
9206.4
8494.56
7665.42
6729.83
5698.12
4579.03
3378.19
2101.48
768.51
2411.09
3611.5
4771.36
5872.79
6898.76
7833.39
8662.15
9372.18
9952.43
10393.8
10689.6
10835
10827.9
10668.4
10359.1
9905.06
9313.22
8592.57
7753.35
6806.62
5762.84
4630.83
3416.21
2124.75
776.32
2371.62
3556.07
4700.58
5787.53
6800.1
7722.61
8540.73
9241.77
9814.8
10250.9
10543.3
10687.4
10681.1
10524.4
10220
9772.73
9189.47
8479.04
7651.49
6717.67
5687.89
4570.85
3372.21
2097.82
767.274
2403.42
3600.64
4757.43
5855.97
6879.26
7811.46
8638.1
9346.33
9925.13
10365.5
10660.5
10805.7
10798.7
10639.8
10331.5
9878.75
9288.62
8569.99
7733.1
6788.93
5747.93
4618.89
3407.45
2119.39
774.521
2403.42
3600.64
4757.43
5855.97
6879.26
7811.46
8638.1
9346.33
9925.13
10365.5
10660.5
10805.7
10798.7
10639.8
10331.5
9878.75
9288.62
8569.99
7733.1
6788.93
5747.93
4618.89
3407.45
2119.39
774.521
2371.62
3556.07
4700.58
5787.53
6800.1
7722.61
8540.74
9241.77
9814.8
10250.9
10543.3
10687.4
10681.1
10524.4
10220
9772.73
9189.48
8479.04
7651.49
6717.67
5687.89
4570.85
3372.21
2097.82
767.275
2411.09
3611.5
4771.36
5872.79
6898.76
7833.39
8662.15
9372.18
9952.43
10393.8
10689.6
10835
10827.9
10668.4
10359.1
9905.06
9313.22
8592.56
7753.35
6806.62
5762.84
4630.83
3416.21
2124.75
776.32
2377.12
3563.74
4710.35
5799.27
6813.67
7737.82
8557.4
9259.66
9833.67
10270.5
10563.3
10707.6
10701.2
10544.1
10239.1
9790.83
9206.4
8494.56
7665.42
6729.83
5698.12
4579.03
3378.2
2101.48
768.51
2403.42
3600.64
4757.43
5855.97
6879.26
7811.46
8638.1
9346.33
9925.13
10365.5
10660.5
10805.7
10798.7
10639.8
10331.5
9878.75
9288.62
8569.99
7733.1
6788.93
5747.93
4618.89
3407.45
2119.39
774.521
2371.62
3556.07
4700.58
5787.53
6800.1
7722.6
8540.73
9241.77
9814.8
10250.9
10543.3
10687.4
10681.1
10524.4
10220
9772.73
9189.47
8479.04
7651.49
6717.67
5687.89
4570.85
3372.21
2097.82
767.274
2371.62
3556.07
4700.58
5787.53
6800.1
7722.61
8540.74
9241.77
9814.8
10250.9
10543.3
10687.4
10681.1
10524.4
10220
9772.73
9189.48
8479.04
7651.49
6717.67
5687.89
4570.85
3372.21
2097.82
767.274
2403.42
3600.64
4757.43
5855.97
6879.26
7811.46
8638.1
9346.33
9925.13
10365.5
10660.5
10805.7
10798.7
10639.8
10331.5
9878.75
9288.62
8569.99
7733.1
6788.93
5747.93
4618.89
3407.45
2119.39
774.521
)
;

boundaryField
{
    outletCentralUnloaded
    {
        type            zeroGradient;
    }
    inletCentralUnloaded
    {
        type            zeroGradient;
    }
    outletFuelElement
    {
        type            zeroGradient;
    }
    inletFuelElement
    {
        type            zeroGradient;
    }
    defaultFaces
    {
        type            zeroGradient;
    }
    baffle_master
    {
        type            zeroGradient;
    }
    baffle_slave
    {
        type            zeroGradient;
    }
}


// ************************************************************************* //
