/*--------------------------------*- C++ -*----------------------------------*\
| =========                 |                                                 |
| \\      /  F ield         | OpenFOAM: The Open Source CFD Toolbox           |
|  \\    /   O peration     | Version:  2212                                  |
|   \\  /    A nd           | Website:  www.openfoam.com                      |
|    \\/     M anipulation  |                                                 |
\*---------------------------------------------------------------------------*/
FoamFile
{
    version     2.0;
    format      ascii;
    arch        "LSB;label=32;scalar=64";
    class       volScalarField;
    location    "41/fluidRegion";
    object      Tfo.nuclearFuelPin;
}
// * * * * * * * * * * * * * * * * * * * * * * * * * * * * * * * * * * * * * //

dimensions      [0 0 0 1 0 0 0];

internalField   nonuniform List<scalar> 
350
(
0
0
0
0
0
0
0
0
0
0
0
0
0
0
0
0
0
0
0
0
0
0
0
0
0
0
0
0
0
0
0
0
0
0
0
0
0
0
0
0
0
0
0
0
0
0
0
0
0
0
2003.86
2392.96
2760.84
3102.1
3411.69
3684.99
3917.92
4106.99
4249.35
4342.86
4386.13
4378.52
4320.21
4212.19
4056.22
3854.82
3611.07
3328.39
3010.13
2659.05
2276.26
1860.07
1404.78
903.899
364.592
2033.88
2427.63
2799.83
3145.03
3458.11
3734.41
3969.8
4160.75
4304.38
4398.54
4441.82
4433.58
4374
4264.08
4105.63
3901.19
3653.91
3367.31
3044.82
2689.28
2301.84
1880.78
1420.25
913.509
367.824
1998.99
2387.37
2754.58
3095.23
3404.28
3677.12
3909.68
4098.46
4240.63
4334.06
4377.33
4369.83
4311.73
4204.01
4048.44
3847.52
3604.33
3322.27
3004.69
2654.31
2272.26
1856.84
1402.39
902.416
364.086
2027.12
2419.78
2790.98
3135.25
3447.51
3723.11
3957.92
4148.42
4291.75
4385.76
4429.02
4420.91
4361.62
4252.13
4094.25
3890.5
3644.04
3358.34
3036.83
2682.31
2295.94
1876
1416.68
911.29
367.078
2027.12
2419.78
2790.98
3135.25
3447.51
3723.11
3957.92
4148.42
4291.75
4385.76
4429.02
4420.91
4361.62
4252.13
4094.25
3890.5
3644.04
3358.34
3036.83
2682.31
2295.94
1876
1416.68
911.29
367.078
1998.99
2387.37
2754.58
3095.24
3404.28
3677.12
3909.68
4098.46
4240.64
4334.06
4377.33
4369.83
4311.73
4204.01
4048.44
3847.52
3604.33
3322.27
3004.69
2654.31
2272.26
1856.85
1402.39
902.416
364.086
2033.88
2427.63
2799.83
3145.03
3458.11
3734.41
3969.8
4160.75
4304.38
4398.55
4441.82
4433.58
4374
4264.08
4105.63
3901.19
3653.91
3367.31
3044.82
2689.28
2301.84
1880.78
1420.25
913.509
367.824
2003.86
2392.96
2760.84
3102.1
3411.69
3684.99
3917.92
4106.99
4249.35
4342.86
4386.13
4378.52
4320.21
4212.19
4056.22
3854.82
3611.07
3328.39
3010.13
2659.05
2276.26
1860.07
1404.78
903.899
364.592
2027.12
2419.78
2790.98
3135.25
3447.51
3723.11
3957.92
4148.42
4291.75
4385.76
4429.02
4420.91
4361.62
4252.13
4094.25
3890.5
3644.04
3358.34
3036.83
2682.31
2295.94
1876
1416.68
911.29
367.078
1998.99
2387.37
2754.58
3095.23
3404.28
3677.12
3909.68
4098.46
4240.63
4334.06
4377.33
4369.83
4311.73
4204.01
4048.44
3847.52
3604.33
3322.27
3004.69
2654.31
2272.26
1856.84
1402.39
902.416
364.086
1998.99
2387.37
2754.58
3095.24
3404.28
3677.12
3909.68
4098.46
4240.63
4334.06
4377.33
4369.83
4311.73
4204.01
4048.44
3847.52
3604.33
3322.27
3004.69
2654.31
2272.26
1856.84
1402.39
902.416
364.086
2027.12
2419.78
2790.98
3135.25
3447.51
3723.11
3957.92
4148.42
4291.75
4385.76
4429.02
4420.91
4361.62
4252.13
4094.25
3890.5
3644.04
3358.34
3036.83
2682.31
2295.94
1876
1416.68
911.29
367.078
)
;

boundaryField
{
    outletCentralUnloaded
    {
        type            zeroGradient;
    }
    inletCentralUnloaded
    {
        type            zeroGradient;
    }
    outletFuelElement
    {
        type            zeroGradient;
    }
    inletFuelElement
    {
        type            zeroGradient;
    }
    defaultFaces
    {
        type            zeroGradient;
    }
    baffle_master
    {
        type            zeroGradient;
    }
    baffle_slave
    {
        type            zeroGradient;
    }
}


// ************************************************************************* //
