/*--------------------------------*- C++ -*----------------------------------*\
| =========                 |                                                 |
| \\      /  F ield         | OpenFOAM: The Open Source CFD Toolbox           |
|  \\    /   O peration     | Version:  2212                                  |
|   \\  /    A nd           | Website:  www.openfoam.com                      |
|    \\/     M anipulation  |                                                 |
\*---------------------------------------------------------------------------*/
FoamFile
{
    version     2.0;
    format      ascii;
    arch        "LSB;label=32;scalar=64";
    class       scalarFieldField;
    location    "41/fluidRegion";
    object      Trad.nuclearFuelPin;
}
// * * * * * * * * * * * * * * * * * * * * * * * * * * * * * * * * * * * * * //


350
(
0()
0()
0()
0()
0()
0()
0()
0()
0()
0()
0()
0()
0()
0()
0()
0()
0()
0()
0()
0()
0()
0()
0()
0()
0()
0()
0()
0()
0()
0()
0()
0()
0()
0()
0()
0()
0()
0()
0()
0()
0()
0()
0()
0()
0()
0()
0()
0()
0()
0()

20
(
2377.12
2375.49
2370.58
2362.41
2350.96
2336.21
2318.16
2296.8
2272.09
2244.04
2212.6
2177.76
2139.5
2097.77
2052.57
2003.86
1843.25
1839.43
1835.74
1832.16
)


20
(
3563.74
3558.57
3543.04
3517.15
3480.9
3434.27
3377.26
3309.83
3231.98
3143.67
3044.9
2935.62
2815.82
2685.47
2544.52
2392.96
1893.86
1881.97
1870.48
1859.35
)


20
(
4710.35
4701.72
4675.81
4632.63
4572.17
4494.41
4399.33
4286.93
4157.18
4010.05
3845.52
3663.57
3464.15
3247.25
3012.82
2760.84
1931.23
1911.47
1892.36
1873.85
)


20
(
5799.27
5787.31
5751.45
5691.66
5607.95
5500.3
5368.69
5213.1
5033.52
4829.91
4602.26
4350.52
4074.67
3774.67
3450.49
3102.1
1955.17
1927.86
1901.43
1875.84
)


20
(
6813.67
6798.58
6753.32
6677.88
6572.25
6436.42
6270.37
6074.07
5847.51
5590.66
5303.5
4985.97
4638.07
4259.74
3850.96
3411.69
1965.64
1931.2
1897.88
1865.62
)


20
(
7737.82
7719.85
7665.91
7576.02
7450.15
7288.29
7090.43
6856.54
6586.6
6280.59
5938.46
5560.19
5145.75
4695.09
4208.18
3684.99
1962.74
1921.72
1882.04
1843.61
)


20
(
8557.4
8536.82
8475.06
8372.14
8228.02
8042.71
7816.18
7548.4
7239.36
6889.03
6497.36
6064.34
5589.92
5074.07
4516.75
3917.92
1946.74
1899.79
1854.37
1810.38
)


20
(
9259.66
9236.79
9168.2
9053.87
8893.8
8687.96
8436.35
8138.93
7795.68
7406.57
6971.58
6490.66
5963.78
5390.9
4771.98
4106.99
1918.06
1865.92
1815.48
1766.63
)


20
(
9833.67
9808.89
9734.54
9610.62
9437.12
9214.02
8941.31
8618.95
8246.93
7825.21
7353.77
6832.56
6261.55
5640.71
4969.99
4249.35
1877.29
1820.79
1766.13
1713.19
)


20
(
10270.5
10244.2
10165.3
10033.7
9849.53
9612.7
9323.2
8981.01
8586.1
8138.45
7638.01
7084.76
6478.66
5819.67
5107.75
4342.86
1825.17
1765.2
1707.19
1651
)


20
(
10563.3
10535.9
10453.7
10316.6
10124.6
9877.8
9576.1
9219.48
8807.94
8341.42
7819.91
7243.37
6611.75
5925.04
5183.17
4386.13
1762.61
1700.11
1639.66
1581.11
)


20
(
10707.6
10679.5
10595.3
10454.8
10258.1
10005.2
9696.07
9330.67
8908.99
8430.99
7896.65
7305.93
6658.79
5955.21
5195.13
4378.52
1690.63
1626.6
1564.66
1504.68
)


20
(
10701.2
10672.8
10587.9
10446.2
10247.9
9992.96
9681.28
9312.88
8887.73
8405.82
7867.09
7271.53
6619.1
5909.76
5143.47
4320.21
1610.42
1545.88
1483.43
1422.96
)


20
(
10544.1
10516
10431.7
10291.1
10094.4
9841.34
9532.04
9166.46
8744.57
8266.35
7731.76
7140.77
6493.36
5789.48
5029.1
4212.19
1523.32
1459.27
1397.31
1337.3
)


20
(
10239.1
10211.6
10129.3
9992.03
9799.88
9552.8
9250.78
8893.8
8481.84
8014.87
7492.87
6915.8
6283.63
5596.33
4853.88
4056.22
1430.75
1368.22
1307.72
1249.12
)


20
(
9790.83
9764.48
9685.42
9553.65
9369.16
9131.94
8841.97
8499.24
8103.72
7655.39
7154.22
6600.19
5993.26
5333.41
4620.61
3854.82
1334.24
1274.2
1216.11
1159.86
)


20
(
9206.4
9181.56
9107.04
8982.83
8808.93
8585.31
8311.98
7988.91
7616.09
7193.48
6721.08
6198.84
5626.75
5004.78
4332.89
3611.07
1235.2
1178.61
1123.86
1070.84
)


20
(
8494.56
8471.63
8402.82
8288.14
8127.57
7921.1
7668.73
7370.44
7026.21
6636.01
6199.84
5717.66
5189.45
4615.18
3994.84
3328.39
1134.79
1082.54
1031.99
983.037
)


20
(
7665.42
7644.75
7582.74
7479.4
7334.71
7148.66
6921.24
6652.45
6342.25
5990.65
5597.6
5163.11
4687.13
4169.66
3610.67
3010.13
1033.5
986.412
940.863
896.751
)


20
(
6729.83
6711.75
6657.54
6567.17
6440.64
6277.95
6079.09
5844.04
5572.79
5265.33
4921.64
4541.7
4125.49
3672.99
3184.18
2659.05
930.608
889.436
849.606
811.033
)


20
(
5698.12
5682.93
5637.36
5561.39
5455.03
5318.28
5151.12
4953.54
4725.53
4467.08
4178.17
3858.8
3508.94
3128.57
2717.69
2276.26
823.35
788.741
755.261
722.836
)


20
(
4579.03
4566.96
4530.74
4470.38
4385.87
4277.21
4144.39
3987.39
3806.22
3600.86
3371.3
3117.53
2839.53
2537.3
2210.82
1860.07
705.607
678.108
651.505
625.741
)


20
(
3378.19
3369.43
3343.15
3299.34
3238
3159.13
3062.72
2948.78
2817.28
2668.23
2501.61
2317.43
2115.66
1896.3
1659.35
1404.78
566.899
546.94
527.632
508.934
)


20
(
2101.48
2096.16
2080.21
2053.62
2016.39
1968.52
1910
1840.84
1761.04
1670.58
1569.46
1457.69
1335.25
1202.14
1058.36
903.899
395.515
383.405
371.69
360.345
)


20
(
768.51
766.713
761.325
752.344
739.772
723.607
703.852
680.507
653.572
623.048
588.936
551.237
509.952
465.082
416.629
364.592
193.35
189.271
185.324
181.502
)


20
(
2411.09
2409.44
2404.49
2396.23
2384.66
2369.76
2351.52
2329.93
2304.97
2276.62
2244.85
2209.64
2170.97
2128.8
2083.12
2033.88
1871.55
1867.69
1863.96
1860.34
)


20
(
3611.5
3606.27
3590.57
3564.39
3527.74
3480.59
3422.94
3354.76
3276.04
3186.75
3086.87
2976.37
2855.23
2723.41
2580.89
2427.63
1922.92
1910.9
1899.28
1888.02
)


20
(
4771.36
4762.63
4736.43
4692.76
4631.62
4552.98
4456.83
4343.16
4211.95
4063.16
3896.78
3712.76
3511.1
3291.74
3054.66
2799.83
1960.82
1940.84
1921.51
1902.8
)


20
(
5872.79
5860.7
5824.42
5763.96
5679.3
5570.43
5437.33
5279.98
5098.36
4892.45
4662.21
4407.62
4128.64
3825.23
3497.38
3145.03
1985.07
1957.44
1930.72
1904.84
)


20
(
6898.76
6883.5
6837.73
6761.43
6654.61
6517.23
6349.29
6150.77
5921.64
5661.87
5371.43
5050.3
4698.44
4315.81
3902.38
3458.11
1995.6
1960.77
1927.07
1894.44
)


20
(
7833.39
7815.2
7760.66
7669.74
7542.44
7378.74
7178.63
6942.08
6669.07
6359.57
6013.55
5630.97
5211.81
4756.02
4263.56
3734.41
1992.53
1951.04
1910.91
1872.04
)


20
(
8662.15
8641.33
8578.88
8474.78
8329.02
8141.6
7912.49
7641.66
7329.1
6974.78
6578.65
6140.69
5660.87
5139.14
4575.46
3969.8
1976.13
1928.64
1882.7
1838.22
)


20
(
9372.18
9349.06
9279.68
9164.05
9002.15
8793.97
8539.49
8238.68
7891.52
7497.98
7058.02
6571.61
6038.72
5459.31
4833.33
4160.75
1946.83
1894.1
1843.08
1793.68
)


20
(
9952.43
9927.36
9852.17
9726.84
9551.36
9325.72
9049.89
8723.86
8347.59
7921.06
7444.24
6917.08
6339.56
5711.63
5033.25
4304.38
1905.23
1848.09
1792.8
1739.27
)


20
(
10393.8
10367.2
10287.4
10154.4
9968.09
9728.55
9435.75
9089.65
8690.24
8237.47
7731.32
7171.76
6558.74
5892.22
5172.17
4398.54
1852.09
1791.44
1732.76
1675.94
)


20
(
10689.6
10661.8
10578.6
10440
10245.8
9996.21
9691.07
9330.38
8914.13
8442.29
7914.83
7331.7
6692.87
5998.31
5247.97
4441.82
1788.32
1725.11
1663.97
1604.75
)


20
(
10835
10806.6
10721.3
10579.3
10380.3
10124.5
9811.88
9442.31
9015.81
8532.36
7991.91
7394.44
6739.91
6028.28
5259.52
4433.58
1714.97
1650.21
1587.56
1526.89
)


20
(
10827.9
10799.2
10713.3
10570
10369.5
10111.6
9796.33
9423.72
8993.72
8506.3
7961.42
7359.05
6699.16
5981.72
5206.67
4374
1633.23
1567.95
1504.79
1443.63
)


20
(
10668.4
10640
10554.7
10412.5
10213.5
9957.57
9644.74
9274.98
8848.27
8364.58
7823.89
7226.15
6571.33
5859.41
5090.33
4264.08
1544.47
1479.69
1417.02
1356.33
)


20
(
10359.1
10331.4
10248.1
10109.3
9914.94
9665.03
9359.56
8998.51
8581.84
8109.53
7581.56
6997.9
6358.5
5663.35
4912.4
4105.63
1450.14
1386.89
1325.69
1266.43
)


20
(
9905.06
9878.41
9798.44
9665.17
9478.57
9238.64
8945.36
8598.71
8198.67
7745.21
7238.31
6677.95
6064.08
5396.69
4675.73
3901.19
1351.78
1291.05
1232.3
1175.41
)


20
(
9313.22
9288.1
9212.72
9087.1
8911.2
8685.04
8408.58
8081.82
7704.73
7277.29
6799.49
6271.28
5692.65
5063.56
4383.99
3653.91
1250.87
1193.63
1138.26
1084.63
)


20
(
8592.57
8569.37
8499.77
8383.78
8221.37
8012.55
7757.29
7455.59
7107.42
6712.76
6271.6
5783.91
5249.66
4668.82
4041.38
3367.31
1148.62
1095.77
1044.64
995.129
)


20
(
7753.35
7732.44
7669.73
7565.2
7418.86
7230.68
7000.67
6728.8
6415.06
6059.43
5661.89
5222.42
4741.01
4217.62
3652.23
3044.82
1045.57
997.948
951.877
907.26
)


20
(
6806.62
6788.34
6733.5
6642.09
6514.12
6349.57
6148.44
5910.7
5636.35
5325.37
4977.75
4593.46
4172.49
3714.82
3220.42
2689.28
941.057
899.414
859.128
820.114
)


20
(
5762.84
5747.47
5701.37
5624.54
5516.97
5378.65
5209.58
5009.74
4779.12
4517.72
4225.51
3902.48
3548.61
3163.9
2748.31
2301.84
832.302
797.297
763.433
730.638
)


20
(
4630.83
4618.62
4581.99
4520.94
4435.46
4325.56
4191.21
4032.43
3849.18
3641.47
3409.29
3152.62
2871.44
2565.75
2235.54
1880.78
713.109
685.295
658.387
632.329
)


20
(
3416.21
3407.34
3380.76
3336.45
3274.41
3194.64
3097.13
2981.88
2848.89
2698.13
2529.61
2343.32
2139.25
1917.39
1677.72
1420.25
572.783
552.597
533.068
514.156
)


20
(
2124.75
2119.38
2103.24
2076.34
2038.69
1990.27
1931.09
1861.15
1780.43
1688.94
1586.67
1473.62
1349.78
1215.16
1069.73
913.509
399.321
387.073
375.224
363.749
)


20
(
776.32
774.503
769.054
759.971
747.256
730.909
710.931
687.321
660.081
629.211
594.713
556.587
514.833
469.455
420.451
367.824
194.636
190.51
186.519
182.654
)


20
(
2371.62
2369.99
2365.09
2356.93
2345.5
2330.78
2312.76
2291.43
2266.77
2238.76
2207.37
2172.59
2134.39
2092.74
2047.62
1998.99
1838.65
1834.84
1831.15
1827.58
)


20
(
3556.07
3550.9
3535.4
3509.56
3473.37
3426.83
3369.91
3302.6
3224.89
3136.74
3038.14
2929.06
2809.48
2679.35
2538.66
2387.37
1889.16
1877.3
1865.82
1854.71
)


20
(
4700.58
4691.96
4666.1
4623
4562.64
4485.02
4390.12
4277.92
4148.4
4001.54
3837.31
3655.68
3456.62
3240.11
3006.11
2754.58
1926.46
1906.74
1887.66
1869.19
)


20
(
5787.53
5775.59
5739.79
5680.11
5596.55
5489.09
5357.72
5202.42
5023.16
4819.92
4592.67
4341.39
4066.04
3766.58
3442.99
3095.23
1950.38
1923.11
1896.74
1871.19
)


20
(
6800.1
6785.04
6739.86
6664.56
6559.12
6423.53
6257.78
6061.84
5835.69
5579.31
5292.66
4975.71
4628.44
4250.8
3842.76
3404.28
1960.86
1926.48
1893.22
1861.01
)


20
(
7722.61
7704.66
7650.82
7561.09
7435.45
7273.89
7076.38
6842.92
6573.47
6268.01
5926.5
5548.92
5135.23
4685.39
4199.37
3677.12
1958
1917.05
1877.44
1839.08
)


20
(
8540.73
8520.19
8458.55
8355.81
8211.95
8026.98
7800.85
7533.57
7225.09
6875.39
6484.44
6052.2
5578.64
5063.73
4507.42
3909.68
1942.07
1895.21
1849.87
1805.97
)


20
(
9241.77
9218.95
9150.48
9036.36
8876.57
8671.11
8419.95
8123.07
7780.45
7392.05
6957.85
6477.8
5951.88
5380.04
4762.25
4098.46
1913.51
1861.46
1811.12
1762.36
)


20
(
9814.8
9790.07
9715.85
9592.16
9418.97
9196.28
8924.06
8602.29
8230.95
7810
7339.41
6819.15
6249.18
5629.46
4959.96
4240.63
1872.88
1816.49
1761.93
1709.09
)


20
(
10250.9
10224.6
10145.9
10014.6
9830.71
9594.31
9305.34
8963.77
8569.58
8122.74
7623.21
7070.97
6465.97
5808.18
5097.55
4334.06
1820.95
1761.08
1703.17
1647.09
)


20
(
10543.3
10515.9
10433.8
10297
10105.4
9859.01
9557.86
9201.89
8791.09
8325.42
7804.86
7229.37
6598.9
5913.44
5172.92
4377.33
1758.58
1696.2
1635.86
1577.42
)


20
(
10687.4
10659.4
10575.3
10435
10238.7
9986.27
9677.7
9312.97
8892.06
8414.93
7881.56
7291.91
6645.95
5943.65
5184.95
4369.83
1686.83
1622.92
1561.1
1501.22
)


20
(
10681.1
10652.8
10568
10426.6
10228.7
9974.15
9663.04
9295.31
8870.94
8389.9
7852.15
7257.68
6606.43
5898.38
5133.49
4311.73
1606.87
1542.44
1480.12
1419.75
)


20
(
10524.4
10496.4
10412.2
10271.9
10075.5
9822.91
9514.18
9149.27
8728.15
8250.79
7717.18
7127.27
6481.03
5778.43
5019.44
4204.01
1520.04
1456.11
1394.26
1334.36
)


20
(
10220
10192.6
10110.4
9973.45
9781.64
9535.01
9233.54
8877.21
8466
7999.88
7478.83
6902.81
6271.79
5585.75
4844.64
4048.44
1427.76
1365.33
1304.94
1246.46
)


20
(
9772.73
9746.42
9667.51
9535.98
9351.83
9115.04
8825.6
8483.49
8088.69
7641.17
7140.92
6587.89
5982.07
5323.43
4611.92
3847.52
1331.53
1271.6
1213.62
1157.48
)


20
(
9189.47
9164.68
9090.29
8966.31
8792.72
8569.52
8296.68
7974.2
7602.06
7180.22
6708.68
6187.39
5616.34
4995.5
4324.84
3604.33
1232.79
1176.3
1121.65
1068.73
)


20
(
8479.04
8456.14
8387.46
8272.99
8112.71
7906.62
7654.71
7356.96
7013.35
6623.87
6188.49
5707.19
5179.94
4606.72
3987.51
3322.27
1132.67
1080.51
1030.06
981.193
)


20
(
7651.49
7630.86
7568.97
7465.81
7321.38
7135.67
6908.67
6640.36
6330.73
5979.77
5587.44
5153.74
4678.63
4162.1
3604.13
3004.69
1031.65
984.652
939.186
895.154
)


20
(
6717.67
6699.63
6645.51
6555.3
6429.01
6266.62
6068.12
5833.5
5562.74
5255.84
4912.77
4533.52
4118.07
3666.4
3178.49
2654.31
929.017
887.92
848.162
809.659
)


20
(
5687.89
5672.72
5627.23
5551.4
5445.24
5308.73
5141.88
4944.66
4717.06
4459.08
4170.71
3851.91
3502.69
3123.02
2712.88
2272.26
821.995
787.449
754.029
721.664
)


20
(
4570.85
4558.8
4522.65
4462.4
4378.04
4269.58
4137
3980.29
3799.45
3594.46
3365.32
3112.01
2834.52
2532.84
2206.95
1856.84
704.483
677.033
650.479
624.762
)


20
(
3372.21
3363.46
3337.22
3293.49
3232.27
3153.54
3057.31
2943.57
2812.31
2663.53
2497.22
2313.37
2111.97
1893.01
1656.49
1402.39
566.028
546.106
526.834
508.169
)


20
(
2097.82
2092.51
2076.59
2050.04
2012.88
1965.1
1906.69
1837.66
1758
1667.7
1566.77
1455.2
1332.98
1200.12
1056.6
902.416
394.957
382.869
371.176
359.851
)


20
(
767.274
765.481
760.103
751.138
738.588
722.453
702.734
679.43
652.544
622.075
588.025
550.394
509.183
464.395
416.028
364.086
193.154
189.082
185.142
181.327
)


20
(
2403.42
2401.77
2396.83
2388.59
2377.04
2362.18
2343.99
2322.45
2297.55
2269.26
2237.57
2202.45
2163.87
2121.81
2076.24
2027.12
1865.19
1861.34
1857.61
1854.01
)


20
(
3600.64
3595.42
3579.76
3553.65
3517.09
3470.06
3412.55
3344.55
3266.03
3176.96
3077.34
2967.13
2846.29
2714.81
2572.65
2419.78
1916.36
1904.38
1892.78
1881.56
)


20
(
4757.43
4748.72
4722.59
4679.04
4618.05
4539.61
4443.71
4330.34
4199.46
4051.05
3885.1
3701.56
3500.41
3281.62
3045.15
2790.98
1954.13
1934.2
1914.92
1896.25
)


20
(
5855.97
5843.91
5807.73
5747.42
5662.98
5554.39
5421.63
5264.69
5083.54
4878.16
4648.51
4394.58
4116.32
3813.7
3486.69
3135.25
1978.29
1950.74
1924.08
1898.27
)


20
(
6879.26
6864.04
6818.39
6742.29
6635.74
6498.72
6331.21
6133.2
5904.66
5645.57
5355.88
5035.59
4684.63
4303
3890.63
3447.51
1988.79
1954.05
1920.44
1887.89
)


20
(
7811.46
7793.33
7738.92
7648.24
7521.27
7357.99
7158.4
6922.46
6650.16
6341.46
5996.34
5614.75
5196.68
4742.07
4250.89
3723.11
1985.75
1944.37
1904.34
1865.57
)


20
(
8638.1
8617.34
8555.04
8451.21
8305.84
8118.9
7890.38
7620.26
7308.51
6955.1
6560
6123.18
5644.6
5124.22
4562.01
3957.92
1969.42
1922.06
1876.24
1831.87
)


20
(
9346.33
9323.26
9254.07
9138.74
8977.26
8769.62
8515.79
8215.77
7869.51
7476.99
7038.17
6553.03
6021.52
5443.61
4819.26
4148.42
1940.26
1887.66
1836.78
1787.5
)


20
(
9925.13
9900.13
9825.13
9700.12
9525.1
9300.04
9024.93
8699.75
8324.46
7899.04
7423.45
6897.67
6321.64
5695.34
5018.73
4291.75
1898.84
1841.84
1786.7
1733.3
)


20
(
10365.5
10338.9
10259.3
10126.6
9940.82
9701.91
9409.87
9064.67
8666.3
8214.71
7709.87
7151.76
6540.33
5875.55
5157.37
4385.76
1845.93
1785.43
1726.9
1670.22
)


20
(
10660.5
10632.9
10549.9
10411.6
10218
9968.97
9664.62
9304.87
8889.71
8419.09
7893
7311.38
6674.22
5981.46
5233.07
4429.02
1782.42
1719.38
1658.39
1599.33
)


20
(
10805.7
10777.3
10692.3
10550.6
10352.2
10097.1
9785.23
9416.62
8991.23
8509.03
7969.99
7374.08
6721.25
6011.47
5244.71
4420.91
1709.37
1644.79
1582.3
1521.79
)


20
(
10798.7
10770.1
10684.4
10541.5
10341.5
10084.3
9769.85
9398.21
8969.33
8483.17
7939.71
7338.91
6680.74
5965.16
5192.13
4361.62
1627.99
1562.87
1499.88
1438.88
)


20
(
10639.8
10611.4
10526.4
10384.6
10186.1
9930.81
9618.79
9250
8824.4
8341.97
7802.68
7206.49
6553.38
5843.31
5076.24
4252.13
1539.6
1474.99
1412.48
1351.95
)


20
(
10331.5
10303.8
10220.7
10082.3
9888.44
9639.19
9334.52
8974.4
8558.81
8087.73
7561.14
6978.99
6341.26
5647.92
4898.92
4094.25
1445.67
1382.58
1321.55
1262.44
)


20
(
9878.75
9852.17
9772.42
9639.49
9453.38
9214.07
8921.55
8575.8
8176.8
7724.52
7218.95
6660.04
6047.77
5382.11
4663.03
3890.5
1347.73
1287.16
1228.57
1171.82
)


20
(
9288.62
9263.56
9188.39
9063.08
8887.65
8662.07
8386.33
8060.42
7684.31
7257.99
6781.43
6254.59
5677.47
5050.02
4372.22
3644.04
1247.25
1190.16
1134.93
1081.44
)


20
(
8569.99
8546.86
8477.44
8361.75
8199.77
7991.49
7736.9
7435.98
7088.71
6695.08
6255.07
5768.64
5235.78
4656.46
4030.66
3358.34
1145.42
1092.71
1041.72
992.334
)


20
(
7733.1
7712.25
7649.7
7545.44
7399.48
7211.79
6982.37
6711.21
6398.29
6043.58
5647.08
5208.76
4728.6
4206.57
3642.65
3036.83
1042.78
995.281
949.33
904.83
)


20
(
6788.93
6770.7
6716
6624.84
6497.2
6333.07
6132.46
5895.34
5621.71
5311.54
4964.82
4581.53
4161.66
3705.18
3212.07
2682.31
938.641
897.107
856.926
818.013
)


20
(
5747.93
5732.61
5686.63
5610
5502.7
5364.74
5196.11
4996.79
4766.78
4506.05
4214.6
3892.41
3539.47
3155.76
2741.25
2295.94
830.231
795.318
761.542
728.833
)


20
(
4618.89
4606.71
4570.18
4509.29
4424.04
4314.42
4180.42
4022.05
3839.28
3632.12
3400.54
3144.53
2864.09
2559.2
2229.84
1876
711.372
683.631
656.793
630.803
)


20
(
3407.45
3398.61
3372.09
3327.9
3266.02
3186.46
3089.2
2974.25
2841.6
2691.24
2523.16
2337.35
2133.81
1912.52
1673.48
1416.68
571.42
551.286
531.808
512.945
)


20
(
2119.39
2114.03
2097.93
2071.11
2033.55
1985.26
1926.23
1856.47
1775.96
1684.7
1582.7
1469.95
1346.43
1212.15
1067.11
911.29
398.438
386.222
374.404
362.959
)


20
(
774.521
772.709
767.273
758.214
745.532
729.227
709.3
685.751
658.581
627.791
593.382
555.354
513.709
468.447
419.57
367.078
194.339
190.224
186.243
182.387
)


20
(
2403.42
2401.77
2396.83
2388.59
2377.04
2362.18
2343.99
2322.45
2297.55
2269.26
2237.57
2202.45
2163.87
2121.81
2076.24
2027.12
1865.19
1861.34
1857.61
1854.01
)


20
(
3600.64
3595.42
3579.76
3553.65
3517.09
3470.06
3412.55
3344.55
3266.03
3176.96
3077.34
2967.13
2846.29
2714.81
2572.65
2419.78
1916.36
1904.38
1892.78
1881.56
)


20
(
4757.43
4748.72
4722.59
4679.04
4618.05
4539.61
4443.72
4330.34
4199.46
4051.05
3885.1
3701.56
3500.41
3281.62
3045.15
2790.98
1954.13
1934.2
1914.92
1896.25
)


20
(
5855.97
5843.91
5807.73
5747.42
5662.98
5554.39
5421.63
5264.69
5083.54
4878.16
4648.51
4394.58
4116.32
3813.7
3486.69
3135.25
1978.29
1950.74
1924.08
1898.27
)


20
(
6879.26
6864.04
6818.39
6742.29
6635.74
6498.72
6331.21
6133.2
5904.66
5645.57
5355.88
5035.58
4684.63
4303
3890.63
3447.51
1988.79
1954.05
1920.44
1887.89
)


20
(
7811.46
7793.33
7738.92
7648.24
7521.27
7357.99
7158.4
6922.46
6650.16
6341.46
5996.34
5614.75
5196.68
4742.07
4250.89
3723.11
1985.75
1944.37
1904.34
1865.57
)


20
(
8638.1
8617.34
8555.04
8451.21
8305.84
8118.9
7890.38
7620.26
7308.51
6955.1
6560
6123.18
5644.6
5124.22
4562.01
3957.92
1969.42
1922.06
1876.24
1831.87
)


20
(
9346.33
9323.26
9254.07
9138.74
8977.26
8769.62
8515.79
8215.77
7869.51
7476.99
7038.17
6553.03
6021.52
5443.61
4819.26
4148.42
1940.26
1887.66
1836.78
1787.5
)


20
(
9925.13
9900.13
9825.13
9700.12
9525.1
9300.04
9024.93
8699.75
8324.46
7899.04
7423.45
6897.67
6321.64
5695.34
5018.73
4291.75
1898.84
1841.84
1786.7
1733.3
)


20
(
10365.5
10338.9
10259.3
10126.6
9940.82
9701.91
9409.87
9064.67
8666.3
8214.71
7709.87
7151.76
6540.33
5875.55
5157.37
4385.76
1845.93
1785.43
1726.9
1670.22
)


20
(
10660.5
10632.9
10549.9
10411.6
10218
9968.97
9664.62
9304.87
8889.71
8419.09
7892.99
7311.38
6674.22
5981.46
5233.07
4429.02
1782.42
1719.38
1658.39
1599.33
)


20
(
10805.7
10777.3
10692.3
10550.6
10352.2
10097.1
9785.23
9416.62
8991.23
8509.03
7969.99
7374.08
6721.25
6011.47
5244.71
4420.91
1709.37
1644.79
1582.3
1521.79
)


20
(
10798.7
10770.1
10684.4
10541.5
10341.5
10084.3
9769.85
9398.21
8969.33
8483.17
7939.71
7338.91
6680.74
5965.16
5192.13
4361.62
1627.99
1562.87
1499.88
1438.88
)


20
(
10639.8
10611.4
10526.4
10384.6
10186.1
9930.81
9618.79
9250
8824.4
8341.97
7802.68
7206.49
6553.38
5843.31
5076.24
4252.13
1539.6
1474.99
1412.48
1351.95
)


20
(
10331.5
10303.8
10220.7
10082.3
9888.44
9639.19
9334.52
8974.4
8558.81
8087.73
7561.14
6978.99
6341.26
5647.92
4898.92
4094.25
1445.67
1382.58
1321.55
1262.44
)


20
(
9878.75
9852.17
9772.42
9639.49
9453.38
9214.07
8921.55
8575.8
8176.8
7724.52
7218.95
6660.04
6047.77
5382.11
4663.03
3890.5
1347.73
1287.16
1228.57
1171.82
)


20
(
9288.62
9263.56
9188.39
9063.08
8887.65
8662.07
8386.33
8060.42
7684.31
7257.99
6781.43
6254.59
5677.47
5050.02
4372.22
3644.04
1247.25
1190.16
1134.93
1081.44
)


20
(
8569.99
8546.86
8477.44
8361.75
8199.77
7991.49
7736.89
7435.98
7088.71
6695.08
6255.07
5768.64
5235.78
4656.46
4030.66
3358.34
1145.42
1092.71
1041.72
992.334
)


20
(
7733.1
7712.25
7649.7
7545.44
7399.48
7211.79
6982.37
6711.21
6398.29
6043.58
5647.08
5208.76
4728.59
4206.57
3642.65
3036.83
1042.78
995.281
949.33
904.83
)


20
(
6788.93
6770.7
6716
6624.83
6497.2
6333.07
6132.46
5895.34
5621.71
5311.54
4964.82
4581.53
4161.66
3705.18
3212.07
2682.31
938.641
897.107
856.926
818.013
)


20
(
5747.93
5732.61
5686.63
5609.99
5502.7
5364.74
5196.11
4996.79
4766.77
4506.05
4214.6
3892.41
3539.47
3155.76
2741.25
2295.94
830.231
795.318
761.542
728.833
)


20
(
4618.89
4606.72
4570.18
4509.29
4424.04
4314.42
4180.43
4022.05
3839.28
3632.12
3400.54
3144.53
2864.09
2559.2
2229.84
1876
711.373
683.631
656.794
630.803
)


20
(
3407.45
3398.61
3372.09
3327.9
3266.02
3186.46
3089.2
2974.25
2841.6
2691.24
2523.16
2337.35
2133.81
1912.52
1673.48
1416.68
571.42
551.286
531.808
512.945
)


20
(
2119.39
2114.03
2097.93
2071.11
2033.55
1985.26
1926.23
1856.47
1775.96
1684.7
1582.7
1469.95
1346.43
1212.15
1067.11
911.29
398.438
386.222
374.404
362.959
)


20
(
774.521
772.709
767.273
758.214
745.532
729.227
709.3
685.751
658.581
627.791
593.382
555.354
513.709
468.447
419.57
367.078
194.339
190.224
186.243
182.387
)


20
(
2371.62
2369.99
2365.09
2356.93
2345.5
2330.78
2312.76
2291.43
2266.77
2238.76
2207.37
2172.59
2134.39
2092.74
2047.62
1998.99
1838.66
1834.84
1831.16
1827.59
)


20
(
3556.07
3550.9
3535.4
3509.56
3473.37
3426.83
3369.91
3302.6
3224.89
3136.74
3038.14
2929.06
2809.48
2679.35
2538.66
2387.37
1889.16
1877.3
1865.82
1854.71
)


20
(
4700.58
4691.96
4666.11
4623
4562.65
4485.03
4390.12
4277.92
4148.4
4001.54
3837.31
3655.68
3456.63
3240.11
3006.11
2754.58
1926.46
1906.74
1887.67
1869.19
)


20
(
5787.53
5775.59
5739.79
5680.11
5596.55
5489.09
5357.72
5202.42
5023.16
4819.92
4592.68
4341.39
4066.04
3766.59
3443
3095.24
1950.38
1923.12
1896.74
1871.2
)


20
(
6800.1
6785.04
6739.86
6664.56
6559.12
6423.53
6257.78
6061.84
5835.69
5579.31
5292.66
4975.71
4628.44
4250.8
3842.76
3404.28
1960.86
1926.48
1893.22
1861.02
)


20
(
7722.61
7704.66
7650.83
7561.09
7435.45
7273.89
7076.39
6842.92
6573.47
6268.01
5926.5
5548.92
5135.23
4685.39
4199.37
3677.12
1958
1917.06
1877.44
1839.08
)


20
(
8540.74
8520.19
8458.55
8355.81
8211.96
8026.98
7800.86
7533.57
7225.09
6875.39
6484.44
6052.2
5578.65
5063.73
4507.42
3909.68
1942.08
1895.21
1849.87
1805.97
)


20
(
9241.77
9218.95
9150.48
9036.36
8876.57
8671.11
8419.95
8123.07
7780.45
7392.05
6957.85
6477.8
5951.88
5380.04
4762.25
4098.46
1913.51
1861.47
1811.12
1762.36
)


20
(
9814.8
9790.07
9715.86
9592.16
9418.98
9196.28
8924.06
8602.29
8230.95
7810
7339.41
6819.15
6249.18
5629.46
4959.96
4240.64
1872.89
1816.49
1761.93
1709.09
)


20
(
10250.9
10224.7
10145.9
10014.6
9830.71
9594.31
9305.34
8963.77
8569.58
8122.74
7623.21
7070.97
6465.97
5808.18
5097.55
4334.06
1820.95
1761.09
1703.18
1647.09
)


20
(
10543.3
10515.9
10433.8
10297
10105.4
9859.01
9557.86
9201.89
8791.09
8325.43
7804.86
7229.37
6598.91
5913.44
5172.92
4377.33
1758.58
1696.2
1635.86
1577.42
)


20
(
10687.4
10659.4
10575.3
10435
10238.7
9986.27
9677.7
9312.97
8892.06
8414.93
7881.56
7291.91
6645.95
5943.65
5184.95
4369.83
1686.83
1622.92
1561.1
1501.22
)


20
(
10681.1
10652.8
10568
10426.6
10228.7
9974.15
9663.04
9295.31
8870.94
8389.9
7852.15
7257.68
6606.43
5898.38
5133.5
4311.73
1606.87
1542.45
1480.12
1419.75
)


20
(
10524.4
10496.4
10412.2
10271.9
10075.5
9822.91
9514.18
9149.27
8728.15
8250.79
7717.18
7127.27
6481.03
5778.43
5019.44
4204.01
1520.04
1456.11
1394.26
1334.36
)


20
(
10220
10192.6
10110.4
9973.45
9781.64
9535.01
9233.54
8877.22
8466
7999.88
7478.83
6902.81
6271.8
5585.75
4844.65
4048.44
1427.76
1365.33
1304.94
1246.46
)


20
(
9772.73
9746.42
9667.51
9535.98
9351.83
9115.04
8825.6
8483.49
8088.69
7641.17
7140.92
6587.9
5982.08
5323.43
4611.92
3847.52
1331.54
1271.6
1213.63
1157.48
)


20
(
9189.48
9164.68
9090.29
8966.31
8792.72
8569.52
8296.69
7974.21
7602.06
7180.22
6708.68
6187.39
5616.34
4995.5
4324.84
3604.33
1232.79
1176.3
1121.65
1068.73
)


20
(
8479.04
8456.14
8387.46
8272.99
8112.71
7906.62
7654.71
7356.96
7013.35
6623.87
6188.49
5707.19
5179.94
4606.72
3987.51
3322.27
1132.67
1080.52
1030.06
981.194
)


20
(
7651.49
7630.86
7568.97
7465.81
7321.38
7135.67
6908.67
6640.36
6330.74
5979.77
5587.44
5153.74
4678.63
4162.1
3604.13
3004.69
1031.65
984.653
939.187
895.155
)


20
(
6717.67
6699.63
6645.51
6555.3
6429.01
6266.62
6068.12
5833.5
5562.74
5255.84
4912.77
4533.52
4118.07
3666.4
3178.49
2654.31
929.017
887.921
848.163
809.66
)


20
(
5687.89
5672.72
5627.23
5551.4
5445.24
5308.73
5141.88
4944.66
4717.06
4459.08
4170.71
3851.91
3502.69
3123.02
2712.88
2272.26
821.995
787.45
754.03
721.665
)


20
(
4570.85
4558.8
4522.65
4462.4
4378.05
4269.58
4137
3980.29
3799.45
3594.46
3365.32
3112.01
2834.52
2532.84
2206.95
1856.85
704.484
677.034
650.48
624.763
)


20
(
3372.21
3363.46
3337.22
3293.49
3232.27
3153.54
3057.31
2943.57
2812.31
2663.53
2497.22
2313.37
2111.97
1893.01
1656.49
1402.39
566.029
546.107
526.834
508.17
)


20
(
2097.82
2092.51
2076.59
2050.04
2012.88
1965.1
1906.69
1837.66
1758
1667.7
1566.77
1455.2
1332.98
1200.12
1056.6
902.416
394.958
382.87
371.176
359.851
)


20
(
767.275
765.482
760.103
751.138
738.588
722.453
702.734
679.43
652.544
622.075
588.025
550.394
509.183
464.395
416.029
364.086
193.154
189.082
185.142
181.327
)


20
(
2411.09
2409.44
2404.49
2396.23
2384.66
2369.76
2351.52
2329.93
2304.97
2276.62
2244.85
2209.64
2170.97
2128.8
2083.12
2033.88
1871.55
1867.69
1863.96
1860.34
)


20
(
3611.5
3606.27
3590.57
3564.39
3527.74
3480.59
3422.94
3354.76
3276.04
3186.75
3086.87
2976.37
2855.23
2723.41
2580.89
2427.63
1922.92
1910.9
1899.28
1888.02
)


20
(
4771.36
4762.63
4736.43
4692.76
4631.62
4552.98
4456.84
4343.17
4211.95
4063.16
3896.78
3712.77
3511.1
3291.74
3054.66
2799.83
1960.82
1940.84
1921.51
1902.8
)


20
(
5872.79
5860.7
5824.42
5763.96
5679.3
5570.43
5437.33
5279.98
5098.36
4892.45
4662.21
4407.62
4128.64
3825.23
3497.38
3145.03
1985.07
1957.44
1930.72
1904.84
)


20
(
6898.76
6883.5
6837.73
6761.43
6654.6
6517.23
6349.29
6150.77
5921.64
5661.87
5371.43
5050.3
4698.44
4315.81
3902.38
3458.11
1995.6
1960.77
1927.07
1894.44
)


20
(
7833.39
7815.2
7760.66
7669.74
7542.44
7378.74
7178.63
6942.08
6669.07
6359.57
6013.55
5630.97
5211.81
4756.02
4263.56
3734.41
1992.53
1951.04
1910.91
1872.04
)


20
(
8662.15
8641.33
8578.88
8474.78
8329.02
8141.6
7912.49
7641.66
7329.1
6974.78
6578.65
6140.69
5660.87
5139.14
4575.46
3969.8
1976.13
1928.64
1882.7
1838.21
)


20
(
9372.18
9349.06
9279.68
9164.05
9002.15
8793.97
8539.49
8238.68
7891.52
7497.97
7058.02
6571.61
6038.72
5459.31
4833.33
4160.75
1946.83
1894.1
1843.08
1793.68
)


20
(
9952.43
9927.36
9852.17
9726.84
9551.36
9325.72
9049.89
8723.86
8347.59
7921.06
7444.24
6917.08
6339.56
5711.63
5033.25
4304.38
1905.23
1848.09
1792.8
1739.27
)


20
(
10393.8
10367.2
10287.4
10154.4
9968.09
9728.55
9435.75
9089.65
8690.24
8237.47
7731.32
7171.76
6558.74
5892.22
5172.17
4398.55
1852.09
1791.44
1732.76
1675.94
)


20
(
10689.6
10661.8
10578.6
10440
10245.8
9996.21
9691.07
9330.38
8914.13
8442.29
7914.83
7331.7
6692.87
5998.31
5247.97
4441.82
1788.32
1725.11
1663.97
1604.75
)


20
(
10835
10806.6
10721.3
10579.3
10380.3
10124.5
9811.88
9442.31
9015.81
8532.36
7991.91
7394.44
6739.91
6028.28
5259.52
4433.58
1714.97
1650.21
1587.56
1526.89
)


20
(
10827.9
10799.2
10713.3
10570
10369.5
10111.6
9796.33
9423.72
8993.72
8506.29
7961.42
7359.05
6699.16
5981.72
5206.67
4374
1633.23
1567.95
1504.79
1443.63
)


20
(
10668.4
10640
10554.7
10412.5
10213.5
9957.56
9644.74
9274.98
8848.27
8364.58
7823.89
7226.15
6571.33
5859.41
5090.33
4264.08
1544.47
1479.69
1417.02
1356.33
)


20
(
10359.1
10331.4
10248.1
10109.3
9914.94
9665.03
9359.56
8998.51
8581.84
8109.53
7581.56
6997.89
6358.5
5663.35
4912.4
4105.63
1450.14
1386.89
1325.69
1266.43
)


20
(
9905.06
9878.41
9798.44
9665.17
9478.57
9238.64
8945.36
8598.71
8198.67
7745.21
7238.31
6677.95
6064.08
5396.69
4675.73
3901.19
1351.78
1291.05
1232.3
1175.41
)


20
(
9313.22
9288.1
9212.72
9087.1
8911.2
8685.04
8408.58
8081.82
7704.73
7277.29
6799.49
6271.28
5692.65
5063.56
4383.99
3653.91
1250.87
1193.63
1138.26
1084.63
)


20
(
8592.56
8569.37
8499.77
8383.78
8221.37
8012.55
7757.29
7455.59
7107.42
6712.76
6271.6
5783.91
5249.65
4668.82
4041.38
3367.31
1148.62
1095.77
1044.64
995.129
)


20
(
7753.35
7732.44
7669.73
7565.2
7418.86
7230.68
7000.67
6728.8
6415.06
6059.43
5661.89
5222.42
4741.01
4217.62
3652.23
3044.82
1045.57
997.948
951.877
907.26
)


20
(
6806.62
6788.34
6733.5
6642.09
6514.12
6349.57
6148.44
5910.7
5636.35
5325.37
4977.75
4593.46
4172.49
3714.82
3220.42
2689.28
941.057
899.414
859.128
820.114
)


20
(
5762.84
5747.47
5701.37
5624.54
5516.97
5378.65
5209.58
5009.74
4779.12
4517.72
4225.51
3902.48
3548.61
3163.9
2748.31
2301.84
832.302
797.297
763.433
730.638
)


20
(
4630.83
4618.62
4581.99
4520.94
4435.46
4325.56
4191.22
4032.43
3849.18
3641.48
3409.29
3152.62
2871.44
2565.76
2235.54
1880.78
713.109
685.295
658.387
632.329
)


20
(
3416.21
3407.35
3380.76
3336.45
3274.41
3194.64
3097.13
2981.88
2848.89
2698.13
2529.61
2343.32
2139.25
1917.39
1677.72
1420.25
572.783
552.597
533.068
514.156
)


20
(
2124.75
2119.38
2103.24
2076.34
2038.69
1990.27
1931.09
1861.15
1780.43
1688.94
1586.67
1473.62
1349.78