/*--------------------------------*- C++ -*----------------------------------*\
| =========                 |                                                 |
| \\      /  F ield         | OpenFOAM: The Open Source CFD Toolbox           |
|  \\    /   O peration     | Version:  2212                                  |
|   \\  /    A nd           | Website:  www.openfoam.com                      |
|    \\/     M anipulation  |                                                 |
\*---------------------------------------------------------------------------*/
FoamFile
{
    version     2.0;
    format      ascii;
    arch        "LSB;label=32;scalar=64";
    class       volScalarField;
    location    "91/neutroRegion";
    object      TFuel;
}
// * * * * * * * * * * * * * * * * * * * * * * * * * * * * * * * * * * * * * //

dimensions      [0 0 0 1 0 0 0];

internalField   nonuniform List<scalar> 
350
(
0
0
0
0
0
0
0
0
0
0
0
0
0
0
0
0
0
0
0
0
0
0
0
0
0
0
0
0
0
0
0
0
0
0
0
0
0
0
0
0
0
0
0
0
0
0
0
0
0
0
2223.33
3010.36
3766.69
4480.77
5141.67
5739.22
6264.21
6708.54
7065.33
7329.05
7495.6
7562.41
7528.46
7394.36
7162.27
6835.9
6420.31
5921.64
5346.65
4702.18
3993.83
3225.09
2395.63
1504.37
564.384
2256.11
3052.34
3817.42
4539.7
5208.11
5812.36
6343.15
6792.28
7152.79
7419.09
7587.06
7654.07
7619.12
7482.81
7247.35
6916.5
6495.41
5990.33
5408.15
4755.85
4039.12
3261.47
2422.48
1520.89
569.931
2218.02
3003.61
3758.56
4471.35
5131.07
5727.57
6251.66
6695.24
7051.46
7314.77
7481.11
7547.89
7514.11
7380.36
7148.81
6823.15
6408.44
5910.79
5336.93
4693.71
3986.69
3219.37
2391.42
1501.79
563.509
2248.72
3042.81
3805.86
4526.24
5192.91
5795.6
6325.04
6773.05
7132.7
7398.4
7566.02
7632.98
7598.26
7462.45
7227.76
6897.94
6478.11
5974.51
5393.98
4743.48
4028.68
3253.08
2416.29
1517.08
568.653
2248.72
3042.81
3805.87
4526.24
5192.9
5795.6
6325.04
6773.05
7132.7
7398.4
7566.02
7632.98
7598.26
7462.45
7227.76
6897.94
6478.11
5974.51
5393.98
4743.48
4028.68
3253.08
2416.29
1517.08
568.653
2218.03
3003.61
3758.56
4471.35
5131.07
5727.57
6251.66
6695.25
7051.46
7314.78
7481.11
7547.89
7514.11
7380.36
7148.81
6823.16
6408.44
5910.79
5336.93
4693.71
3986.69
3219.37
2391.43
1501.79
563.51
2256.11
3052.34
3817.42
4539.7
5208.11
5812.36
6343.15
6792.28
7152.79
7419.09
7587.06
7654.07
7619.12
7482.81
7247.35
6916.5
6495.41
5990.33
5408.15
4755.85
4039.12
3261.47
2422.48
1520.89
569.932
2223.33
3010.36
3766.69
4480.77
5141.66
5739.22
6264.21
6708.54
7065.33
7329.05
7495.6
7562.41
7528.46
7394.35
7162.27
6835.9
6420.31
5921.64
5346.65
4702.18
3993.83
3225.09
2395.63
1504.37
564.384
2248.72
3042.81
3805.87
4526.24
5192.9
5795.6
6325.04
6773.05
7132.7
7398.4
7566.02
7632.98
7598.26
7462.45
7227.76
6897.94
6478.11
5974.51
5393.98
4743.48
4028.68
3253.08
2416.29
1517.08
568.653
2218.02
3003.61
3758.56
4471.35
5131.07
5727.57
6251.66
6695.24
7051.46
7314.77
7481.11
7547.89
7514.11
7380.36
7148.81
6823.15
6408.44
5910.79
5336.93
4693.71
3986.69
3219.37
2391.42
1501.79
563.509
2218.02
3003.61
3758.56
4471.35
5131.07
5727.57
6251.66
6695.25
7051.46
7314.78
7481.11
7547.89
7514.11
7380.36
7148.81
6823.15
6408.44
5910.79
5336.93
4693.71
3986.69
3219.37
2391.42
1501.79
563.51
2248.72
3042.81
3805.87
4526.24
5192.9
5795.6
6325.04
6773.05
7132.7
7398.4
7566.02
7632.98
7598.26
7462.45
7227.76
6897.94
6478.11
5974.51
5393.98
4743.48
4028.68
3253.08
2416.29
1517.08
568.653
)
;

boundaryField
{
    outletCentralUnloaded
    {
        type            zeroGradient;
    }
    inletCentralUnloaded
    {
        type            zeroGradient;
    }
    outletFuelElement
    {
        type            zeroGradient;
    }
    inletFuelElement
    {
        type            zeroGradient;
    }
    defaultFaces
    {
        type            zeroGradient;
    }
}


// ************************************************************************* //
