/*--------------------------------*- C++ -*----------------------------------*\
|       ______          _   __           ______                               |
|      / ____/  ___    / | / /          / ____/  ____   ____ _   ____ ___     |
|     / / __   / _ \  /  |/ /  ______  / /_     / __ \ / __ `/  / __ `__ \    |
|    / /_/ /  /  __/ / /|  /  /_____/ / __/    / /_/ // /_/ /  / / / / / /    |
|    \____/   \___/ /_/ |_/          /_/       \____/ \__,_/  /_/ /_/ /_/     |
|    Copyright (C) 2015 - 2022 EPFL                                           |
\*---------------------------------------------------------------------------*/
FoamFile
{
    version     2.0;
    format      ascii;
    class       volScalarField;
    object      p_rgh;
}
// * * * * * * * * * * * * * * * * * * * * * * * * * * * * * * * * * * * * * //

dimensions      [1 -1 -2 0 0 0 0];

internalField   uniform 1e5;

boundaryField
{
    inlet
        {
        type            timeFieldTable;
        table
        (
        	             
( -1.980000e+00 ( 1.649350e+05 1.649073e+05 1.648727e+05 1.648203e+05 1.647458e+05 1.637912e+05 1.637606e+05 ))
( -1.960000e+00 ( 2.900619e+05 2.900402e+05 2.900075e+05 2.899579e+05 2.898899e+05 2.889996e+05 2.889431e+05 ))
( -1.940000e+00 ( 2.424499e+05 2.424307e+05 2.423981e+05 2.423487e+05 2.422810e+05 2.413908e+05 2.413320e+05 ))
( -1.920000e+00 ( 2.416408e+05 2.416233e+05 2.415907e+05 2.415413e+05 2.414735e+05 2.405834e+05 2.405240e+05 ))
( -1.900000e+00 ( 2.415689e+05 2.415520e+05 2.415194e+05 2.414700e+05 2.414023e+05 2.405121e+05 2.404526e+05 ))
( -1.880000e+00 ( 2.412563e+05 2.412398e+05 2.412073e+05 2.411578e+05 2.410901e+05 2.402000e+05 2.401405e+05 ))
( -1.860000e+00 ( 2.410839e+05 2.410676e+05 2.410351e+05 2.409856e+05 2.409179e+05 2.400278e+05 2.399683e+05 ))
( -1.840000e+00 ( 2.409971e+05 2.409809e+05 2.409483e+05 2.408989e+05 2.408312e+05 2.399411e+05 2.398815e+05 ))
( -1.820000e+00 ( 2.409722e+05 2.409560e+05 2.409235e+05 2.408741e+05 2.408063e+05 2.399162e+05 2.398567e+05 ))
( -1.800000e+00 ( 2.406736e+05 2.406575e+05 2.406250e+05 2.405756e+05 2.405078e+05 2.396177e+05 2.395582e+05 ))
( -1.780000e+00 ( 2.407078e+05 2.406918e+05 2.406592e+05 2.406098e+05 2.405421e+05 2.396520e+05 2.395924e+05 ))
( -1.760000e+00 ( 2.410304e+05 2.410144e+05 2.409818e+05 2.409324e+05 2.408647e+05 2.399746e+05 2.399150e+05 ))
( -1.740000e+00 ( 2.408101e+05 2.407942e+05 2.407616e+05 2.407122e+05 2.406445e+05 2.397543e+05 2.396948e+05 ))
( -1.720000e+00 ( 2.408653e+05 2.408494e+05 2.408168e+05 2.407674e+05 2.406996e+05 2.398095e+05 2.397500e+05 ))
( -1.700000e+00 ( 2.409247e+05 2.409088e+05 2.408762e+05 2.408268e+05 2.407591e+05 2.398689e+05 2.398094e+05 ))
( -1.680000e+00 ( 2.411998e+05 2.411839e+05 2.411513e+05 2.411019e+05 2.410342e+05 2.401440e+05 2.400845e+05 ))
( -1.660000e+00 ( 2.409901e+05 2.409742e+05 2.409417e+05 2.408922e+05 2.408245e+05 2.399344e+05 2.398748e+05 ))
( -1.640000e+00 ( 2.410247e+05 2.410089e+05 2.409763e+05 2.409269e+05 2.408591e+05 2.399690e+05 2.399095e+05 ))
( -1.620000e+00 ( 2.412492e+05 2.412333e+05 2.412008e+05 2.411513e+05 2.410836e+05 2.401935e+05 2.401339e+05 ))
( -1.600000e+00 ( 2.410236e+05 2.410078e+05 2.409752e+05 2.409258e+05 2.408581e+05 2.399680e+05 2.399084e+05 ))
( -1.580000e+00 ( 2.410297e+05 2.410139e+05 2.409813e+05 2.409319e+05 2.408642e+05 2.399740e+05 2.399145e+05 ))
( -1.560000e+00 ( 2.412272e+05 2.412114e+05 2.411788e+05 2.411294e+05 2.410616e+05 2.401715e+05 2.401120e+05 ))
( -1.540000e+00 ( 2.411889e+05 2.411731e+05 2.411405e+05 2.410911e+05 2.410234e+05 2.401333e+05 2.400737e+05 ))
( -1.520000e+00 ( 2.409619e+05 2.409461e+05 2.409136e+05 2.408641e+05 2.407964e+05 2.399063e+05 2.398468e+05 ))
( -1.500000e+00 ( 2.409546e+05 2.409389e+05 2.409063e+05 2.408569e+05 2.407891e+05 2.398990e+05 2.398395e+05 ))
( -1.480000e+00 ( 2.411137e+05 2.410980e+05 2.410654e+05 2.410160e+05 2.409482e+05 2.400581e+05 2.399986e+05 ))
( -1.460000e+00 ( 2.408947e+05 2.408790e+05 2.408464e+05 2.407970e+05 2.407292e+05 2.398391e+05 2.397796e+05 ))
( -1.440000e+00 ( 2.408748e+05 2.408591e+05 2.408265e+05 2.407771e+05 2.407093e+05 2.398192e+05 2.397597e+05 ))
( -1.420000e+00 ( 2.408549e+05 2.408391e+05 2.408065e+05 2.407571e+05 2.406894e+05 2.397993e+05 2.397397e+05 ))
( -1.400000e+00 ( 2.408356e+05 2.408199e+05 2.407873e+05 2.407379e+05 2.406701e+05 2.397800e+05 2.397205e+05 ))
( -1.380000e+00 ( 2.408180e+05 2.408022e+05 2.407696e+05 2.407202e+05 2.406525e+05 2.397624e+05 2.397028e+05 ))
( -1.360000e+00 ( 2.408015e+05 2.407858e+05 2.407532e+05 2.407038e+05 2.406360e+05 2.397459e+05 2.396864e+05 ))
( -1.340000e+00 ( 2.407868e+05 2.407710e+05 2.407385e+05 2.406890e+05 2.406213e+05 2.397312e+05 2.396717e+05 ))
( -1.320000e+00 ( 2.407725e+05 2.407567e+05 2.407241e+05 2.406747e+05 2.406070e+05 2.397169e+05 2.396573e+05 ))
( -1.300000e+00 ( 2.407590e+05 2.407433e+05 2.407107e+05 2.406613e+05 2.405936e+05 2.397035e+05 2.396439e+05 ))
( -1.280000e+00 ( 2.407460e+05 2.407303e+05 2.406977e+05 2.406483e+05 2.405805e+05 2.396904e+05 2.396309e+05 ))
( -1.260000e+00 ( 2.407339e+05 2.407182e+05 2.406856e+05 2.406362e+05 2.405684e+05 2.396783e+05 2.396188e+05 ))
( -1.240000e+00 ( 2.407225e+05 2.407067e+05 2.406742e+05 2.406248e+05 2.405570e+05 2.396669e+05 2.396074e+05 ))
( -1.220000e+00 ( 2.407112e+05 2.406955e+05 2.406629e+05 2.406135e+05 2.405457e+05 2.396556e+05 2.395961e+05 ))
( -1.200000e+00 ( 2.407014e+05 2.406857e+05 2.406531e+05 2.406037e+05 2.405359e+05 2.396458e+05 2.395863e+05 ))
( -1.180000e+00 ( 2.406909e+05 2.406751e+05 2.406426e+05 2.405932e+05 2.405254e+05 2.396353e+05 2.395758e+05 ))
( -1.160000e+00 ( 2.406811e+05 2.406654e+05 2.406328e+05 2.405834e+05 2.405157e+05 2.396256e+05 2.395660e+05 ))
( -1.140000e+00 ( 2.406718e+05 2.406560e+05 2.406235e+05 2.405741e+05 2.405063e+05 2.396162e+05 2.395567e+05 ))
( -1.120000e+00 ( 2.406627e+05 2.406470e+05 2.406144e+05 2.405650e+05 2.404973e+05 2.396071e+05 2.395476e+05 ))
( -1.100000e+00 ( 2.406540e+05 2.406383e+05 2.406057e+05 2.405563e+05 2.404885e+05 2.395984e+05 2.395389e+05 ))
( -1.080000e+00 ( 2.406457e+05 2.406300e+05 2.405974e+05 2.405480e+05 2.404802e+05 2.395901e+05 2.395306e+05 ))
( -1.060000e+00 ( 2.406374e+05 2.406217e+05 2.405891e+05 2.405397e+05 2.404720e+05 2.395818e+05 2.395223e+05 ))
( -1.040000e+00 ( 2.406295e+05 2.406138e+05 2.405813e+05 2.405318e+05 2.404641e+05 2.395740e+05 2.395144e+05 ))
( -1.020000e+00 ( 2.406219e+05 2.406062e+05 2.405736e+05 2.405242e+05 2.404565e+05 2.395663e+05 2.395068e+05 ))
( -1.000000e+00 ( 2.406145e+05 2.405988e+05 2.405662e+05 2.405168e+05 2.404491e+05 2.395590e+05 2.394994e+05 ))
( -9.800000e-01 ( 2.406074e+05 2.405917e+05 2.405591e+05 2.405097e+05 2.404419e+05 2.395518e+05 2.394923e+05 ))
( -9.600000e-01 ( 2.406001e+05 2.405844e+05 2.405518e+05 2.405024e+05 2.404346e+05 2.395445e+05 2.394850e+05 ))
( -9.400000e-01 ( 2.405934e+05 2.405777e+05 2.405451e+05 2.404957e+05 2.404280e+05 2.395378e+05 2.394783e+05 ))
( -9.200000e-01 ( 2.405869e+05 2.405712e+05 2.405386e+05 2.404892e+05 2.404215e+05 2.395314e+05 2.394718e+05 ))
( -9.000000e-01 ( 2.405806e+05 2.405649e+05 2.405324e+05 2.404829e+05 2.404152e+05 2.395251e+05 2.394656e+05 ))
( -8.800000e-01 ( 2.405752e+05 2.405595e+05 2.405269e+05 2.404775e+05 2.404097e+05 2.395196e+05 2.394601e+05 ))
( -8.600000e-01 ( 2.405689e+05 2.405532e+05 2.405206e+05 2.404712e+05 2.404034e+05 2.395133e+05 2.394538e+05 ))
( -8.400000e-01 ( 2.405634e+05 2.405477e+05 2.405151e+05 2.404657e+05 2.403979e+05 2.395078e+05 2.394483e+05 ))
( -8.200000e-01 ( 2.405578e+05 2.405421e+05 2.405095e+05 2.404601e+05 2.403923e+05 2.395022e+05 2.394427e+05 ))
( -8.000000e-01 ( 2.405525e+05 2.405368e+05 2.405042e+05 2.404548e+05 2.403871e+05 2.394970e+05 2.394374e+05 ))
( -7.800000e-01 ( 2.405475e+05 2.405318e+05 2.404992e+05 2.404498e+05 2.403821e+05 2.394920e+05 2.394324e+05 ))
( -7.600000e-01 ( 2.405425e+05 2.405268e+05 2.404943e+05 2.404448e+05 2.403771e+05 2.394870e+05 2.394274e+05 ))
( -7.400000e-01 ( 2.405377e+05 2.405220e+05 2.404894e+05 2.404400e+05 2.403723e+05 2.394822e+05 2.394226e+05 ))
( -7.200000e-01 ( 2.405334e+05 2.405177e+05 2.404851e+05 2.404357e+05 2.403679e+05 2.394778e+05 2.394183e+05 ))
( -7.000000e-01 ( 2.405286e+05 2.405129e+05 2.404803e+05 2.404309e+05 2.403632e+05 2.394731e+05 2.394135e+05 ))
( -6.800000e-01 ( 2.405245e+05 2.405088e+05 2.404763e+05 2.404269e+05 2.403591e+05 2.394690e+05 2.394095e+05 ))
( -6.600000e-01 ( 2.405204e+05 2.405047e+05 2.404721e+05 2.404227e+05 2.403550e+05 2.394649e+05 2.394053e+05 ))
( -6.400000e-01 ( 2.405164e+05 2.405007e+05 2.404681e+05 2.404187e+05 2.403510e+05 2.394609e+05 2.394013e+05 ))
( -6.200000e-01 ( 2.405125e+05 2.404968e+05 2.404643e+05 2.404148e+05 2.403471e+05 2.394570e+05 2.393974e+05 ))
( -6.000000e-01 ( 2.405088e+05 2.404931e+05 2.404606e+05 2.404111e+05 2.403434e+05 2.394533e+05 2.393937e+05 ))
( -5.800000e-01 ( 2.405052e+05 2.404895e+05 2.404570e+05 2.404076e+05 2.403398e+05 2.394497e+05 2.393902e+05 ))
( -5.600000e-01 ( 2.405018e+05 2.404861e+05 2.404535e+05 2.404041e+05 2.403364e+05 2.394462e+05 2.393867e+05 ))
( -5.400000e-01 ( 2.404985e+05 2.404828e+05 2.404502e+05 2.404008e+05 2.403330e+05 2.394429e+05 2.393834e+05 ))
( -5.200000e-01 ( 2.404953e+05 2.404796e+05 2.404470e+05 2.403976e+05 2.403298e+05 2.394397e+05 2.393802e+05 ))
( -5.000000e-01 ( 2.404922e+05 2.404765e+05 2.404439e+05 2.403945e+05 2.403267e+05 2.394366e+05 2.393771e+05 ))
( -4.800000e-01 ( 2.404894e+05 2.404737e+05 2.404411e+05 2.403917e+05 2.403240e+05 2.394339e+05 2.393743e+05 ))
( -4.600000e-01 ( 2.404873e+05 2.404716e+05 2.404390e+05 2.403896e+05 2.403218e+05 2.394317e+05 2.393722e+05 ))
( -4.400000e-01 ( 2.404844e+05 2.404688e+05 2.404362e+05 2.403868e+05 2.403190e+05 2.394289e+05 2.393694e+05 ))
( -4.200000e-01 ( 2.404818e+05 2.404661e+05 2.404335e+05 2.403841e+05 2.403164e+05 2.394263e+05 2.393667e+05 ))
( -4.000000e-01 ( 2.404793e+05 2.404636e+05 2.404310e+05 2.403816e+05 2.403138e+05 2.394237e+05 2.393642e+05 ))
( -3.800000e-01 ( 2.404767e+05 2.404610e+05 2.404284e+05 2.403790e+05 2.403113e+05 2.394212e+05 2.393616e+05 ))
( -3.600000e-01 ( 2.404745e+05 2.404588e+05 2.404262e+05 2.403768e+05 2.403090e+05 2.394189e+05 2.393594e+05 ))
( -3.400000e-01 ( 2.404717e+05 2.404561e+05 2.404235e+05 2.403741e+05 2.403063e+05 2.394162e+05 2.393567e+05 ))
( -3.200000e-01 ( 2.404698e+05 2.404541e+05 2.404216e+05 2.403722e+05 2.403044e+05 2.394143e+05 2.393548e+05 ))
( -3.000000e-01 ( 2.404685e+05 2.404528e+05 2.404202e+05 2.403708e+05 2.403030e+05 2.394129e+05 2.393534e+05 ))
( -2.800000e-01 ( 2.404665e+05 2.404508e+05 2.404183e+05 2.403689e+05 2.403011e+05 2.394110e+05 2.393515e+05 ))
( -2.600000e-01 ( 2.404646e+05 2.404490e+05 2.404164e+05 2.403670e+05 2.402992e+05 2.394091e+05 2.393496e+05 ))
( -2.400000e-01 ( 2.404628e+05 2.404471e+05 2.404146e+05 2.403652e+05 2.402974e+05 2.394073e+05 2.393478e+05 ))
( -2.200000e-01 ( 2.404611e+05 2.404454e+05 2.404128e+05 2.403634e+05 2.402957e+05 2.394056e+05 2.393460e+05 ))
( -2.000000e-01 ( 2.404594e+05 2.404437e+05 2.404112e+05 2.403618e+05 2.402940e+05 2.394039e+05 2.393444e+05 ))
( -1.800000e-01 ( 2.404579e+05 2.404422e+05 2.404096e+05 2.403602e+05 2.402924e+05 2.394023e+05 2.393428e+05 ))
( -1.600000e-01 ( 2.404563e+05 2.404406e+05 2.404080e+05 2.403586e+05 2.402909e+05 2.394008e+05 2.393412e+05 ))
( -1.400000e-01 ( 2.404548e+05 2.404391e+05 2.404066e+05 2.403571e+05 2.402894e+05 2.393993e+05 2.393397e+05 ))
( -1.200000e-01 ( 2.404536e+05 2.404379e+05 2.404053e+05 2.403559e+05 2.402881e+05 2.393980e+05 2.393385e+05 ))
( -1.000000e-01 ( 2.404522e+05 2.404365e+05 2.404039e+05 2.403545e+05 2.402868e+05 2.393967e+05 2.393371e+05 ))
( -8.000000e-02 ( 2.404510e+05 2.404353e+05 2.404027e+05 2.403533e+05 2.402855e+05 2.393954e+05 2.393359e+05 ))
( -6.000000e-02 ( 2.404497e+05 2.404340e+05 2.404015e+05 2.403521e+05 2.402843e+05 2.393942e+05 2.393347e+05 ))
( -4.000000e-02 ( 2.404486e+05 2.404329e+05 2.404004e+05 2.403509e+05 2.402832e+05 2.393931e+05 2.393336e+05 ))
( -2.000000e-02 ( 2.404477e+05 2.404320e+05 2.403994e+05 2.403500e+05 2.402823e+05 2.393921e+05 2.393326e+05 ))
( 1.505740e-15 ( 2.404468e+05 2.404312e+05 2.403986e+05 2.403492e+05 2.402814e+05 2.393913e+05 2.393318e+05 ))
( 2.000000e-02 ( 2.404461e+05 2.404304e+05 2.403979e+05 2.403485e+05 2.402807e+05 2.393906e+05 2.393311e+05 ))
( 4.000000e-02 ( 2.404450e+05 2.404293e+05 2.403967e+05 2.403473e+05 2.402795e+05 2.393894e+05 2.393299e+05 ))
( 6.000000e-02 ( 2.404442e+05 2.404285e+05 2.403959e+05 2.403465e+05 2.402788e+05 2.393887e+05 2.393291e+05 ))
( 8.000000e-02 ( 2.404433e+05 2.404276e+05 2.403950e+05 2.403456e+05 2.402779e+05 2.393878e+05 2.393282e+05 ))
( 1.000000e-01 ( 2.404425e+05 2.404268e+05 2.403943e+05 2.403448e+05 2.402771e+05 2.393870e+05 2.393274e+05 ))
( 1.200000e-01 ( 2.404418e+05 2.404261e+05 2.403936e+05 2.403441e+05 2.402764e+05 2.393863e+05 2.393268e+05 ))
( 1.400000e-01 ( 2.404410e+05 2.404254e+05 2.403928e+05 2.403434e+05 2.402756e+05 2.393855e+05 2.393260e+05 ))
( 1.600000e-01 ( 2.404406e+05 2.404249e+05 2.403923e+05 2.403429e+05 2.402751e+05 2.393850e+05 2.393255e+05 ))
( 1.800000e-01 ( 2.404395e+05 2.404238e+05 2.403912e+05 2.403418e+05 2.402741e+05 2.393840e+05 2.393244e+05 ))
( 2.000000e-01 ( 2.404390e+05 2.404234e+05 2.403908e+05 2.403414e+05 2.402736e+05 2.393835e+05 2.393240e+05 ))
( 2.200000e-01 ( 2.404387e+05 2.404230e+05 2.403905e+05 2.403410e+05 2.402733e+05 2.393832e+05 2.393237e+05 ))
( 2.400000e-01 ( 2.404383e+05 2.404226e+05 2.403901e+05 2.403406e+05 2.402729e+05 2.393828e+05 2.393232e+05 ))
( 2.600000e-01 ( 2.404382e+05 2.404225e+05 2.403899e+05 2.403405e+05 2.402728e+05 2.393826e+05 2.393231e+05 ))
( 2.800000e-01 ( 2.404374e+05 2.404218e+05 2.403892e+05 2.403398e+05 2.402720e+05 2.393819e+05 2.393224e+05 ))
( 3.000000e-01 ( 2.404375e+05 2.404218e+05 2.403892e+05 2.403398e+05 2.402721e+05 2.393820e+05 2.393224e+05 ))
( 3.200000e-01 ( 2.404371e+05 2.404214e+05 2.403888e+05 2.403394e+05 2.402716e+05 2.393815e+05 2.393220e+05 ))
( 3.400000e-01 ( 2.404368e+05 2.404211e+05 2.403885e+05 2.403391e+05 2.402713e+05 2.393812e+05 2.393217e+05 ))
( 3.600000e-01 ( 2.404365e+05 2.404208e+05 2.403882e+05 2.403388e+05 2.402711e+05 2.393809e+05 2.393214e+05 ))
( 3.800000e-01 ( 2.404362e+05 2.404205e+05 2.403880e+05 2.403385e+05 2.402708e+05 2.393807e+05 2.393212e+05 ))
( 4.000000e-01 ( 2.404359e+05 2.404202e+05 2.403877e+05 2.403383e+05 2.402705e+05 2.393804e+05 2.393209e+05 ))
( 4.200000e-01 ( 2.404357e+05 2.404200e+05 2.403875e+05 2.403380e+05 2.402703e+05 2.393802e+05 2.393207e+05 ))
( 4.400000e-01 ( 2.404356e+05 2.404199e+05 2.403873e+05 2.403379e+05 2.402701e+05 2.393800e+05 2.393205e+05 ))
( 4.600000e-01 ( 2.404353e+05 2.404196e+05 2.403870e+05 2.403376e+05 2.402699e+05 2.393798e+05 2.393202e+05 ))
( 4.800000e-01 ( 2.404349e+05 2.404192e+05 2.403866e+05 2.403372e+05 2.402694e+05 2.393793e+05 2.393198e+05 ))
( 5.000000e-01 ( 2.404345e+05 2.404188e+05 2.403862e+05 2.403368e+05 2.402691e+05 2.393789e+05 2.393194e+05 ))
( 5.200000e-01 ( 2.404345e+05 2.404188e+05 2.403863e+05 2.403368e+05 2.402691e+05 2.393790e+05 2.393194e+05 ))
( 5.400000e-01 ( 2.404341e+05 2.404184e+05 2.403859e+05 2.403365e+05 2.402687e+05 2.393786e+05 2.393191e+05 ))
( 5.600000e-01 ( 2.404331e+05 2.404174e+05 2.403848e+05 2.403354e+05 2.402676e+05 2.393775e+05 2.393180e+05 ))
( 5.800000e-01 ( 2.404326e+05 2.404169e+05 2.403844e+05 2.403350e+05 2.402672e+05 2.393771e+05 2.393176e+05 ))
( 6.000000e-01 ( 2.404323e+05 2.404166e+05 2.403840e+05 2.403346e+05 2.402669e+05 2.393768e+05 2.393172e+05 ))
( 6.200000e-01 ( 2.404321e+05 2.404164e+05 2.403838e+05 2.403344e+05 2.402666e+05 2.393765e+05 2.393170e+05 ))
( 6.400000e-01 ( 2.404319e+05 2.404162e+05 2.403836e+05 2.403342e+05 2.402665e+05 2.393763e+05 2.393168e+05 ))
( 6.600000e-01 ( 2.404317e+05 2.404160e+05 2.403834e+05 2.403340e+05 2.402663e+05 2.393762e+05 2.393166e+05 ))
( 6.800000e-01 ( 2.404315e+05 2.404158e+05 2.403833e+05 2.403339e+05 2.402661e+05 2.393760e+05 2.393165e+05 ))
( 7.000000e-01 ( 2.404314e+05 2.404157e+05 2.403831e+05 2.403337e+05 2.402659e+05 2.393758e+05 2.393163e+05 ))
( 7.200000e-01 ( 2.404312e+05 2.404155e+05 2.403830e+05 2.403336e+05 2.402658e+05 2.393757e+05 2.393162e+05 ))
( 7.400000e-01 ( 2.404311e+05 2.404154e+05 2.403828e+05 2.403334e+05 2.402657e+05 2.393756e+05 2.393160e+05 ))
( 7.600000e-01 ( 2.404327e+05 2.404170e+05 2.403844e+05 2.403350e+05 2.402672e+05 2.393771e+05 2.393176e+05 ))
( 7.800000e-01 ( 2.404309e+05 2.404152e+05 2.403827e+05 2.403333e+05 2.402655e+05 2.393754e+05 2.393159e+05 ))
( 8.000000e-01 ( 2.404311e+05 2.404154e+05 2.403828e+05 2.403334e+05 2.402656e+05 2.393755e+05 2.393160e+05 ))
( 8.200000e-01 ( 2.404310e+05 2.404153e+05 2.403827e+05 2.403333e+05 2.402656e+05 2.393755e+05 2.393159e+05 ))
( 8.400000e-01 ( 2.404309e+05 2.404152e+05 2.403827e+05 2.403332e+05 2.402655e+05 2.393754e+05 2.393158e+05 ))
( 8.600000e-01 ( 2.404309e+05 2.404152e+05 2.403826e+05 2.403332e+05 2.402654e+05 2.393753e+05 2.393158e+05 ))
( 8.800000e-01 ( 2.404308e+05 2.404151e+05 2.403825e+05 2.403331e+05 2.402654e+05 2.393752e+05 2.393157e+05 ))
( 9.000000e-01 ( 2.404307e+05 2.404151e+05 2.403825e+05 2.403331e+05 2.402653e+05 2.393752e+05 2.393157e+05 ))
( 9.200000e-01 ( 2.404318e+05 2.404161e+05 2.403835e+05 2.403341e+05 2.402663e+05 2.393762e+05 2.393167e+05 ))
( 9.400000e-01 ( 2.404314e+05 2.404157e+05 2.403832e+05 2.403338e+05 2.402660e+05 2.393759e+05 2.393164e+05 ))
( 9.600000e-01 ( 2.404313e+05 2.404156e+05 2.403831e+05 2.403336e+05 2.402659e+05 2.393758e+05 2.393163e+05 ))
( 9.800000e-01 ( 2.404299e+05 2.404142e+05 2.403816e+05 2.403322e+05 2.402645e+05 2.393744e+05 2.393148e+05 ))
( 1.000000e+00 ( 2.404309e+05 2.404152e+05 2.403826e+05 2.403332e+05 2.402655e+05 2.393754e+05 2.393158e+05 ))
( 1.020000e+00 ( 2.404317e+05 2.404160e+05 2.403835e+05 2.403341e+05 2.402663e+05 2.393762e+05 2.393167e+05 ))
( 1.040000e+00 ( 2.404315e+05 2.404158e+05 2.403832e+05 2.403338e+05 2.402661e+05 2.393760e+05 2.393164e+05 ))
( 1.060000e+00 ( 2.404314e+05 2.404157e+05 2.403831e+05 2.403337e+05 2.402660e+05 2.393759e+05 2.393163e+05 ))
( 1.080000e+00 ( 2.404315e+05 2.404158e+05 2.403832e+05 2.403338e+05 2.402660e+05 2.393759e+05 2.393164e+05 ))
( 1.100000e+00 ( 2.404304e+05 2.404148e+05 2.403822e+05 2.403328e+05 2.402650e+05 2.393749e+05 2.393154e+05 ))
( 1.120000e+00 ( 2.404307e+05 2.404150e+05 2.403824e+05 2.403330e+05 2.402653e+05 2.393752e+05 2.393156e+05 ))
( 1.140000e+00 ( 2.404314e+05 2.404157e+05 2.403831e+05 2.403337e+05 2.402659e+05 2.393758e+05 2.393163e+05 ))
( 1.160000e+00 ( 2.404312e+05 2.404155e+05 2.403830e+05 2.403335e+05 2.402658e+05 2.393757e+05 2.393161e+05 ))
( 1.180000e+00 ( 2.404312e+05 2.404155e+05 2.403830e+05 2.403335e+05 2.402658e+05 2.393757e+05 2.393161e+05 ))
( 1.200000e+00 ( 2.404312e+05 2.404155e+05 2.403830e+05 2.403335e+05 2.402658e+05 2.393757e+05 2.393161e+05 ))
( 1.220000e+00 ( 2.404316e+05 2.404159e+05 2.403833e+05 2.403339e+05 2.402662e+05 2.393760e+05 2.393165e+05 ))
( 1.240000e+00 ( 2.404317e+05 2.404160e+05 2.403834e+05 2.403340e+05 2.402663e+05 2.393761e+05 2.393166e+05 ))
( 1.260000e+00 ( 2.404318e+05 2.404161e+05 2.403835e+05 2.403341e+05 2.402664e+05 2.393762e+05 2.393167e+05 ))
( 1.280000e+00 ( 2.404312e+05 2.404155e+05 2.403830e+05 2.403336e+05 2.402658e+05 2.393757e+05 2.393162e+05 ))
( 1.300000e+00 ( 2.404319e+05 2.404162e+05 2.403836e+05 2.403342e+05 2.402665e+05 2.393763e+05 2.393168e+05 ))
( 1.320000e+00 ( 2.404314e+05 2.404157e+05 2.403831e+05 2.403337e+05 2.402659e+05 2.393758e+05 2.393163e+05 ))
( 1.340000e+00 ( 2.404315e+05 2.404159e+05 2.403833e+05 2.403339e+05 2.402661e+05 2.393760e+05 2.393165e+05 ))
( 1.360000e+00 ( 2.404316e+05 2.404159e+05 2.403833e+05 2.403339e+05 2.402662e+05 2.393760e+05 2.393165e+05 ))
( 1.380000e+00 ( 2.404317e+05 2.404160e+05 2.403834e+05 2.403340e+05 2.402662e+05 2.393761e+05 2.393166e+05 ))
( 1.400000e+00 ( 2.404316e+05 2.404159e+05 2.403833e+05 2.403339e+05 2.402662e+05 2.393761e+05 2.393165e+05 ))
( 1.420000e+00 ( 2.404320e+05 2.404163e+05 2.403838e+05 2.403343e+05 2.402666e+05 2.393765e+05 2.393169e+05 ))
( 1.440000e+00 ( 2.404320e+05 2.404163e+05 2.403837e+05 2.403343e+05 2.402666e+05 2.393765e+05 2.393169e+05 ))
( 1.460000e+00 ( 2.404321e+05 2.404164e+05 2.403838e+05 2.403344e+05 2.402667e+05 2.393766e+05 2.393170e+05 ))
( 1.480000e+00 ( 2.404318e+05 2.404161e+05 2.403835e+05 2.403341e+05 2.402664e+05 2.393763e+05 2.393167e+05 ))
( 1.500000e+00 ( 2.404320e+05 2.404163e+05 2.403838e+05 2.403344e+05 2.402666e+05 2.393765e+05 2.393170e+05 ))
( 1.520000e+00 ( 2.404321e+05 2.404164e+05 2.403839e+05 2.403345e+05 2.402667e+05 2.393766e+05 2.393171e+05 ))
( 1.540000e+00 ( 2.404322e+05 2.404165e+05 2.403839e+05 2.403345e+05 2.402668e+05 2.393767e+05 2.393171e+05 ))
( 1.560000e+00 ( 2.404319e+05 2.404162e+05 2.403837e+05 2.403343e+05 2.402665e+05 2.393764e+05 2.393169e+05 ))
( 1.580000e+00 ( 2.404321e+05 2.404164e+05 2.403838e+05 2.403344e+05 2.402666e+05 2.393765e+05 2.393170e+05 ))
( 1.600000e+00 ( 2.404322e+05 2.404165e+05 2.403839e+05 2.403345e+05 2.402667e+05 2.393766e+05 2.393171e+05 ))
( 1.620000e+00 ( 2.404323e+05 2.404166e+05 2.403840e+05 2.403346e+05 2.402668e+05 2.393767e+05 2.393172e+05 ))
( 1.640000e+00 ( 2.404323e+05 2.404166e+05 2.403841e+05 2.403347e+05 2.402669e+05 2.393768e+05 2.393173e+05 ))
( 1.660000e+00 ( 2.404337e+05 2.404180e+05 2.403854e+05 2.403360e+05 2.402682e+05 2.393781e+05 2.393186e+05 ))
( 1.680000e+00 ( 2.404333e+05 2.404176e+05 2.403850e+05 2.403356e+05 2.402679e+05 2.393777e+05 2.393182e+05 ))
( 1.700000e+00 ( 2.404333e+05 2.404177e+05 2.403851e+05 2.403357e+05 2.402679e+05 2.393778e+05 2.393183e+05 ))
( 1.720000e+00 ( 2.404334e+05 2.404177e+05 2.403852e+05 2.403357e+05 2.402680e+05 2.393779e+05 2.393183e+05 ))
( 1.740000e+00 ( 2.404335e+05 2.404178e+05 2.403853e+05 2.403358e+05 2.402681e+05 2.393780e+05 2.393184e+05 ))
( 1.760000e+00 ( 2.404336e+05 2.404179e+05 2.403853e+05 2.403359e+05 2.402682e+05 2.393781e+05 2.393185e+05 ))
( 1.780000e+00 ( 2.404337e+05 2.404180e+05 2.403854e+05 2.403360e+05 2.402683e+05 2.393782e+05 2.393186e+05 ))
( 1.800000e+00 ( 2.404338e+05 2.404181e+05 2.403855e+05 2.403361e+05 2.402683e+05 2.393782e+05 2.393187e+05 ))
( 1.820000e+00 ( 2.404338e+05 2.404181e+05 2.403856e+05 2.403362e+05 2.402684e+05 2.393783e+05 2.393188e+05 ))
( 1.840000e+00 ( 2.404339e+05 2.404182e+05 2.403856e+05 2.403362e+05 2.402685e+05 2.393784e+05 2.393188e+05 ))
( 1.860000e+00 ( 2.404335e+05 2.404178e+05 2.403852e+05 2.403358e+05 2.402681e+05 2.393780e+05 2.393184e+05 ))
( 1.880000e+00 ( 2.404340e+05 2.404183e+05 2.403857e+05 2.403363e+05 2.402685e+05 2.393784e+05 2.393189e+05 ))
( 1.900000e+00 ( 2.404340e+05 2.404184e+05 2.403858e+05 2.403364e+05 2.402686e+05 2.393785e+05 2.393190e+05 ))
( 1.920000e+00 ( 2.404345e+05 2.404188e+05 2.403862e+05 2.403368e+05 2.402691e+05 2.393790e+05 2.393194e+05 ))
( 1.940000e+00 ( 2.404343e+05 2.404186e+05 2.403860e+05 2.403366e+05 2.402688e+05 2.393787e+05 2.393192e+05 ))
( 1.960000e+00 ( 2.404343e+05 2.404187e+05 2.403861e+05 2.403367e+05 2.402689e+05 2.393788e+05 2.393193e+05 ))
( 1.980000e+00 ( 2.404344e+05 2.404187e+05 2.403862e+05 2.403367e+05 2.402690e+05 2.393789e+05 2.393193e+05 ))
( 2.000000e+00 ( 2.404345e+05 2.404188e+05 2.403862e+05 2.403368e+05 2.402690e+05 2.393789e+05 2.393194e+05 ))
( 2.020000e+00 ( 2.404346e+05 2.404189e+05 2.403863e+05 2.403369e+05 2.402692e+05 2.393790e+05 2.393195e+05 ))
( 2.040000e+00 ( 2.404348e+05 2.404191e+05 2.403865e+05 2.403371e+05 2.402694e+05 2.393792e+05 2.393197e+05 ))
( 2.060000e+00 ( 2.404349e+05 2.404192e+05 2.403867e+05 2.403373e+05 2.402695e+05 2.393794e+05 2.393199e+05 ))
( 2.080000e+00 ( 2.404343e+05 2.404187e+05 2.403861e+05 2.403367e+05 2.402689e+05 2.393788e+05 2.393193e+05 ))
( 2.100000e+00 ( 2.404346e+05 2.404189e+05 2.403863e+05 2.403369e+05 2.402691e+05 2.393790e+05 2.393195e+05 ))
( 2.120000e+00 ( 2.404348e+05 2.404191e+05 2.403866e+05 2.403372e+05 2.402694e+05 2.393793e+05 2.393198e+05 ))
( 2.140000e+00 ( 2.404350e+05 2.404193e+05 2.403867e+05 2.403373e+05 2.402696e+05 2.393794e+05 2.393199e+05 ))
( 2.160000e+00 ( 2.404351e+05 2.404194e+05 2.403869e+05 2.403374e+05 2.402697e+05 2.393796e+05 2.393200e+05 ))
( 2.180000e+00 ( 2.404352e+05 2.404195e+05 2.403869e+05 2.403375e+05 2.402698e+05 2.393797e+05 2.393201e+05 ))
( 2.200000e+00 ( 2.404353e+05 2.404196e+05 2.403870e+05 2.403376e+05 2.402698e+05 2.393797e+05 2.393202e+05 ))
( 2.220000e+00 ( 2.404352e+05 2.404195e+05 2.403869e+05 2.403375e+05 2.402697e+05 2.393796e+05 2.393201e+05 ))
( 2.240000e+00 ( 2.404353e+05 2.404196e+05 2.403870e+05 2.403376e+05 2.402698e+05 2.393797e+05 2.393202e+05 ))
( 2.260000e+00 ( 2.404357e+05 2.404200e+05 2.403874e+05 2.403380e+05 2.402702e+05 2.393801e+05 2.393206e+05 ))
( 2.280000e+00 ( 2.404349e+05 2.404192e+05 2.403867e+05 2.403372e+05 2.402695e+05 2.393794e+05 2.393199e+05 ))
( 2.300000e+00 ( 2.404352e+05 2.404195e+05 2.403870e+05 2.403376e+05 2.402698e+05 2.393797e+05 2.393202e+05 ))
( 2.320000e+00 ( 2.404355e+05 2.404198e+05 2.403872e+05 2.403378e+05 2.402700e+05 2.393799e+05 2.393204e+05 ))
( 2.340000e+00 ( 2.404355e+05 2.404198e+05 2.403872e+05 2.403378e+05 2.402701e+05 2.393799e+05 2.393204e+05 ))
( 2.360000e+00 ( 2.404358e+05 2.404201e+05 2.403875e+05 2.403381e+05 2.402703e+05 2.393802e+05 2.393207e+05 ))
( 2.380000e+00 ( 2.404357e+05 2.404200e+05 2.403874e+05 2.403380e+05 2.402703e+05 2.393802e+05 2.393206e+05 ))
( 2.400000e+00 ( 2.404351e+05 2.404194e+05 2.403868e+05 2.403374e+05 2.402697e+05 2.393795e+05 2.393200e+05 ))
( 2.420000e+00 ( 2.404353e+05 2.404197e+05 2.403871e+05 2.403377e+05 2.402699e+05 2.393798e+05 2.393203e+05 ))
( 2.440000e+00 ( 2.404357e+05 2.404200e+05 2.403875e+05 2.403380e+05 2.402703e+05 2.393802e+05 2.393206e+05 ))
( 2.460000e+00 ( 2.404359e+05 2.404202e+05 2.403876e+05 2.403382e+05 2.402705e+05 2.393803e+05 2.393208e+05 ))
( 2.480000e+00 ( 2.404355e+05 2.404198e+05 2.403872e+05 2.403378e+05 2.402701e+05 2.393799e+05 2.393204e+05 ))
( 2.500000e+00 ( 2.404371e+05 2.404214e+05 2.403888e+05 2.403394e+05 2.402716e+05 2.393815e+05 2.393220e+05 ))
( 2.520000e+00 ( 2.404363e+05 2.404207e+05 2.403881e+05 2.403387e+05 2.402709e+05 2.393808e+05 2.393213e+05 ))
( 2.540000e+00 ( 2.404359e+05 2.404202e+05 2.403876e+05 2.403382e+05 2.402705e+05 2.393804e+05 2.393208e+05 ))
( 2.560000e+00 ( 2.404362e+05 2.404206e+05 2.403880e+05 2.403386e+05 2.402708e+05 2.393807e+05 2.393212e+05 ))
( 2.580000e+00 ( 2.404366e+05 2.404209e+05 2.403883e+05 2.403389e+05 2.402711e+05 2.393810e+05 2.393215e+05 ))
( 2.600000e+00 ( 2.404366e+05 2.404210e+05 2.403884e+05 2.403390e+05 2.402712e+05 2.393811e+05 2.393216e+05 ))
( 2.620000e+00 ( 2.404364e+05 2.404207e+05 2.403881e+05 2.403387e+05 2.402709e+05 2.393808e+05 2.393213e+05 ))
( 2.640000e+00 ( 2.404364e+05 2.404207e+05 2.403881e+05 2.403387e+05 2.402710e+05 2.393809e+05 2.393213e+05 ))
( 2.660000e+00 ( 2.404365e+05 2.404208e+05 2.403882e+05 2.403388e+05 2.402710e+05 2.393809e+05 2.393214e+05 ))
( 2.680000e+00 ( 2.404365e+05 2.404208e+05 2.403882e+05 2.403388e+05 2.402711e+05 2.393810e+05 2.393214e+05 ))
( 2.700000e+00 ( 2.404363e+05 2.404206e+05 2.403881e+05 2.403386e+05 2.402709e+05 2.393808e+05 2.393212e+05 ))
( 2.720000e+00 ( 2.404366e+05 2.404209e+05 2.403884e+05 2.403389e+05 2.402712e+05 2.393811e+05 2.393215e+05 ))
( 2.740000e+00 ( 2.404365e+05 2.404208e+05 2.403882e+05 2.403388e+05 2.402710e+05 2.393809e+05 2.393214e+05 ))
( 2.760000e+00 ( 2.404374e+05 2.404217e+05 2.403891e+05 2.403397e+05 2.402720e+05 2.393819e+05 2.393223e+05 ))
( 2.780000e+00 ( 2.404371e+05 2.404214e+05 2.403889e+05 2.403394e+05 2.402717e+05 2.393816e+05 2.393220e+05 ))
( 2.800000e+00 ( 2.404366e+05 2.404209e+05 2.403883e+05 2.403389e+05 2.402712e+05 2.393811e+05 2.393215e+05 ))
( 2.820000e+00 ( 2.404382e+05 2.404225e+05 2.403899e+05 2.403405e+05 2.402728e+05 2.393827e+05 2.393231e+05 ))
( 2.840000e+00 ( 2.404379e+05 2.404222e+05 2.403896e+05 2.403402e+05 2.402725e+05 2.393824e+05 2.393228e+05 ))
( 2.860000e+00 ( 2.404371e+05 2.404214e+05 2.403888e+05 2.403394e+05 2.402716e+05 2.393815e+05 2.393220e+05 ))
( 2.880000e+00 ( 2.404371e+05 2.404214e+05 2.403888e+05 2.403394e+05 2.402717e+05 2.393816e+05 2.393220e+05 ))
( 2.900000e+00 ( 2.404373e+05 2.404216e+05 2.403890e+05 2.403396e+05 2.402718e+05 2.393817e+05 2.393222e+05 ))
( 2.920000e+00 ( 2.404372e+05 2.404215e+05 2.403889e+05 2.403395e+05 2.402718e+05 2.393817e+05 2.393221e+05 ))
( 2.940000e+00 ( 2.404379e+05 2.404222e+05 2.403896e+05 2.403402e+05 2.402725e+05 2.393823e+05 2.393228e+05 ))
( 2.960000e+00 ( 2.404389e+05 2.404232e+05 2.403906e+05 2.403412e+05 2.402735e+05 2.393834e+05 2.393238e+05 ))
( 2.980000e+00 ( 2.404381e+05 2.404225e+05 2.403899e+05 2.403405e+05 2.402727e+05 2.393826e+05 2.393231e+05 ))
( 3.000000e+00 ( 2.404378e+05 2.404221e+05 2.403895e+05 2.403401e+05 2.402724e+05 2.393823e+05 2.393227e+05 ))
( 3.020000e+00 ( 2.363519e+05 2.363364e+05 2.363043e+05 2.362556e+05 2.361888e+05 2.353114e+05 2.352526e+05 ))
( 3.040000e+00 ( 2.344141e+05 2.343988e+05 2.343671e+05 2.343191e+05 2.342532e+05 2.333883e+05 2.333303e+05 ))
( 3.060000e+00 ( 2.325275e+05 2.325125e+05 2.324812e+05 2.324339e+05 2.323689e+05 2.315162e+05 2.314589e+05 ))
( 3.080000e+00 ( 2.306825e+05 2.306676e+05 2.306368e+05 2.305901e+05 2.305261e+05 2.296853e+05 2.296288e+05 ))
( 3.100000e+00 ( 2.288747e+05 2.288601e+05 2.288297e+05 2.287836e+05 2.287205e+05 2.278914e+05 2.278357e+05 ))
( 3.120000e+00 ( 2.271026e+05 2.270882e+05 2.270583e+05 2.270128e+05 2.269505e+05 2.261330e+05 2.260780e+05 ))
( 3.140000e+00 ( 2.253606e+05 2.253464e+05 2.253168e+05 2.252720e+05 2.252106e+05 2.244043e+05 2.243501e+05 ))
( 3.160000e+00 ( 2.236541e+05 2.236401e+05 2.236109e+05 2.235667e+05 2.235061e+05 2.227109e+05 2.226574e+05 ))
( 3.180000e+00 ( 2.219786e+05 2.219648e+05 2.219360e+05 2.218924e+05 2.218326e+05 2.210482e+05 2.209954e+05 ))
( 3.200000e+00 ( 2.203327e+05 2.203190e+05 2.202906e+05 2.202476e+05 2.201886e+05 2.194149e+05 2.193628e+05 ))