/*--------------------------------*- C++ -*----------------------------------*\
| =========                 |                                                 |
| \\      /  F ield         | OpenFOAM: The Open Source CFD Toolbox           |
|  \\    /   O peration     | Version:  2212                                  |
|   \\  /    A nd           | Website:  www.openfoam.com                      |
|    \\/     M anipulation  |                                                 |
\*---------------------------------------------------------------------------*/
FoamFile
{
    version     2.0;
    format      ascii;
    arch        "LSB;label=32;scalar=64";
    class       volScalarField;
    location    "63/neutroRegion";
    object      TFuel;
}
// * * * * * * * * * * * * * * * * * * * * * * * * * * * * * * * * * * * * * //

dimensions      [0 0 0 1 0 0 0];

internalField   nonuniform List<scalar> 
350
(
0
0
0
0
0
0
0
0
0
0
0
0
0
0
0
0
0
0
0
0
0
0
0
0
0
0
0
0
0
0
0
0
0
0
0
0
0
0
0
0
0
0
0
0
0
0
0
0
0
0
2222.31
3009.36
3765.71
4479.82
5140.74
5738.32
6263.35
6707.71
7064.54
7328.29
7494.88
7561.73
7527.83
7393.76
7161.72
6835.4
6419.86
5921.24
5346.29
4701.87
3993.56
3224.86
2395.45
1504.27
564.428
2255.06
3051.31
3816.42
4538.73
5207.16
5811.45
6342.27
6791.43
7151.98
7418.32
7586.32
7653.38
7618.47
7482.21
7246.8
6916
6494.95
5989.92
5407.79
4755.53
4038.84
3261.23
2422.29
1520.79
569.974
2217
3002.61
3757.58
4470.41
5130.15
5726.68
6250.8
6694.42
7050.66
7314.02
7480.39
7547.21
7513.48
7379.77
7148.27
6822.66
6407.99
5910.39
5336.58
4693.4
3986.42
3219.14
2391.24
1501.69
563.553
2247.67
3041.79
3804.87
4525.28
5191.97
5794.69
6324.17
6772.21
7131.89
7397.62
7565.29
7632.29
7597.61
7461.85
7227.21
6897.43
6477.66
5974.1
5393.62
4743.17
4028.41
3252.85
2416.1
1516.98
568.696
2247.67
3041.79
3804.87
4525.28
5191.97
5794.69
6324.17
6772.21
7131.89
7397.62
7565.29
7632.29
7597.61
7461.85
7227.21
6897.43
6477.66
5974.1
5393.62
4743.17
4028.41
3252.85
2416.1
1516.98
568.696
2217
3002.61
3757.59
4470.41
5130.15
5726.68
6250.8
6694.42
7050.67
7314.02
7480.39
7547.22
7513.48
7379.77
7148.27
6822.66
6407.99
5910.39
5336.58
4693.4
3986.42
3219.14
2391.24
1501.69
563.553
2255.06
3051.31
3816.42
4538.73
5207.16
5811.45
6342.27
6791.43
7151.98
7418.32
7586.32
7653.38
7618.47
7482.21
7246.8
6916
6494.95
5989.92
5407.79
4755.53
4038.84
3261.23
2422.29
1520.79
569.974
2222.31
3009.36
3765.71
4479.82
5140.74
5738.32
6263.35
6707.71
7064.54
7328.29
7494.88
7561.73
7527.82
7393.76
7161.72
6835.4
6419.86
5921.24
5346.29
4701.87
3993.56
3224.86
2395.45
1504.27
564.428
2247.67
3041.79
3804.87
4525.28
5191.97
5794.69
6324.17
6772.21
7131.89
7397.62
7565.29
7632.29
7597.61
7461.85
7227.21
6897.43
6477.66
5974.1
5393.62
4743.17
4028.41
3252.85
2416.1
1516.98
568.696
2217
3002.61
3757.59
4470.41
5130.15
5726.68
6250.8
6694.42
7050.66
7314.02
7480.39
7547.21
7513.48
7379.77
7148.27
6822.66
6407.99
5910.39
5336.58
4693.4
3986.42
3219.14
2391.24
1501.69
563.553
2217
3002.61
3757.59
4470.41
5130.15
5726.68
6250.8
6694.42
7050.67
7314.02
7480.39
7547.22
7513.48
7379.77
7148.27
6822.66
6407.99
5910.39
5336.58
4693.4
3986.42
3219.14
2391.24
1501.69
563.553
2247.67
3041.79
3804.87
4525.28
5191.97
5794.69
6324.17
6772.21
7131.89
7397.62
7565.29
7632.29
7597.61
7461.85
7227.21
6897.43
6477.66
5974.1
5393.62
4743.17
4028.41
3252.85
2416.1
1516.98
568.696
)
;

boundaryField
{
    outletCentralUnloaded
    {
        type            zeroGradient;
    }
    inletCentralUnloaded
    {
        type            zeroGradient;
    }
    outletFuelElement
    {
        type            zeroGradient;
    }
    inletFuelElement
    {
        type            zeroGradient;
    }
    defaultFaces
    {
        type            zeroGradient;
    }
}


// ************************************************************************* //
