/*--------------------------------*- C++ -*----------------------------------*\
| =========                 |                                                 |
| \\      /  F ield         | OpenFOAM: The Open Source CFD Toolbox           |
|  \\    /   O peration     | Version:  2212                                  |
|   \\  /    A nd           | Website:  www.openfoam.com                      |
|    \\/     M anipulation  |                                                 |
\*---------------------------------------------------------------------------*/
FoamFile
{
    version     2.0;
    format      ascii;
    arch        "LSB;label=32;scalar=64";
    class       volTensorField;
    location    "90/fluidRegion";
    object      KdTotU;
}
// * * * * * * * * * * * * * * * * * * * * * * * * * * * * * * * * * * * * * //

dimensions      [1 -2 -2 0 0 0 0];

internalField   nonuniform List<tensor> 
17
(
(5252.12 0 0 0 5252.12 0 0 0 5252.12)
(5252.12 0 0 0 5252.12 0 0 0 5252.12)
(9685.79 0 0 0 9685.79 0 0 0 9685.79)
(14715.5 0 0 0 14715.5 0 0 0 14715.5)
(17893.8 0 0 0 17893.8 0 0 0 17893.8)
(21760.7 0 0 0 21760.7 0 0 0 21760.7)
(26900.6 0 0 0 26900.6 0 0 0 26900.6)
(33986.7 0 0 0 33986.7 0 0 0 33986.7)
(43575.4 0 0 0 43575.4 0 0 0 43575.4)
(55871.3 0 0 0 55871.3 0 0 0 55871.3)
(70478.3 0 0 0 70478.3 0 0 0 70478.3)
(86474.6 0 0 0 86474.6 0 0 0 86474.6)
(102813 0 0 0 102813 0 0 0 102813)
(118716 0 0 0 118716 0 0 0 118716)
(133818 0 0 0 133818 0 0 0 133818)
(148009 0 0 0 148009 0 0 0 148009)
(161599 0 0 0 161599 0 0 0 161599)
)
;

boundaryField
{
    inlet
    {
        type            zeroGradient;
    }
    outlet
    {
        type            zeroGradient;
    }
    fixedWalls
    {
        type            zeroGradient;
    }
}


// ************************************************************************* //
