/*--------------------------------*- C++ -*----------------------------------*\
| =========                 |                                                 |
| \\      /  F ield         | OpenFOAM: The Open Source CFD Toolbox           |
|  \\    /   O peration     | Version:  2212                                  |
|   \\  /    A nd           | Website:  www.openfoam.com                      |
|    \\/     M anipulation  |                                                 |
\*---------------------------------------------------------------------------*/
FoamFile
{
    version     2.0;
    format      ascii;
    arch        "LSB;label=32;scalar=64";
    class       volScalarField;
    location    "90/fluidRegion";
    object      p;
}
// * * * * * * * * * * * * * * * * * * * * * * * * * * * * * * * * * * * * * //

dimensions      [1 -1 -2 0 0 0 0];

internalField   nonuniform List<scalar> 
17
(
1.50141e+07
1.50132e+07
1.50116e+07
1.50073e+07
1.50022e+07
1.49964e+07
1.49894e+07
1.49809e+07
1.49702e+07
1.49567e+07
1.49396e+07
1.49187e+07
1.48936e+07
1.48646e+07
1.48318e+07
1.47953e+07
1.47555e+07
)
;

boundaryField
{
    inlet
    {
        type            calculated;
        value           uniform 1.50146e+07;
    }
    outlet
    {
        type            calculated;
        value           uniform 1.47342e+07;
    }
    fixedWalls
    {
        type            calculated;
        value           nonuniform List<scalar> 
68
(
1.50141e+07
1.50132e+07
1.50116e+07
1.50073e+07
1.50022e+07
1.49964e+07
1.49894e+07
1.49809e+07
1.49702e+07
1.49567e+07
1.49396e+07
1.49187e+07
1.48936e+07
1.48646e+07
1.48318e+07
1.47953e+07
1.47555e+07
1.50141e+07
1.50132e+07
1.50116e+07
1.50073e+07
1.50022e+07
1.49964e+07
1.49894e+07
1.49809e+07
1.49702e+07
1.49567e+07
1.49396e+07
1.49187e+07
1.48936e+07
1.48646e+07
1.48318e+07
1.47953e+07
1.47555e+07
1.50141e+07
1.50132e+07
1.50116e+07
1.50073e+07
1.50022e+07
1.49964e+07
1.49894e+07
1.49809e+07
1.49702e+07
1.49567e+07
1.49396e+07
1.49187e+07
1.48936e+07
1.48646e+07
1.48318e+07
1.47953e+07
1.47555e+07
1.50141e+07
1.50132e+07
1.50116e+07
1.50073e+07
1.50022e+07
1.49964e+07
1.49894e+07
1.49809e+07
1.49702e+07
1.49567e+07
1.49396e+07
1.49187e+07
1.48936e+07
1.48646e+07
1.48318e+07
1.47953e+07
1.47555e+07
)
;
    }
}


// ************************************************************************* //
