/*--------------------------------*- C++ -*----------------------------------*\
| =========                 |                                                 |
| \\      /  F ield         | OpenFOAM: The Open Source CFD Toolbox           |
|  \\    /   O peration     | Version:  2212                                  |
|   \\  /    A nd           | Website:  www.openfoam.com                      |
|    \\/     M anipulation  |                                                 |
\*---------------------------------------------------------------------------*/
FoamFile
{
    version     2.0;
    format      ascii;
    arch        "LSB;label=32;scalar=64";
    class       volScalarField;
    location    "90/fluidRegion";
    object      p_rgh;
}
// * * * * * * * * * * * * * * * * * * * * * * * * * * * * * * * * * * * * * //

dimensions      [1 -1 -2 0 0 0 0];

internalField   nonuniform List<scalar> 
17
(
1.50143e+07
1.50137e+07
1.50125e+07
1.50088e+07
1.50042e+07
1.49989e+07
1.49923e+07
1.49842e+07
1.49738e+07
1.49605e+07
1.49436e+07
1.49229e+07
1.4898e+07
1.48691e+07
1.48365e+07
1.48002e+07
1.47605e+07
)
;

boundaryField
{
    inlet
    {
        type            fixedFluxPressure;
        gradient        uniform 12087.9;
        value           uniform 1.50146e+07;
    }
    outlet
    {
        type            fixedValue;
        value           uniform 1.47394e+07;
    }
    fixedWalls
    {
        type            fixedFluxPressure;
        gradient        uniform 0;
        value           nonuniform List<scalar> 
68
(
1.50143e+07
1.50137e+07
1.50125e+07
1.50088e+07
1.50042e+07
1.49989e+07
1.49923e+07
1.49842e+07
1.49738e+07
1.49605e+07
1.49436e+07
1.49229e+07
1.4898e+07
1.48691e+07
1.48365e+07
1.48002e+07
1.47605e+07
1.50143e+07
1.50137e+07
1.50125e+07
1.50088e+07
1.50042e+07
1.49989e+07
1.49923e+07
1.49842e+07
1.49738e+07
1.49605e+07
1.49436e+07
1.49229e+07
1.4898e+07
1.48691e+07
1.48365e+07
1.48002e+07
1.47605e+07
1.50143e+07
1.50137e+07
1.50125e+07
1.50088e+07
1.50042e+07
1.49989e+07
1.49923e+07
1.49842e+07
1.49738e+07
1.49605e+07
1.49436e+07
1.49229e+07
1.4898e+07
1.48691e+07
1.48365e+07
1.48002e+07
1.47605e+07
1.50143e+07
1.50137e+07
1.50125e+07
1.50088e+07
1.50042e+07
1.49989e+07
1.49923e+07
1.49842e+07
1.49738e+07
1.49605e+07
1.49436e+07
1.49229e+07
1.4898e+07
1.48691e+07
1.48365e+07
1.48002e+07
1.47605e+07
)
;
    }
}


// ************************************************************************* //
