/*--------------------------------*- C++ -*----------------------------------*\
| =========                 |                                                 |
| \\      /  F ield         | OpenFOAM: The Open Source CFD Toolbox           |
|  \\    /   O peration     | Version:  2212                                  |
|   \\  /    A nd           | Website:  www.openfoam.com                      |
|    \\/     M anipulation  |                                                 |
\*---------------------------------------------------------------------------*/
FoamFile
{
    version     2.0;
    format      ascii;
    arch        "LSB;label=32;scalar=64";
    class       volScalarField;
    location    "77/neutroRegion";
    object      TCool;
}
// * * * * * * * * * * * * * * * * * * * * * * * * * * * * * * * * * * * * * //

dimensions      [0 0 0 1 0 0 0];

internalField   nonuniform List<scalar> 
350
(
83.289
83.2895
83.29
83.2905
83.291
83.2915
83.292
83.2925
83.2929
83.2933
83.2937
83.2941
83.2945
83.295
83.2954
83.296
83.2965
83.2969
83.2973
83.2977
83.2981
83.2986
83.2991
83.2997
83.3002
83.289
83.2895
83.29
83.2905
83.291
83.2915
83.292
83.2925
83.2929
83.2933
83.2937
83.2941
83.2945
83.295
83.2954
83.296
83.2965
83.2969
83.2973
83.2977
83.2981
83.2986
83.2991
83.2997
83.3002
1823.65
1817.47
1798.88
1768.1
1725.48
1671.52
1606.82
1532.15
1448.37
1356.5
1257.69
1153.27
1044.75
933.884
822.632
713.091
607.368
507.427
414.978
331.461
258.125
196.165
146.806
111.212
90.0854
1851.91
1845.95
1827.35
1796.35
1753.3
1698.68
1633.14
1557.42
1472.42
1379.16
1278.79
1172.65
1062.27
949.433
836.12
724.489
616.717
514.838
420.623
335.554
260.902
197.875
147.709
111.576
90.1628
1819.06
1812.87
1794.3
1763.57
1721.04
1667.19
1602.65
1528.16
1444.59
1352.96
1254.41
1150.26
1042.05
931.5
820.575
711.363
605.96
506.318
414.139
330.859
257.72
195.917
146.676
111.159
90.073
1845.56
1839.53
1820.92
1789.96
1746.99
1692.51
1627.15
1551.66
1466.93
1373.98
1273.96
1168.2
1058.25
945.854
833.011
721.858
614.557
513.124
419.316
334.606
260.258
197.478
147.5
111.492
90.145
1845.56
1839.53
1820.92
1789.96
1746.99
1692.51
1627.15
1551.66
1466.93
1373.98
1273.96
1168.2
1058.25
945.854
833.011
721.858
614.557
513.124
419.316
334.606
260.258
197.478
147.5
111.492
90.145
1819.07
1812.87
1794.3
1763.57
1721.04
1667.2
1602.65
1528.16
1444.59
1352.96
1254.41
1150.27
1042.05
931.501
820.576
711.364
605.961
506.319
414.14
330.859
257.72
195.918
146.676
111.159
90.073
1851.91
1845.95
1827.35
1796.35
1753.3
1698.68
1633.14
1557.42
1472.42
1379.16
1278.79
1172.65
1062.27
949.433
836.12
724.489
616.717
514.838
420.623
335.554
260.902
197.875
147.709
111.576
90.1628
1823.65
1817.47
1798.88
1768.1
1725.48
1671.52
1606.82
1532.15
1448.37
1356.5
1257.69
1153.27
1044.75
933.884
822.632
713.091
607.368
507.427
414.978
331.461
258.125
196.165
146.806
111.212
90.0854
1845.56
1839.53
1820.92
1789.96
1746.99
1692.51
1627.15
1551.66
1466.93
1373.98
1273.96
1168.2
1058.25
945.854
833.011
721.858
614.557
513.124
419.316
334.606
260.258
197.478
147.5
111.492
90.145
1819.06
1812.87
1794.3
1763.57
1721.04
1667.19
1602.65
1528.16
1444.59
1352.96
1254.41
1150.26
1042.05
931.5
820.575
711.363
605.96
506.318
414.139
330.859
257.72
195.917
146.676
111.159
90.073
1819.07
1812.87
1794.3
1763.57
1721.04
1667.2
1602.65
1528.16
1444.59
1352.96
1254.41
1150.27
1042.05
931.501
820.576
711.364
605.96
506.319
414.14
330.859
257.72
195.918
146.676
111.159
90.073
1845.56
1839.53
1820.92
1789.96
1746.99
1692.51
1627.15
1551.66
1466.93
1373.98
1273.96
1168.2
1058.25
945.854
833.011
721.858
614.556
513.124
419.316
334.606
260.257
197.478
147.5
111.492
90.145
)
;

boundaryField
{
    outletCentralUnloaded
    {
        type            zeroGradient;
    }
    inletCentralUnloaded
    {
        type            zeroGradient;
    }
    outletFuelElement
    {
        type            zeroGradient;
    }
    inletFuelElement
    {
        type            zeroGradient;
    }
    defaultFaces
    {
        type            zeroGradient;
    }
}


// ************************************************************************* //
