/*--------------------------------*- C++ -*----------------------------------*\
| =========                 |                                                 |
| \\      /  F ield         | OpenFOAM: The Open Source CFD Toolbox           |
|  \\    /   O peration     | Version:  2212                                  |
|   \\  /    A nd           | Website:  www.openfoam.com                      |
|    \\/     M anipulation  |                                                 |
\*---------------------------------------------------------------------------*/
FoamFile
{
    version     2.0;
    format      ascii;
    arch        "LSB;label=32;scalar=64";
    class       volScalarField;
    location    "85/fluidRegion";
    object      heatFlux.structure;
}
// * * * * * * * * * * * * * * * * * * * * * * * * * * * * * * * * * * * * * //

dimensions      [1 0 -3 0 0 0 0];

internalField   nonuniform List<scalar> 
350
(
-258328
-258331
-258332
-258332
-258329
-258325
-258319
-258315
-258312
-258313
-258316
-258323
-258331
-258340
-258350
-258359
-258366
-258373
-258377
-258381
-258383
-258383
-258384
-258383
-258810
-258328
-258331
-258332
-258332
-258329
-258325
-258319
-258315
-258312
-258313
-258316
-258323
-258331
-258340
-258350
-258359
-258366
-258373
-258377
-258381
-258383
-258383
-258384
-258383
-258810
450422
1.34421e+06
2.21679e+06
3.05442e+06
3.84387e+06
4.5727e+06
5.22942e+06
5.80366e+06
6.28638e+06
6.66995e+06
6.94834e+06
7.11715e+06
7.17372e+06
7.11715e+06
6.94834e+06
6.66996e+06
6.28638e+06
5.80367e+06
5.2294e+06
4.57271e+06
3.84388e+06
3.05446e+06
2.21681e+06
1.34419e+06
450445
455581
1.35961e+06
2.24219e+06
3.0894e+06
3.8879e+06
4.62508e+06
5.28932e+06
5.87014e+06
6.35839e+06
6.74636e+06
7.02793e+06
7.19868e+06
7.25589e+06
7.19868e+06
7.02794e+06
6.74636e+06
6.3584e+06
5.87015e+06
5.28931e+06
4.6251e+06
3.88792e+06
3.08945e+06
2.2422e+06
1.35959e+06
455605
449600
1.34176e+06
2.21275e+06
3.04884e+06
3.83686e+06
4.56436e+06
5.21988e+06
5.79308e+06
6.27491e+06
6.65779e+06
6.93567e+06
7.10417e+06
7.16063e+06
7.10417e+06
6.93567e+06
6.65779e+06
6.27492e+06
5.79308e+06
5.21987e+06
4.56437e+06
3.83687e+06
3.04889e+06
2.21276e+06
1.34174e+06
449624
454393
1.35606e+06
2.23634e+06
3.08135e+06
3.87777e+06
4.61302e+06
5.27553e+06
5.85484e+06
6.34181e+06
6.72877e+06
7.00961e+06
7.17991e+06
7.23698e+06
7.17991e+06
7.00962e+06
6.72878e+06
6.34182e+06
5.85485e+06
5.27552e+06
4.61304e+06
3.87778e+06
3.0814e+06
2.23635e+06
1.35605e+06
454418
454393
1.35606e+06
2.23634e+06
3.08135e+06
3.87777e+06
4.61302e+06
5.27553e+06
5.85484e+06
6.34181e+06
6.72877e+06
7.00961e+06
7.17991e+06
7.23698e+06
7.17991e+06
7.00961e+06
6.72878e+06
6.34182e+06
5.85485e+06
5.27552e+06
4.61304e+06
3.87778e+06
3.0814e+06
2.23635e+06
1.35605e+06
454418
449600
1.34176e+06
2.21275e+06
3.04885e+06
3.83686e+06
4.56436e+06
5.21988e+06
5.79307e+06
6.27491e+06
6.65779e+06
6.93567e+06
7.10417e+06
7.16063e+06
7.10417e+06
6.93567e+06
6.65779e+06
6.27492e+06
5.79308e+06
5.21987e+06
4.56437e+06
3.83687e+06
3.04889e+06
2.21276e+06
1.34174e+06
449624
455581
1.35961e+06
2.24219e+06
3.08941e+06
3.8879e+06
4.62508e+06
5.28932e+06
5.87014e+06
6.35839e+06
6.74636e+06
7.02793e+06
7.19868e+06
7.25589e+06
7.19868e+06
7.02794e+06
6.74636e+06
6.3584e+06
5.87015e+06
5.28931e+06
4.6251e+06
3.88792e+06
3.08945e+06
2.2422e+06
1.35959e+06
455605
450422
1.34421e+06
2.21679e+06
3.05442e+06
3.84387e+06
4.5727e+06
5.22942e+06
5.80366e+06
6.28638e+06
6.66995e+06
6.94834e+06
7.11715e+06
7.17372e+06
7.11715e+06
6.94834e+06
6.66996e+06
6.28638e+06
5.80367e+06
5.2294e+06
4.57271e+06
3.84388e+06
3.05446e+06
2.21681e+06
1.34419e+06
450446
454393
1.35606e+06
2.23634e+06
3.08135e+06
3.87777e+06
4.61302e+06
5.27553e+06
5.85484e+06
6.34181e+06
6.72877e+06
7.00961e+06
7.17991e+06
7.23698e+06
7.17991e+06
7.00962e+06
6.72878e+06
6.34182e+06
5.85485e+06
5.27552e+06
4.61304e+06
3.87778e+06
3.0814e+06
2.23635e+06
1.35605e+06
454418
449600
1.34176e+06
2.21275e+06
3.04885e+06
3.83686e+06
4.56436e+06
5.21988e+06
5.79307e+06
6.27491e+06
6.65779e+06
6.93567e+06
7.10417e+06
7.16063e+06
7.10417e+06
6.93567e+06
6.65779e+06
6.27492e+06
5.79308e+06
5.21987e+06
4.56437e+06
3.83687e+06
3.04889e+06
2.21276e+06
1.34174e+06
449624
449600
1.34176e+06
2.21275e+06
3.04884e+06
3.83686e+06
4.56436e+06
5.21988e+06
5.79307e+06
6.27491e+06
6.65779e+06
6.93567e+06
7.10417e+06
7.16063e+06
7.10417e+06
6.93567e+06
6.65779e+06
6.27492e+06
5.79308e+06
5.21987e+06
4.56437e+06
3.83687e+06
3.04889e+06
2.21276e+06
1.34174e+06
449624
454393
1.35606e+06
2.23634e+06
3.08135e+06
3.87777e+06
4.61302e+06
5.27553e+06
5.85484e+06
6.34181e+06
6.72877e+06
7.00961e+06
7.17991e+06
7.23698e+06
7.17991e+06
7.00961e+06
6.72878e+06
6.34182e+06
5.85485e+06
5.27552e+06
4.61304e+06
3.87778e+06
3.0814e+06
2.23636e+06
1.35605e+06
454418
)
;

boundaryField
{
    outletCentralUnloaded
    {
        type            zeroGradient;
    }
    inletCentralUnloaded
    {
        type            zeroGradient;
    }
    outletFuelElement
    {
        type            zeroGradient;
    }
    inletFuelElement
    {
        type            zeroGradient;
    }
    defaultFaces
    {
        type            zeroGradient;
    }
    baffle_master
    {
        type            zeroGradient;
    }
    baffle_slave
    {
        type            zeroGradient;
    }
}


// ************************************************************************* //
