/*--------------------------------*- C++ -*----------------------------------*\
| =========                 |                                                 |
| \\      /  F ield         | OpenFOAM: The Open Source CFD Toolbox           |
|  \\    /   O peration     | Version:  2212                                  |
|   \\  /    A nd           | Website:  www.openfoam.com                      |
|    \\/     M anipulation  |                                                 |
\*---------------------------------------------------------------------------*/
FoamFile
{
    version     2.0;
    format      ascii;
    arch        "LSB;label=32;scalar=64";
    class       scalarFieldField;
    location    "85/fluidRegion";
    object      Trad.nuclearFuelPin;
}
// * * * * * * * * * * * * * * * * * * * * * * * * * * * * * * * * * * * * * //


350
(
0()
0()
0()
0()
0()
0()
0()
0()
0()
0()
0()
0()
0()
0()
0()
0()
0()
0()
0()
0()
0()
0()
0()
0()
0()
0()
0()
0()
0()
0()
0()
0()
0()
0()
0()
0()
0()
0()
0()
0()
0()
0()
0()
0()
0()
0()
0()
0()
0()
0()

20
(
2425.58
2423.79
2418.42
2409.47
2396.94
2380.83
2361.14
2337.87
2311.03
2280.6
2246.59
2209
2167.83
2123.08
2074.75
2022.84
1852
1847.93
1843.99
1840.18
)


20
(
3613.99
3608.64
3592.62
3565.91
3528.52
3480.44
3421.68
3352.23
3272.1
3181.29
3079.79
2967.61
2844.75
2711.2
2566.96
2412.05
1902.21
1890.06
1878.31
1866.93
)


20
(
4762.16
4753.35
4726.92
4682.88
4621.21
4541.92
4445.02
4330.49
4198.34
4048.58
3881.2
3696.19
3493.57
3273.33
3035.47
2779.99
1939.19
1919.16
1899.78
1881.02
)


20
(
5852.4
5840.26
5803.84
5743.15
5658.18
5548.94
5415.41
5257.61
5075.54
4869.18
4638.55
4383.65
4104.46
3801
3473.26
3121.25
1962.75
1935.15
1908.45
1882.6
)


20
(
6867.81
6852.54
6806.71
6730.33
6623.4
6485.92
6317.89
6119.3
5890.16
5630.48
5340.24
5019.44
4668.1
4286.21
3873.76
3430.76
1972.83
1938.1
1904.51
1871.97
)


20
(
7792.66
7774.49
7719.97
7629.11
7501.91
7338.36
7138.46
6902.22
6629.64
6320.71
5975.44
5593.82
5175.86
4721.56
4230.91
3703.91
1969.55
1928.23
1888.27
1849.56
)


20
(
8612.57
8591.79
8529.44
8425.53
8280.06
8093.02
7864.42
7594.25
7282.52
6929.22
6534.36
6097.94
5619.95
5100.4
4539.28
3936.6
1953.16
1905.91
1860.2
1815.94
)


20
(
9314.78
9291.72
9222.52
9107.2
8945.75
8738.18
8484.47
8184.64
7838.67
7446.58
7008.36
6524.02
5993.54
5416.94
4794.2
4125.34
1924.1
1871.66
1820.93
1771.81
)


20
(
9888.35
9863.36
9788.42
9663.5
9488.63
9263.78
8988.98
8664.2
8289.47
7864.76
7390.1
6865.46
6290.86
5666.3
4991.77
4267.28
1882.95
1826.15
1771.2
1717.99
)


20
(
10324.3
10297.8
10218.3
10085.8
9900.21
9661.64
9370.07
9025.48
8627.88
8177.26
7673.63
7116.99
6507.33
5844.66
5128.97
4360.27
1830.45
1770.19
1711.89
1655.43
)


20
(
10615.9
10588.3
10505.4
10367.4
10174.1
9925.55
9621.81
9262.84
8848.64
8379.21
7854.56
7274.69
6639.58
5949.25
5203.69
4402.91
1767.5
1704.72
1643.99
1585.18
)


20
(
10758.5
10730.2
10645.4
10503.9
10306
10051.4
9740.27
9372.58
8948.32
8467.49
7930.09
7336.13
6685.59
5978.49
5214.82
4394.58
1695.15
1630.84
1568.64
1508.39
)


20
(
10750
10721.4
10635.9
10493.4
10293.8
10037.2
9723.64
9353.02
8925.39
8440.74
7899.07
7300.38
6644.68
5931.96
5162.22
4335.46
1614.57
1549.75
1487.05
1426.33
)


20
(
10590.4
10562.2
10477.3
10335.9
10137.9
9883.35
9572.22
9204.53
8780.27
8299.44
7762.04
7168.07
6517.54
5810.44
5046.77
4226.53
1527.09
1462.79
1400.58
1340.34
)


20
(
10282.6
10254.9
10172.1
10034
9840.74
9592.22
9288.48
8929.51
8515.31
8045.88
7521.23
6941.35
6306.25
5615.92
4870.36
4069.58
1434.17
1371.39
1310.66
1251.84
)


20
(
9831.17
9804.66
9725.14
9592.61
9407.06
9168.5
8876.92
8532.33
8134.73
7684.11
7180.48
6623.84
6014.18
5351.5
4635.82
3867.12
1337.3
1277.03
1218.73
1162.27
)


20
(
9243.33
9218.35
9143.4
9018.49
8843.61
8618.77
8343.96
8019.19
7644.45
7219.75
6745.08
6220.44
5645.85
5021.28
4346.75
3622.26
1237.92
1181.12
1126.18
1072.96
)


20
(
8527.89
8504.83
8435.64
8320.31
8158.87
7951.29
7697.58
7397.75
7051.78
6659.69
6221.47
5737.12
5206.65
4630.04
4007.31
3338.45
1137.2
1084.76
1034.03
984.904
)


20
(
7695.01
7674.23
7611.89
7507.98
7362.5
7175.46
6946.86
6676.69
6364.96
6011.67
5616.81
5180.39
4702.4
4182.85
3621.74
3019.06
1035.62
988.369
942.661
898.395
)


20
(
6755.62
6737.45
6682.93
6592.07
6464.86
6301.31
6101.42
5865.18
5592.59
5283.67
4938.39
4556.77
4138.81
3684.5
3193.85
2666.85
932.487
891.173
851.204
812.497
)


20
(
5720.03
5704.76
5658.93
5582.55
5475.62
5338.14
5170.1
4971.52
4742.38
4482.69
4192.45
3871.65
3520.31
3138.41
2725.96
2282.96
825.03
790.301
756.703
724.165
)


20
(
4596.82
4584.68
4548.26
4487.57
4402.6
4293.35
4159.83
4002.02
3819.94
3613.59
3382.95
3128.04
2848.85
2545.39
2217.64
1865.62
707.107
679.51
652.812
626.957
)


20
(
3391.13
3382.32
3355.89
3311.84
3250.17
3170.89
3073.98
2959.45
2827.31
2677.54
2510.16
2325.15
2122.53
1902.28
1664.42
1408.94
568.133
548.104
528.728
509.963
)


20
(
2107.94
2102.59
2086.57
2059.86
2022.47
1974.39
1915.63
1846.18
1766.05
1675.24
1573.74
1461.56
1338.7
1205.15
1060.92
906.004
396.17
384.026
372.277
360.898
)


20
(
766.631
764.841
759.471
750.52
737.99
721.879
702.188
678.916
652.065
621.633
587.621
550.029
508.856
464.104
415.771
363.858
193.01
188.94
185.003
181.19
)


20
(
2460.68
2458.87
2453.44
2444.39
2431.71
2415.42
2395.5
2371.97
2344.81
2314.03
2279.63
2241.61
2199.97
2154.71
2105.82
2053.32
1880.52
1876.41
1872.43
1868.57
)


20
(
3662.87
3657.47
3641.26
3614.25
3576.42
3527.8
3468.36
3398.12
3317.07
3225.22
3122.56
3009.1
2884.82
2749.74
2603.86
2447.17
1931.49
1919.2
1907.32
1895.81
)


20
(
4824.3
4815.39
4788.66
4744.11
4681.73
4601.54
4503.52
4387.68
4254.03
4102.55
3933.24
3746.12
3541.18
3318.41
3077.83
2819.42
1968.99
1948.73
1929.13
1910.15
)


20
(
5927.04
5914.77
5877.93
5816.55
5730.6
5620.11
5485.06
5325.45
5141.29
4932.57
4699.3
4441.47
4159.09
3852.15
3520.66
3164.61
1992.84
1964.93
1937.92
1911.77
)


20
(
6954.03
6938.58
6892.23
6814.98
6706.82
6567.76
6397.8
6196.94
5965.18
5702.52
5408.95
5084.49
4729.12
4342.85
3925.68
3477.61
2002.98
1967.85
1933.87
1900.96
)


20
(
7889.33
7870.95
7815.81
7723.91
7595.25
7429.82
7227.64
6988.69
6712.99
6400.52
6051.29
5665.31
5242.56
4783.05
4286.78
3753.74
1999.51
1957.73
1917.3
1878.15
)


20
(
8718.41
8697.39
8634.33
8529.23
8382.09
8192.91
7961.69
7688.43
7373.13
7015.78
6616.4
6174.98
5691.52
5166.01
4598.47
3988.88
1982.72
1934.93
1888.7
1843.92
)


20
(
9428.37
9405.04
9335.06
9218.42
9055.12
8845.16
8588.55
8285.28
7935.36
7538.77
7095.54
6605.64
6069.09
5485.88
4856.01
4179.49
1953.03
1899.99
1848.68
1798.99
)


20
(
10008.1
9982.87
9907.06
9780.72
9603.84
9376.42
9098.47
8769.97
8390.94
7961.38
7481.27
6950.63
6369.45
5737.73
5055.48
4322.69
1911.04
1853.59
1798.01
1744.19
)


20
(
10448.7
10421.9
10341.4
10207.4
10019.7
9778.41
9483.49
9134.96
8732.8
8277.02
7767.62
7204.6
6587.96
5917.7
5193.81
4416.31
1857.51
1796.55
1737.59
1680.48
)


20
(
10743.1
10715.2
10631.4
10491.7
10296.2
10044.8
9737.62
9374.53
8955.59
8480.79
7950.13
7363.61
6721.23
6022.99
5268.9
4458.94
1793.34
1729.84
1668.42
1608.93
)


20
(
10886.8
10858.2
10772.3
10629.3
10429
10171.6
9856.88
9484.98
9055.86
8569.52
8025.97
7425.2
6767.21
6052.01
5279.59
4449.96
1719.6
1654.56
1591.64
1530.7
)


20
(
10877.5
10848.7
10762.2
10618
10416.2
10156.6
9839.44
9464.58
9032.05
8541.85
7993.98
7388.43
6725.22
6004.33
5225.77
4389.55
1637.49
1571.93
1508.51
1447.09
)


20
(
10715.5
10686.9
10601.1
10458
10257.8
10000.3
9685.63
9313.72
8884.6
8398.26
7854.71
7253.94
6595.96
5880.75
5108.34
4278.7
1548.34
1483.3
1420.38
1359.45
)


20
(
10403.4
10375.5
10291.7
10152
9956.51
9705.14
9397.92
9034.84
8615.89
8141.09
7610.43
7023.91
6381.53
5683.29
4929.19
4119.24
1453.64
1390.14
1328.71
1269.22
)


20
(
9946.09
9919.28
9838.84
9704.79
9517.12
9275.82
8980.91
8632.37
8230.21
7774.43
7265.03
6702.01
6085.37
5415.11
4691.22
3913.72
1354.91
1293.96
1234.99
1177.89
)


20
(
9350.77
9325.5
9249.7
9123.35
8946.47
8719.05
8441.1
8112.6
7733.57
7304
6823.9
6293.26
5712.08
5080.36
4398.1
3665.31
1253.66
1196.21
1140.63
1086.81
)


20
(
8626.44
8603.11
8533.12
8416.48
8253.18
8043.23
7786.62
7483.35
7133.42
6736.84
6293.6
5803.7
5267.15
4683.94
4054.07
3377.55
1151.08
1098.04
1046.73
997.044
)


20
(
7783.42
7762.4
7699.34
7594.24
7447.1
7257.92
7026.7
6753.43
6438.13
6080.79
5681.41
5239.99
4756.53
4231.02
3663.48
3053.9
1047.74
999.949
953.717
908.944
)


20
(
6832.81
6814.43
6759.29
6667.39
6538.73
6373.3
6171.12
5932.17
5656.46
5344
4994.77
4608.78
4186.03
3726.52
3230.24
2697.21
942.976
901.188
860.761
821.611
)


20
(
5785.09
5769.64
5723.29
5646.03
5537.88
5398.82
5228.86
5028
4796.24
4533.57
4240.01
3915.54
3560.17
3173.9
2756.72
2308.65
834.016
798.888
764.905
731.995
)


20
(
4648.91
4636.63
4599.8
4538.41
4452.46
4341.96
4206.91
4047.3
3863.13
3654.41
3421.14
3163.31
2880.92
2573.98
2242.48
1886.42
714.639
686.726
659.722
633.57
)


20
(
3429.38
3420.47
3393.74
3349.18
3286.81
3206.61
3108.6
2992.76
2859.1
2707.62
2538.31
2351.19
2146.25
1923.48
1682.89
1424.48
574.046
553.788
534.189
515.209
)


20
(
2131.37
2125.97
2109.76
2082.74
2044.92
1996.29
1936.86
1866.62
1785.57
1693.72
1591.06
1477.6
1353.32
1218.25
1072.36
915.672
399.998
387.714
375.831
364.322
)


20
(
774.495
772.685
767.253
758.2
745.526
729.23
709.313
685.775
658.616
627.836
593.434
555.411
513.767
468.502
419.616
367.108
194.303
190.187
186.205
182.348
)


20
(
2419.9
2418.12
2412.76
2403.82
2391.32
2375.24
2355.58
2332.36
2305.55
2275.18
2241.23
2203.71
2162.62
2117.95
2069.71
2017.89
1847.36
1843.3
1839.37
1835.57
)


20
(
3606.13
3600.8
3584.8
3558.14
3520.82
3472.83
3414.17
3344.85
3264.87
3174.22
3072.91
2960.93
2838.29
2704.99
2561.02
2406.38
1897.47
1885.35
1873.62
1862.27
)


20
(
4752.22
4743.42
4717.04
4673.07
4611.52
4532.38
4435.65
4321.33
4189.43
4039.94
3872.86
3688.19
3485.94
3266.1
3028.67
2773.66
1934.39
1914.4
1895.06
1876.33
)


20
(
5840.48
5828.36
5792.01
5731.43
5646.62
5537.57
5404.29
5246.78
5065.04
4859.06
4628.85
4374.41
4095.73
3792.82
3465.68
3114.31
1957.92
1930.38
1903.73
1877.92
)


20
(
6854.07
6838.82
6793.08
6716.84
6610.11
6472.87
6305.15
6106.92
5878.2
5618.99
5329.28
5009.07
4658.37
4277.17
3865.48
3423.29
1968.02
1933.35
1899.82
1867.34
)


20
(
7777.27
7759.13
7704.72
7614.02
7487.05
7323.8
7124.27
6888.46
6616.37
6308.01
5963.37
5582.44
5165.25
4711.77
4222.01
3695.98
1964.78
1923.54
1883.65
1845.01
)


20
(
8595.74
8574.99
8512.76
8409.04
8263.83
8077.13
7848.95
7579.27
7268.11
6915.46
6521.32
6085.69
5608.58
5089.97
4529.88
3928.3
1948.47
1901.31
1855.69
1811.5
)


20
(
9296.73
9273.71
9204.64
9089.53
8928.37
8721.18
8467.93
8168.65
7823.31
7431.94
6994.52
6511.06
5981.55
5406
4784.4
4116.76
1919.52
1867.18
1816.55
1767.51
)


20
(
9869.32
9844.38
9769.57
9644.89
9470.33
9245.9
8971.59
8647.41
8273.36
7849.43
7375.63
6851.95
6278.4
5654.98
4981.68
4258.51
1878.52
1821.83
1766.98
1713.86
)


20
(
10304.6
10278.1
10198.7
10066.4
9881.24
9643.11
9352.07
9008.11
8611.23
8161.44
7658.72
7103.1
6494.55
5833.09
5118.71
4351.41
1826.2
1766.05
1707.86
1651.5
)


20
(
10595.7
10568.1
10485.4
10347.6
10154.7
9906.63
9603.44
9245.12
8831.68
8363.11
7839.42
7260.6
6626.65
5937.58
5193.38
4394.06
1763.46
1700.8
1640.17
1581.47
)


20
(
10738.2
10709.9
10625.2
10484.1
10286.4
10032.3
9721.78
9354.76
8931.27
8451.32
7914.91
7322.02
6672.68
5966.86
5204.59
4385.84
1691.33
1627.15
1565.05
1504.92
)


20
(
10729.7
10701.3
10615.9
10473.6
10274.4
10018.3
9705.28
9335.34
8908.49
8424.72
7884.04
7286.45
6631.94
5920.52
5152.18
4326.93
1611.01
1546.31
1483.72
1423.11
)


20
(
10570.6
10542.4
10457.7
10316.5
10118.9
9864.81
9554.25
9187.23
8763.74
8283.79
7747.37
7154.49
6505.14
5799.33
5037.06
4218.31
1523.8
1459.61
1397.52
1337.38
)


20
(
10263.4
10235.8
10153.2
10015.3
9822.4
9574.33
9271.14
8912.82
8499.38
8030.81
7507.12
6928.3
6294.35
5605.28
4861.08
4061.76
1431.16
1368.5
1307.87
1249.16
)


20
(
9812.96
9786.5
9707.13
9574.84
9389.63
9151.5
8860.46
8516.49
8119.62
7669.82
7167.11
6611.48
6002.93
5341.47
4627.09
3859.79
1334.58
1274.43
1216.24
1159.88
)


20
(
9226.31
9201.38
9126.56
9001.88
8827.32
8602.89
8328.58
8004.4
7630.35
7206.42
6732.62
6208.94
5635.39
5011.96
4338.66
3615.49
1235.5
1178.81
1123.96
1070.85
)


20
(
8512.28
8489.26
8420.2
8305.08
8143.93
7936.73
7683.49
7384.2
7038.87
6647.49
6210.07
5726.61
5197.1
4621.54
3999.95
3332.3
1135.07
1082.73
1032.09
983.054
)


20
(
7681.01
7660.27
7598.04
7494.32
7349.11
7162.41
6934.23
6664.55
6353.39
6000.74
5606.6
5170.98
4693.86
4175.26
3615.17
3013.59
1033.76
986.603
940.978
896.793
)


20
(
6743.4
6725.26
6670.85
6580.15
6453.18
6289.92
6090.39
5854.58
5582.5
5274.13
4929.49
4548.57
4131.36
3677.89
3188.13
2662.09
930.89
889.651
849.756
811.119
)


20
(
5709.74
5694.5
5648.75
5572.51
5465.78
5328.54
5160.82
4962.59
4733.87
4474.66
4184.94
3864.74
3514.03
3132.83
2721.13
2278.94
823.67
789.004
755.467
722.989
)


20
(
4588.59
4576.48
4540.13
4479.54
4394.73
4285.68
4152.4
3994.88
3813.14
3607.16
3376.94
3122.5
2843.82
2540.9
2213.76
1862.38
705.978
678.432
651.782
625.974
)


20
(
3385.11
3376.31
3349.93
3305.96
3244.41
3165.26
3068.53
2954.22
2822.31
2672.82
2505.74
2321.07
2118.82
1898.98
1661.55
1406.53
567.259
547.267
527.926
509.195
)


20
(
2104.25
2098.92
2082.92
2056.26
2018.94
1970.95
1912.29
1842.98
1762.99
1672.35
1571.04
1459.06
1336.42
1203.12
1059.15
904.513
395.61
383.487
371.759
360.402
)


20
(
765.388
763.601
758.24
749.306
736.798
720.717
701.061
677.833
651.03
620.654
586.704
549.18
508.083
463.412
415.167
363.349
192.813
188.75
184.82
181.014
)


20
(
2452.75
2450.95
2445.53
2436.5
2423.86
2407.61
2387.74
2364.27
2337.18
2306.49
2272.18
2234.26
2192.72
2147.58
2098.82
2046.45
1874.11
1870
1866.03
1862.19
)


20
(
3651.76
3646.37
3630.2
3603.25
3565.53
3517.03
3457.75
3387.69
3306.86
3215.24
3112.85
2999.68
2875.73
2741.01
2595.5
2439.22
1924.88
1912.63
1900.78
1889.3
)


20
(
4810.12
4801.23
4774.57
4730.13
4667.92
4587.94
4490.17
4374.64
4241.33
4090.24
3921.38
3734.75
3530.34
3308.16
3068.2
2810.46
1962.25
1942.05
1922.5
1903.57
)


20
(
5909.97
5897.72
5860.98
5799.76
5714.04
5603.83
5469.13
5309.94
5126.26
4918.08
4685.42
4428.26
4146.62
3840.48
3509.85
3154.73
1986.02
1958.18
1931.25
1905.16
)


20
(
6934.28
6918.87
6872.63
6795.58
6687.71
6549.01
6379.5
6179.16
5948
5686.03
5393.23
5069.61
4715.16
4329.9
3913.82
3466.91
1996.13
1961.09
1927.2
1894.38
)


20
(
7867.16
7848.82
7793.83
7702.16
7573.84
7408.84
7207.19
6968.87
6693.88
6382.23
6033.91
5648.93
5227.28
4768.97
4273.99
3742.35
1992.69
1951.01
1910.69
1871.65
)


20
(
8694.11
8673.15
8610.25
8505.42
8358.67
8169.98
7939.36
7666.81
7352.33
6995.92
6597.58
6157.31
5675.11
5150.97
4584.91
3976.91
1975.98
1928.31
1882.2
1837.54
)


20
(
9402.27
9379.01
9309.2
9192.87
9029.99
8820.58
8564.64
8262.16
7913.15
7517.6
7075.52
6586.9
6051.75
5470.06
4841.84
4167.08
1946.42
1893.52
1842.34
1792.78
)


20
(
9980.6
9955.4
9879.79
9753.78
9577.36
9350.53
9073.3
8745.67
8367.62
7939.18
7460.32
6931.06
6351.4
5721.33
5040.85
4309.97
1904.61
1847.31
1791.88
1738.2
)


20
(
10420.1
10393.3
10313.1
10179.4
9992.22
9751.56
9457.41
9109.78
8708.67
8254.08
7746.01
7184.46
6569.43
5900.91
5178.91
4403.44
1851.31
1790.51
1731.7
1674.74
)


20
(
10713.8
10686
10602.4
10463.1
10268.1
10017.4
9710.98
9348.84
8930.99
8457.43
7928.15
7343.16
6702.45
6006.04
5253.91
4446.06
1787.41
1724.08
1662.81
1603.48
)


20
(
10857.3
10828.7
10743.1
10600.5
10400.7
10143.9
9830.05
9459.11
9031.11
8546.04
8003.91
7404.7
6748.43
6035.1
5264.69
4437.22
1713.98
1649.11
1586.36
1525.58
)


20
(
10848.2
10819.4
10733.1
10589.3
10388
10129.2
9812.79
9438.91
9007.5
8518.58
7972.13
7368.17
6706.68
5987.67
5211.15
4377.1
1632.21
1566.83
1503.57
1442.31
)


20
(
10686.7
10658.2
10572.6
10429.9
10230.2
9973.39
9659.52
9288.58
8860.58
8375.51
7833.38
7234.17
6577.9
5864.57
5094.16
4266.69
1543.45
1478.58
1415.82
1355.05
)


20
(
10375.6
10347.7
10264.1
10124.9
9929.85
9679.14
9372.72
9010.58
8592.73
8119.17
7589.89
7004.9
6364.19
5667.78
4915.64
4107.8
1449.15
1385.82
1324.55
1265.21
)


20
(
9919.62
9892.88
9812.66
9678.96
9491.77
9251.11
8956.96
8609.33
8208.22
7753.63
7245.56
6684.01
6068.97
5400.46
4678.46
3902.98
1350.85
1290.05
1231.24
1174.28
)


20
(
9326.03
9300.82
9225.22
9099.2
8922.78
8695.96
8418.73
8091.09
7713.05
7284.6
6805.74
6276.48
5696.82
5066.75
4386.27
3655.39
1250.02
1192.73
1137.29
1083.61
)


20
(
8603.74
8580.47
8510.67
8394.33
8231.46
8022.05
7766.11
7463.63
7114.62
6719.07
6276.98
5788.36
5253.21
4671.52
4043.29
3368.53
1147.87
1094.97
1043.8
994.238
)


20
(
7763.06
7742.09
7679.2
7574.37
7427.61
7238.92
7008.31
6735.76
6421.28
6064.87
5666.53
5226.26
4744.05
4219.92
3653.86
3045.87
1044.94
997.272
951.161
906.504
)


20
(
6815.03
6796.7
6741.7
6650.04
6521.71
6356.72
6155.06
5916.74
5641.75
5330.1
4981.78
4596.8
4175.15
3716.83
3221.85
2690.21
940.55
898.872
858.551
819.502
)


20
(
5770.1
5754.69
5708.46
5631.41
5523.54
5384.84
5215.32
5014.99
4783.83
4521.85
4229.05
3905.43
3550.98
3165.72
2749.63
2302.72
831.937
796.902
763.007
730.183
)


20
(
4636.91
4624.66
4587.92
4526.69
4440.97
4330.76
4196.06
4036.87
3853.18
3645.01
3412.34
3155.18
2873.53
2567.38
2236.75
1881.63
712.896
685.055
658.122
632.038
)


20
(
3420.57
3411.68
3385.02
3340.58
3278.37
3198.38
3100.62
2985.08
2851.77
2700.68
2531.82
2345.19
2140.78
1918.59
1678.63
1420.89
572.676
552.47
532.923
513.993
)


20
(
2125.97
2120.58
2104.41
2077.47
2039.75
1991.24
1931.97
1861.91
1781.07
1689.46
1587.07
1473.9
1349.95
1215.23
1069.72
913.44
399.11
386.858
375.006
363.527
)


20
(
772.684
770.878
765.46
756.431
743.79
727.537
707.672
684.195
657.107
626.407
592.095
554.171
512.636
467.488
418.729
366.359
194.004
189.899
185.927
182.08
)


20
(
2452.75
2450.95
2445.53
2436.5
2423.86
2407.61
2387.74
2364.27
2337.18
2306.49
2272.18
2234.26
2192.72
2147.58
2098.82
2046.45
1874.11
1870
1866.03
1862.19
)


20
(
3651.76
3646.37
3630.2
3603.25
3565.53
3517.03
3457.75
3387.69
3306.86
3215.24
3112.85
2999.68
2875.73
2741.01
2595.5
2439.22
1924.88
1912.63
1900.78
1889.3
)


20
(
4810.12
4801.23
4774.57
4730.13
4667.92
4587.94
4490.17
4374.64
4241.33
4090.24
3921.38
3734.75
3530.34
3308.16
3068.2
2810.46
1962.25
1942.05
1922.5
1903.57
)


20
(
5909.97
5897.72
5860.99
5799.76
5714.04
5603.83
5469.13
5309.94
5126.26
4918.08
4685.42
4428.26
4146.62
3840.48
3509.85
3154.73
1986.02
1958.18
1931.25
1905.16
)


20
(
6934.28
6918.86
6872.63
6795.58
6687.71
6549.01
6379.5
6179.16
5948
5686.03
5393.23
5069.61
4715.16
4329.9
3913.82
3466.91
1996.13
1961.09
1927.2
1894.38
)


20
(
7867.16
7848.82
7793.83
7702.16
7573.84
7408.84
7207.19
6968.87
6693.88
6382.23
6033.91
5648.93
5227.28
4768.97
4273.99
3742.35
1992.69
1951.01
1910.69
1871.65
)


20
(
8694.11
8673.15
8610.25
8505.42
8358.67
8169.98
7939.36
7666.81
7352.33
6995.92
6597.58
6157.31
5675.11
5150.97
4584.91
3976.91
1975.98
1928.31
1882.2
1837.54
)


20
(
9402.27
9379
9309.2
9192.86
9029.99
8820.58
8564.64
8262.16
7913.15
7517.6
7075.52
6586.9
6051.75
5470.06
4841.83
4167.08
1946.42
1893.52
1842.34
1792.78
)


20
(
9980.6
9955.4
9879.79
9753.78
9577.36
9350.53
9073.3
8745.67
8367.62
7939.18
7460.32
6931.06
6351.4
5721.33
5040.85
4309.97
1904.61
1847.31
1791.88
1738.2
)


20
(
10420.1
10393.3
10313.1
10179.4
9992.22
9751.56
9457.41
9109.78
8708.67
8254.08
7746.01
7184.46
6569.43
5900.91
5178.91
4403.44
1851.31
1790.51
1731.7
1674.74
)


20
(
10713.8
10686
10602.4
10463.1
10268.1
10017.4
9710.98
9348.84
8930.99
8457.43
7928.15
7343.16
6702.45
6006.04
5253.91
4446.06
1787.41
1724.08
1662.81
1603.48
)


20
(
10857.3
10828.7
10743.1
10600.5
10400.7
10143.9
9830.05
9459.11
9031.11
8546.04
8003.91
7404.7
6748.43
6035.1
5264.69
4437.22
1713.98
1649.11
1586.36
1525.58
)


20
(
10848.2
10819.4
10733.1
10589.3
10388
10129.2
9812.79
9438.9
9007.5
8518.58
7972.13
7368.17
6706.68
5987.67
5211.15
4377.1
1632.21
1566.83
1503.57
1442.31
)


20
(
10686.7
10658.2
10572.6
10429.9
10230.2
9973.39
9659.52
9288.58
8860.58
8375.51
7833.38
7234.17
6577.9
5864.56
5094.16
4266.69
1543.45
1478.58
1415.82
1355.05
)


20
(
10375.6
10347.7
10264.1
10124.8
9929.85
9679.14
9372.72
9010.58
8592.73
8119.17
7589.89
7004.9
6364.19
5667.78
4915.64
4107.8
1449.15
1385.82
1324.55
1265.21
)


20
(
9919.62
9892.88
9812.66
9678.96
9491.77
9251.11
8956.96
8609.33
8208.22
7753.63
7245.56
6684.01
6068.97
5400.46
4678.46
3902.98
1350.85
1290.05
1231.24
1174.28
)


20
(
9326.03
9300.82
9225.22
9099.2
8922.78
8695.96
8418.73
8091.09
7713.05
7284.6
6805.74
6276.48
5696.82
5066.75
4386.27
3655.39
1250.02
1192.73
1137.29
1083.61
)


20
(
8603.74
8580.47
8510.67
8394.33
8231.46
8022.05
7766.11
7463.63
7114.61
6719.07
6276.98
5788.36
5253.21
4671.52
4043.29
3368.53
1147.87
1094.97
1043.8
994.237
)


20
(
7763.06
7742.09
7679.19
7574.37
7427.61
7238.92
7008.31
6735.76
6421.28
6064.87
5666.53
5226.26
4744.05
4219.92
3653.86
3045.87
1044.94
997.272
951.161
906.504
)


20
(
6815.03
6796.7
6741.7
6650.04
6521.71
6356.72
6155.06
5916.74
5641.75
5330.1
4981.78
4596.8
4175.15
3716.83
3221.85
2690.21
940.55
898.872
858.551
819.502
)


20
(
5770.1
5754.69
5708.46
5631.41
5523.53
5384.84
5215.32
5014.99
4783.83
4521.85
4229.05
3905.42
3550.98
3165.72
2749.63
2302.72
831.937
796.901
763.007
730.183
)


20
(
4636.91
4624.66
4587.92
4526.7
4440.98
4330.76
4196.06
4036.87
3853.18
3645.01
3412.34
3155.18
2873.53
2567.39
2236.75
1881.63
712.896
685.055
658.122
632.038
)


20
(
3420.57
3411.68
3385.02
3340.58
3278.37
3198.38
3100.62
2985.08
2851.77
2700.69
2531.82
2345.19
2140.78
1918.59
1678.63
1420.89
572.676
552.471
532.923
513.993
)


20
(
2125.97
2120.58
2104.41
2077.47
2039.75
1991.24
1931.97
1861.91
1781.07
1689.46
1587.07
1473.9
1349.95
1215.23
1069.72
913.44
399.11
386.858
375.006
363.527
)


20
(
772.684
770.878
765.46
756.431
743.79
727.537
707.672
684.195
657.107
626.407
592.095
554.171
512.636
467.488
418.729
366.359
194.004
189.899
185.927
182.08
)


20
(
2419.9
2418.12
2412.76
2403.82
2391.32
2375.24
2355.58
2332.36
2305.56
2275.18
2241.23
2203.71
2162.62
2117.95
2069.71
2017.89
1847.37
1843.3
1839.37
1835.57
)


20
(
3606.13
3600.8
3584.8
3558.14
3520.82
3472.83
3414.17
3344.85
3264.87
3174.22
3072.91
2960.94
2838.29
2704.99
2561.02
2406.38
1897.48
1885.35
1873.62
1862.27
)


20
(
4752.22
4743.42
4717.04
4673.08
4611.52
4532.38
4435.65
4321.33
4189.43
4039.94
3872.86
3688.19
3485.94
3266.1
3028.67
2773.66
1934.39
1914.4
1895.06
1876.33
)


20
(
5840.48
5828.36
5792.02
5731.43
5646.62
5537.57
5404.29
5246.78
5065.04
4859.06
4628.85
4374.41
4095.73
3792.82
3465.68
3114.31
1957.93
1930.38
1903.73
1877.92
)


20
(
6854.07
6838.82
6793.08
6716.84
6610.11
6472.87
6305.15
6106.92
5878.21
5618.99
5329.28
5009.07
4658.37
4277.17
3865.48
3423.29
1968.02
1933.35
1899.82
1867.34
)


20
(
7777.27
7759.13
7704.72
7614.02
7487.05
7323.8
7124.27
6888.46
6616.37
6308.01
5963.37
5582.45
5165.25
4711.77
4222.01
3695.98
1964.78
1923.54
1883.65
1845.01
)


20
(
8595.74
8574.99
8512.76
8409.04
8263.83
8077.14
7848.95
7579.28
7268.11
6915.46
6521.32
6085.7
5608.58
5089.98
4529.88
3928.3
1948.47
1901.31
1855.69
1811.5
)


20
(
9296.73
9273.71
9204.64
9089.53
8928.38
8721.18
8467.93
8168.65
7823.32
7431.94
6994.52
6511.06
5981.55
5406
4784.4
4116.76
1919.53
1867.19
1816.55
1767.51
)


20
(
9869.32
9844.38
9769.57
9644.89
9470.33
9245.9
8971.59
8647.41
8273.36
7849.43
7375.63
6851.95
6278.4
5654.98
4981.68
4258.51
1878.52
1821.83
1766.98
1713.87
)


20
(
10304.6
10278.1
10198.7
10066.5
9881.24
9643.11
9352.07
9008.11
8611.23
8161.44
7658.73
7103.1
6494.55
5833.09
5118.71
4351.41
1826.2
1766.05
1707.86
1651.5
)


20
(
10595.7
10568.1
10485.4
10347.6
10154.7
9906.63
9603.44
9245.12
8831.68
8363.11
7839.42
7260.6
6626.65
5937.58
5193.39
4394.06
1763.46
1700.8
1640.18
1581.47
)


20
(
10738.2
10709.9
10625.2
10484.1
10286.4
10032.3
9721.78
9354.76
8931.27
8451.32
7914.91
7322.02
6672.68
5966.86
5204.59
4385.85
1691.33
1627.15
1565.05
1504.92
)


20
(
10729.7
10701.3
10615.9
10473.6
10274.4
10018.3
9705.28
9335.34
8908.49
8424.72
7884.04
7286.45
6631.94
5920.52
5152.18
4326.93
1611.01
1546.31
1483.72
1423.11
)


20
(
10570.6
10542.4
10457.7
10316.5
10118.9
9864.81
9554.25
9187.23
8763.74
8283.79
7747.37
7154.49
6505.15
5799.33
5037.06
4218.31
1523.8
1459.62
1397.52
1337.39
)


20
(
10263.4
10235.8
10153.2
10015.3
9822.4
9574.33
9271.14
8912.83
8499.38
8030.81
7507.12
6928.3
6294.35
5605.28
4861.09
4061.76
1431.16
1368.5
1307.87
1249.16
)


20
(
9812.96
9786.51
9707.13
9574.84
9389.63
9151.5
8860.46
8516.5
8119.62
7669.82
7167.11
6611.48
6002.93
5341.47
4627.09
3859.79
1334.58
1274.43
1216.24
1159.88
)


20
(
9226.31
9201.38
9126.57
9001.88
8827.32
8602.89
8328.58
8004.4
7630.35
7206.42
6732.62
6208.94
5635.39
5011.96
4338.67
3615.49
1235.5
1178.81
1123.96
1070.85
)


20
(
8512.28
8489.26
8420.2
8305.09
8143.93
7936.73
7683.49
7384.2
7038.87
6647.49
6210.07
5726.61
5197.1
4621.54
3999.95
3332.3
1135.07
1082.73
1032.09
983.055
)


20
(
7681.01
7660.27
7598.04
7494.32
7349.11
7162.41
6934.23
6664.55
6353.39
6000.74
5606.6
5170.98
4693.86
4175.26
3615.17
3013.59
1033.77
986.604
940.979
896.794
)


20
(
6743.4
6725.26
6670.85
6580.15
6453.18
6289.92
6090.39
5854.58
5582.5
5274.13
4929.49
4548.57
4131.37
3677.89
3188.13
2662.09
930.891
889.652
849.756
811.12
)


20
(
5709.74
5694.5
5648.75
5572.51
5465.78
5328.54
5160.82
4962.59
4733.87
4474.66
4184.94
3864.74
3514.03
3132.83
2721.13
2278.94
823.671
789.005
755.468
722.99
)


20
(
4588.6
4576.48
4540.13
4479.55
4394.73
4285.68
4152.4
3994.89
3813.14
3607.16
3376.94
3122.5
2843.82
2540.91
2213.76
1862.38
705.979
678.433
651.783
625.975
)


20
(
3385.11
3376.31
3349.93
3305.97
3244.41
3165.27
3068.54
2954.22
2822.31
2672.82
2505.74
2321.07
2118.82
1898.98
1661.55
1406.53
567.26
547.267
527.926
509.196
)


20
(
2104.25
2098.92
2082.92
2056.26
2018.94
1970.95
1912.3
1842.98
1762.99
1672.35
1571.04
1459.06
1336.42
1203.12
1059.15
904.514
395.61
383.488
371.76
360.402
)


20
(
765.388
763.601
758.241
749.306
736.798
720.717
701.062
677.833
651.03
620.654
586.704
549.18
508.083
463.412
415.167
363.349
192.813
188.751
184.821
181.015
)


20
(
2460.68
2458.87
2453.44
2444.39
2431.71
2415.42
2395.5
2371.97
2344.81
2314.03
2279.63
2241.61
2199.97
2154.71
2105.82
2053.32
1880.52
1876.41
1872.43
1868.57
)


20
(
3662.87
3657.47
3641.26
3614.25
3576.42
3527.8
3468.36
3398.12
3317.07
3225.22
3122.56
3009.1
2884.82
2749.74
2603.86
2447.17
1931.49
1919.2
1907.32
1895.81
)


20
(
4824.3
4815.39
4788.66
4744.11
4681.73
4601.54
4503.52
4387.69
4254.03
4102.55
3933.25
3746.12
3541.18
3318.41
3077.83
2819.42
1968.99
1948.73
1929.13
1910.15
)


20
(
5927.05
5914.77
5877.94
5816.55
5730.61
5620.11
5485.06
5325.45
5141.29
4932.57
4699.3
4441.47
4159.09
3852.15
3520.66
3164.61
1992.84
1964.93
1937.92
1911.77
)


20
(
6954.03
6938.58
6892.23
6814.97
6706.82
6567.76
6397.8
6196.94
5965.18
5702.52
5408.95
5084.49
4729.12
4342.85
3925.68
3477.6
2002.98
1967.85
1933.87
1900.96
)


20
(
7889.33
7870.95
7815.81
7723.91
7595.25
7429.82
7227.64
6988.69
6712.99
6400.52
6051.29
5665.31
5242.56
4783.05
4286.78
3753.74
1999.51
1957.73
1917.3
1878.15
)


20
(
8718.41
8697.39
8634.33
8529.23
8382.09
8192.91
7961.69
7688.43
7373.13
7015.78
6616.4
6174.98
5691.52
5166.01
4598.47
3988.88
1982.72
1934.93
1888.7
1843.92
)


20
(
9428.37
9405.04
9335.06
9218.41
9055.12
8845.16
8588.55
8285.28
7935.36
7538.77
7095.53
6605.64
6069.09
5485.88
4856.01
4179.49
1953.03
1899.99
1848.68
1798.99
)


20
(
10008.1
9982.87
9907.06
9780.72
9603.84
9376.42
9098.47
8769.97
8390.94
7961.38
7481.27
6950.63
6369.45
5737.73
5055.48
4322.69
1911.04
1853.59
1798.01
1744.19
)


20
(
10448.7
10421.9
10341.4
10207.4
10019.7
9778.41
9483.49
9134.96
8732.8
8277.02
7767.62
7204.6
6587.96
5917.7
5193.81
4416.31
1857.51
1796.55
1737.59
1680.48
)


20
(
10743.1
10715.2
10631.4
10491.7
10296.2
10044.8
9737.62
9374.53
8955.59
8480.79
7950.13
7363.61
6721.23
6022.99
5268.9
4458.94
1793.34
1729.84
1668.42
1608.93
)


20
(
10886.8
10858.2
10772.3
10629.3
10429
10171.6
9856.88
9484.98
9055.86
8569.52
8025.97
7425.2
6767.21
6052.01
5279.59
4449.96
1719.6
1654.56
1591.64
1530.7
)


20
(
10877.5
10848.7
10762.2
10618
10416.2
10156.6
9839.44
9464.58
9032.05
8541.85
7993.98
7388.43
6725.22
6004.33
5225.77
4389.54
1637.49
1571.93
1508.51
1447.09
)


20
(
10715.5
10686.9
10601.1
10458
10257.8
10000.3
9685.63
9313.72
8884.6
8398.26
7854.71
7253.94
6595.96
5880.75
5108.34
4278.7
1548.34
1483.3
1420.38
1359.45
)


20
(
10403.4
10375.5
10291.7
10152
9956.51
9705.14
9397.92
9034.84
8615.89
8141.09
7610.43
7023.91
6381.53
5683.29
4929.19
4119.24
1453.64
1390.14
1328.71
1269.22
)


20
(
9946.09
9919.28
9838.84
9704.79
9517.12
9275.82
8980.91
8632.37
8230.21
7774.43
7265.03
6702.01
6085.37
5415.11
4691.22
3913.72
1354.91
1293.96
1234.99
1177.89
)


20
(
9350.77
9325.5
9249.7
9123.35
8946.47
8719.05
8441.1
8112.6
7733.57
7304
6823.9
6293.26
5712.08
5080.36
4398.1
3665.31
1253.66
1196.21
1140.63
1086.81
)


20
(
8626.44
8603.11
8533.12
8416.48
8253.18
8043.23
7786.61
7483.35
7133.42
6736.84
6293.6
5803.7
5267.15
4683.94
4054.07
3377.55
1151.08
1098.04
1046.73
997.044
)


20
(
7783.42
7762.4
7699.34
7594.24
7447.1
7257.92
7026.7
6753.43
6438.13
6080.79
5681.41
5239.99
4756.53
4231.02
3663.48
3053.9
1047.74
999.949
953.717
908.944
)


20
(
6832.81
6814.43
6759.29
6667.39
6538.73
6373.3
6171.12
5932.17
5656.46
5344
4994.77
4608.78
4186.03
3726.52
3230.24
2697.21
942.976
901.188
860.761
821.611
)


20
(
5785.09
5769.64
5723.29
5646.03
5537.88
5398.82
5228.86
5028
4796.24
4533.57
4240
3915.54
3560.17
3173.9
2756.72
2308.65
834.016
798.888
764.905
731.995
)


20
(
4648.91
4636.63
4599.8
4538.41
4452.46
4341.96
4206.91
4047.3
3863.13
3654.41
3421.14
3163.31
2880.92
2573.98
2242.48
1886.42
714.639
686.726
659.722
633.57
)


20
(
3429.38
3420.47
3393.74
3349.19
3286.81
3206.62
3108.6
2992.76
2859.1
2707.62
2538.32
2351.19
2146.25
1923.48
1682.89
1424.48
574.046
553.788
534.189
515.21
)


20
(
2131.37
2125.97
2109.76
2082.74
2044.92
1996.29
1936.86
1866.62
1785.57
1693.72
1591.06