/*--------------------------------*- C++ -*----------------------------------*\
| =========                 |                                                 |
| \\      /  F ield         | OpenFOAM: The Open Source CFD Toolbox           |
|  \\    /   O peration     | Version:  2212                                  |
|   \\  /    A nd           | Website:  www.openfoam.com                      |
|    \\/     M anipulation  |                                                 |
\*---------------------------------------------------------------------------*/
FoamFile
{
    version     2.0;
    format      ascii;
    arch        "LSB;label=32;scalar=64";
    class       volScalarField;
    location    "97/fluidRegion";
    object      Tfav.nuclearFuelPin;
}
// * * * * * * * * * * * * * * * * * * * * * * * * * * * * * * * * * * * * * //

dimensions      [0 0 0 1 0 0 0];

internalField   nonuniform List<scalar> 
350
(
0
0
0
0
0
0
0
0
0
0
0
0
0
0
0
0
0
0
0
0
0
0
0
0
0
0
0
0
0
0
0
0
0
0
0
0
0
0
0
0
0
0
0
0
0
0
0
0
0
0
2223.35
3010.38
3766.7
4480.78
5141.67
5739.22
6264.22
6708.55
7065.34
7329.06
7495.61
7562.41
7528.47
7394.36
7162.27
6835.9
6420.31
5921.64
5346.65
4702.16
3993.86
3225.15
2395.63
1504.3
564.348
2256.13
3052.35
3817.43
4539.71
5208.12
5812.37
6343.16
6792.29
7152.8
7419.1
7587.06
7654.08
7619.13
7482.82
7247.36
6916.51
6495.41
5990.34
5408.15
4755.83
4039.15
3261.53
2422.48
1520.82
569.895
2218.04
3003.62
3758.57
4471.36
5131.08
5727.58
6251.67
6695.25
7051.46
7314.78
7481.12
7547.9
7514.12
7380.36
7148.81
6823.16
6408.44
5910.79
5336.93
4693.68
3986.72
3219.43
2391.42
1501.72
563.474
2248.73
3042.82
3805.88
4526.25
5192.91
5795.61
6325.05
6773.06
7132.7
7398.4
7566.03
7632.99
7598.26
7462.45
7227.76
6897.94
6478.11
5974.51
5393.99
4743.46
4028.71
3253.15
2416.29
1517.01
568.617
2248.73
3042.82
3805.88
4526.25
5192.91
5795.61
6325.05
6773.06
7132.7
7398.4
7566.03
7632.99
7598.26
7462.45
7227.76
6897.94
6478.11
5974.51
5393.98
4743.46
4028.71
3253.15
2416.29
1517.01
568.617
2218.04
3003.62
3758.57
4471.36
5131.08
5727.58
6251.67
6695.25
7051.47
7314.78
7481.12
7547.9
7514.12
7380.36
7148.81
6823.16
6408.44
5910.79
5336.94
4693.68
3986.72
3219.43
2391.43
1501.72
563.474
2256.13
3052.35
3817.44
4539.72
5208.12
5812.37
6343.16
6792.29
7152.8
7419.1
7587.06
7654.08
7619.13
7482.82
7247.36
6916.51
6495.41
5990.33
5408.15
4755.83
4039.15
3261.53
2422.48
1520.82
569.895
2223.35
3010.38
3766.7
4480.78
5141.67
5739.22
6264.22
6708.55
7065.34
7329.06
7495.61
7562.41
7528.47
7394.36
7162.27
6835.9
6420.31
5921.64
5346.65
4702.16
3993.86
3225.16
2395.63
1504.3
564.348
2248.73
3042.82
3805.88
4526.25
5192.91
5795.61
6325.05
6773.06
7132.7
7398.4
7566.03
7632.99
7598.26
7462.45
7227.76
6897.94
6478.11
5974.51
5393.99
4743.46
4028.71
3253.15
2416.29
1517.01
568.617
2218.04
3003.62
3758.57
4471.36
5131.08
5727.58
6251.67
6695.25
7051.46
7314.78
7481.12
7547.9
7514.12
7380.36
7148.81
6823.16
6408.44
5910.79
5336.93
4693.68
3986.72
3219.43
2391.43
1501.72
563.474
2218.04
3003.62
3758.57
4471.36
5131.08
5727.58
6251.67
6695.25
7051.47
7314.78
7481.12
7547.9
7514.12
7380.36
7148.81
6823.16
6408.44
5910.79
5336.94
4693.68
3986.72
3219.43
2391.43
1501.72
563.474
2248.73
3042.82
3805.88
4526.25
5192.91
5795.61
6325.05
6773.06
7132.7
7398.4
7566.03
7632.99
7598.26
7462.45
7227.76
6897.94
6478.11
5974.51
5393.98
4743.46
4028.71
3253.15
2416.29
1517.01
568.617
)
;

boundaryField
{
    outletCentralUnloaded
    {
        type            zeroGradient;
    }
    inletCentralUnloaded
    {
        type            zeroGradient;
    }
    outletFuelElement
    {
        type            zeroGradient;
    }
    inletFuelElement
    {
        type            zeroGradient;
    }
    defaultFaces
    {
        type            zeroGradient;
    }
    baffle_master
    {
        type            zeroGradient;
    }
    baffle_slave
    {
        type            zeroGradient;
    }
}


// ************************************************************************* //
