/*--------------------------------*- C++ -*----------------------------------*\
| =========                 |                                                 |
| \\      /  F ield         | OpenFOAM: The Open Source CFD Toolbox           |
|  \\    /   O peration     | Version:  2212                                  |
|   \\  /    A nd           | Website:  www.openfoam.com                      |
|    \\/     M anipulation  |                                                 |
\*---------------------------------------------------------------------------*/
FoamFile
{
    version     2.0;
    format      ascii;
    arch        "LSB;label=32;scalar=64";
    class       volScalarField;
    location    "16/fluidRegion";
    object      epsilon;
}
// * * * * * * * * * * * * * * * * * * * * * * * * * * * * * * * * * * * * * //

dimensions      [0 2 -3 0 0 0 0];

internalField   nonuniform List<scalar> 
350
(
66.6733
66.6569
66.6405
66.6242
66.6079
66.5917
66.5756
66.5596
66.5438
66.5282
66.5131
66.4986
66.485
66.4729
66.463
66.4566
66.4553
66.462
66.4809
66.5184
66.5842
66.6935
66.8691
67.1462
67.578
66.6733
66.6569
66.6405
66.6242
66.6079
66.5917
66.5756
66.5596
66.5438
66.5282
66.5131
66.4986
66.485
66.4729
66.463
66.4566
66.4553
66.462
66.4809
66.5184
66.5842
66.6935
66.8691
67.1462
67.578
2.68619e+06
2.53682e+06
2.35273e+06
2.13678e+06
1.89963e+06
1.65206e+06
1.4043e+06
1.16547e+06
943143
743044
568896
422429
303526
210511
140534
90026.4
55150.1
32192.3
17849.9
9394.15
4722.23
2322.9
1191.31
715.908
562.006
2.73689e+06
2.58542e+06
2.3985e+06
2.17891e+06
1.93753e+06
1.68534e+06
1.43281e+06
1.18926e+06
962444
758229
580452
430909
309508
214550
143133
91611.1
56059.9
32679.7
18090.7
9501.9
4764.94
2337.41
1195.36
716.861
562.363
2.67778e+06
2.52879e+06
2.3452e+06
2.12987e+06
1.89344e+06
1.64664e+06
1.39967e+06
1.16162e+06
940029
740601
567041
421070
302569
209866
140119
89772.6
55003.8
32113.3
17810.4
9375.96
4714.65
2320.06
1190.34
715.608
561.92
2.72568e+06
2.57465e+06
2.38833e+06
2.16953e+06
1.92906e+06
1.67789e+06
1.42641e+06
1.18391e+06
958094
754799
577837
428987
308149
213631
142541
91249.8
55852.3
32568.4
18035.7
9477.34
4755.23
2334.14
1194.47
716.66
562.288
2.72568e+06
2.57465e+06
2.38833e+06
2.16953e+06
1.92906e+06
1.67789e+06
1.42641e+06
1.18391e+06
958094
754799
577837
428987
308149
213631
142541
91249.8
55852.3
32568.4
18035.7
9477.34
4755.23
2334.14
1194.47
716.66
562.288
2.67779e+06
2.52879e+06
2.3452e+06
2.12988e+06
1.89344e+06
1.64664e+06
1.39967e+06
1.16162e+06
940030
740602
567042
421070
302570
209866
140119
89772.7
55003.8
32113.3
17810.4
9375.96
4714.64
2320.05
1190.34
715.607
561.92
2.73689e+06
2.58542e+06
2.3985e+06
2.17891e+06
1.93753e+06
1.68534e+06
1.43281e+06
1.18926e+06
962444
758229
580452
430909
309508
214550
143133
91611.1
56060
32679.7
18090.7
9501.9
4764.94
2337.41
1195.36
716.861
562.363
2.68619e+06
2.53682e+06
2.35273e+06
2.13678e+06
1.89963e+06
1.65206e+06
1.4043e+06
1.16547e+06
943143
743044
568896
422429
303526
210511
140534
90026.4
55150.1
32192.2
17849.9
9394.15
4722.23
2322.9
1191.3
715.906
562.005
2.72568e+06
2.57465e+06
2.38833e+06
2.16952e+06
1.92906e+06
1.67789e+06
1.42641e+06
1.18391e+06
958094
754799
577837
428987
308149
213631
142541
91249.8
55852.3
32568.4
18035.7
9477.34
4755.23
2334.14
1194.47
716.66
562.288
2.67778e+06
2.52879e+06
2.3452e+06
2.12987e+06
1.89344e+06
1.64664e+06
1.39967e+06
1.16162e+06
940029
740601
567041
421070
302569
209866
140119
89772.6
55003.7
32113.2
17810.4
9375.95
4714.64
2320.05
1190.34
715.606
561.917
2.67778e+06
2.52879e+06
2.3452e+06
2.12988e+06
1.89344e+06
1.64664e+06
1.39967e+06
1.16162e+06
940030
740602
567042
421070
302570
209866
140119
89772.7
55003.8
32113.3
17810.4
9375.95
4714.64
2320.05
1190.34
715.606
561.919
2.72568e+06
2.57465e+06
2.38833e+06
2.16953e+06
1.92906e+06
1.67789e+06
1.42641e+06
1.18391e+06
958094
754800
577837
428987
308149
213631
142541
91249.8
55852.3
32568.4
18035.7
9477.33
4755.23
2334.13
1194.46
716.658
562.286
)
;

boundaryField
{
    outletCentralUnloaded
    {
        type            zeroGradient;
    }
    inletCentralUnloaded
    {
        type            zeroGradient;
    }
    outletFuelElement
    {
        type            zeroGradient;
    }
    inletFuelElement
    {
        type            zeroGradient;
    }
    defaultFaces
    {
        type            zeroGradient;
    }
    baffle_master
    {
        type            zeroGradient;
    }
    baffle_slave
    {
        type            zeroGradient;
    }
}


// ************************************************************************* //
