/*--------------------------------*- C++ -*----------------------------------*\
| =========                 |                                                 |
| \\      /  F ield         | OpenFOAM: The Open Source CFD Toolbox           |
|  \\    /   O peration     | Version:  2212                                  |
|   \\  /    A nd           | Website:  www.openfoam.com                      |
|    \\/     M anipulation  |                                                 |
\*---------------------------------------------------------------------------*/
FoamFile
{
    version     2.0;
    format      ascii;
    arch        "LSB;label=32;scalar=64";
    class       volScalarField;
    location    "16/fluidRegion";
    object      heatFlux.structure;
}
// * * * * * * * * * * * * * * * * * * * * * * * * * * * * * * * * * * * * * //

dimensions      [1 0 -3 0 0 0 0];

internalField   nonuniform List<scalar> 
350
(
-257942
-257945
-257948
-257951
-257954
-257957
-257960
-257963
-257966
-257969
-257972
-257975
-257978
-257981
-257984
-257987
-257990
-257993
-257996
-257999
-258002
-258005
-258008
-258011
-258623
-257942
-257945
-257948
-257951
-257954
-257957
-257960
-257963
-257966
-257969
-257972
-257975
-257978
-257981
-257984
-257987
-257990
-257993
-257996
-257999
-258002
-258005
-258008
-258011
-258623
-199347
434212
1.05821e+06
1.66254e+06
2.23748e+06
2.77378e+06
3.26286e+06
3.69688e+06
4.06891e+06
4.37301e+06
4.60431e+06
4.7591e+06
4.83484e+06
4.83024e+06
4.74526e+06
4.58117e+06
4.34056e+06
4.02744e+06
3.64728e+06
3.20732e+06
2.71664e+06
2.18668e+06
1.63092e+06
1.06317e+06
492340
-207675
433055
1.06415e+06
1.67538e+06
2.25692e+06
2.79942e+06
3.29418e+06
3.73329e+06
4.10974e+06
4.4175e+06
4.65168e+06
4.80849e+06
4.88539e+06
4.88105e+06
4.79544e+06
4.62983e+06
4.3868e+06
4.0704e+06
3.68615e+06
3.24134e+06
2.74515e+06
2.20917e+06
1.64707e+06
1.07287e+06
495588
-197973
434437
1.05729e+06
1.66052e+06
2.2344e+06
2.76971e+06
3.25787e+06
3.69107e+06
4.0624e+06
4.3659e+06
4.59674e+06
4.7512e+06
4.82676e+06
4.82211e+06
4.73724e+06
4.57339e+06
4.33317e+06
4.02056e+06
3.64106e+06
3.20188e+06
2.71207e+06
2.18307e+06
1.62832e+06
1.0616e+06
491819
-205824
433262
1.06273e+06
1.67238e+06
2.25241e+06
2.79348e+06
3.28694e+06
3.72489e+06
4.10032e+06
4.40725e+06
4.64076e+06
4.79711e+06
4.87375e+06
4.86935e+06
4.78389e+06
4.61863e+06
4.37616e+06
4.06052e+06
3.67721e+06
3.23352e+06
2.73859e+06
2.204e+06
1.64336e+06
1.07064e+06
494841
-205824
433262
1.06273e+06
1.67238e+06
2.2524e+06
2.79348e+06
3.28694e+06
3.72488e+06
4.10032e+06
4.40725e+06
4.64076e+06
4.79711e+06
4.87375e+06
4.86935e+06
4.78389e+06
4.61863e+06
4.37616e+06
4.06052e+06
3.67721e+06
3.23352e+06
2.73859e+06
2.204e+06
1.64336e+06
1.07064e+06
494841
-197973
434436
1.05729e+06
1.66052e+06
2.2344e+06
2.76971e+06
3.25787e+06
3.69107e+06
4.0624e+06
4.3659e+06
4.59674e+06
4.7512e+06
4.82676e+06
4.82211e+06
4.73724e+06
4.57339e+06
4.33317e+06
4.02056e+06
3.64106e+06
3.20187e+06
2.71207e+06
2.18307e+06
1.62832e+06
1.0616e+06
491819
-207675
433055
1.06415e+06
1.67538e+06
2.25692e+06
2.79942e+06
3.29418e+06
3.73329e+06
4.10974e+06
4.4175e+06
4.65168e+06
4.80849e+06
4.88538e+06
4.88105e+06
4.79544e+06
4.62983e+06
4.3868e+06
4.0704e+06
3.68615e+06
3.24134e+06
2.74515e+06
2.20917e+06
1.64707e+06
1.07287e+06
495588
-199347
434212
1.05821e+06
1.66254e+06
2.23748e+06
2.77378e+06
3.26286e+06
3.69688e+06
4.06891e+06
4.37301e+06
4.60431e+06
4.7591e+06
4.83484e+06
4.83024e+06
4.74526e+06
4.58117e+06
4.34056e+06
4.02744e+06
3.64728e+06
3.20732e+06
2.71664e+06
2.18668e+06
1.63092e+06
1.06317e+06
492340
-205824
433262
1.06273e+06
1.67238e+06
2.2524e+06
2.79348e+06
3.28694e+06
3.72488e+06
4.10032e+06
4.40725e+06
4.64076e+06
4.79711e+06
4.87375e+06
4.86935e+06
4.78389e+06
4.61863e+06
4.37616e+06
4.06052e+06
3.67721e+06
3.23352e+06
2.73859e+06
2.204e+06
1.64336e+06
1.07064e+06
494841
-197973
434437
1.05729e+06
1.66052e+06
2.2344e+06
2.76971e+06
3.25787e+06
3.69107e+06
4.0624e+06
4.3659e+06
4.59674e+06
4.7512e+06
4.82676e+06
4.82211e+06
4.73724e+06
4.57339e+06
4.33317e+06
4.02056e+06
3.64106e+06
3.20188e+06
2.71207e+06
2.18307e+06
1.62832e+06
1.0616e+06
491819
-197973
434436
1.05729e+06
1.66052e+06
2.2344e+06
2.76971e+06
3.25787e+06
3.69107e+06
4.06239e+06
4.3659e+06
4.59674e+06
4.7512e+06
4.82676e+06
4.82211e+06
4.73724e+06
4.57339e+06
4.33317e+06
4.02056e+06
3.64106e+06
3.20188e+06
2.71207e+06
2.18307e+06
1.62832e+06
1.0616e+06
491819
-205824
433262
1.06273e+06
1.67238e+06
2.2524e+06
2.79348e+06
3.28694e+06
3.72488e+06
4.10032e+06
4.40725e+06
4.64076e+06
4.79711e+06
4.87375e+06
4.86935e+06
4.78389e+06
4.61863e+06
4.37616e+06
4.06052e+06
3.67721e+06
3.23352e+06
2.73859e+06
2.204e+06
1.64336e+06
1.07064e+06
494841
)
;

boundaryField
{
    outletCentralUnloaded
    {
        type            zeroGradient;
    }
    inletCentralUnloaded
    {
        type            zeroGradient;
    }
    outletFuelElement
    {
        type            zeroGradient;
    }
    inletFuelElement
    {
        type            zeroGradient;
    }
    defaultFaces
    {
        type            zeroGradient;
    }
    baffle_master
    {
        type            zeroGradient;
    }
    baffle_slave
    {
        type            zeroGradient;
    }
}


// ************************************************************************* //
