/*--------------------------------*- C++ -*----------------------------------*\
| =========                 |                                                 |
| \\      /  F ield         | OpenFOAM: The Open Source CFD Toolbox           |
|  \\    /   O peration     | Version:  2212                                  |
|   \\  /    A nd           | Website:  www.openfoam.com                      |
|    \\/     M anipulation  |                                                 |
\*---------------------------------------------------------------------------*/
FoamFile
{
    version     2.0;
    format      ascii;
    arch        "LSB;label=32;scalar=64";
    class       volScalarField;
    location    "16/fluidRegion";
    object      htc;
}
// * * * * * * * * * * * * * * * * * * * * * * * * * * * * * * * * * * * * * //

dimensions      [1 0 -3 -1 0 0 0];

internalField   nonuniform List<scalar> 
350
(
3096.99
3097
3097.02
3097.04
3097.05
3097.07
3097.09
3097.11
3097.12
3097.14
3097.16
3097.18
3097.19
3097.21
3097.23
3097.24
3097.26
3097.28
3097.29
3097.31
3097.33
3097.35
3097.36
3097.38
3104.72
3096.99
3097
3097.02
3097.04
3097.05
3097.07
3097.09
3097.11
3097.12
3097.14
3097.16
3097.18
3097.19
3097.21
3097.23
3097.24
3097.26
3097.28
3097.29
3097.31
3097.33
3097.35
3097.36
3097.38
3104.72
21023.3
21015.2
20944.5
20770.3
20494.1
20118.6
19647.2
19084.7
18437.1
17711.5
16916.4
16061.3
15155.9
14209.6
13231
12227.9
11208
10180.2
9156.98
8156.38
7204.38
6337.06
5601.11
5048.56
4667.01
21080.4
21072.8
21003
20828.8
20552.2
20175.5
19702.3
19137.3
18486.4
17756.8
16957.2
16097.3
15186.9
14235.9
13252.9
12246
11222.6
10191.7
9165.4
8161.64
7206.51
6336.4
5598.61
5045.82
4665.86
21014.1
21005.8
20935.1
20760.9
20484.8
20109.4
19638.4
19076.3
18429.2
17704.2
16909.9
16055.6
15150.9
14205.3
13227.4
12224.8
11205.4
10178.1
9155.3
8155.14
7203.57
6336.6
5600.88
5048.4
4666.91
21067.8
21060
20990
20815.8
20539.2
20162.8
19690
19125.5
18475.3
17746.6
16948
16089.2
15179.9
14230
13248
12242
11219.4
10189.2
9163.54
8160.5
7206.09
6336.63
5599.26
5046.53
4666.16
21067.8
21060
20990
20815.8
20539.2
20162.8
19690
19125.5
18475.3
17746.6
16948
16089.2
15179.9
14230
13248
12242
11219.4
10189.2
9163.54
8160.5
7206.09
6336.63
5599.26
5046.53
4666.16
21014.1
21005.8
20935.1
20760.9
20484.8
20109.4
19638.4
19076.3
18429.2
17704.2
16909.9
16055.6
15150.9
14205.3
13227.4
12224.8
11205.4
10178.1
9155.3
8155.14
7203.56
6336.59
5600.87
5048.39
4666.91
21080.4
21072.8
21003
20828.8
20552.2
20175.5
19702.3
19137.3
18486.4
17756.8
16957.2
16097.3
15186.9
14235.9
13252.9
12246
11222.6
10191.7
9165.4
8161.64
7206.51
6336.4
5598.61
5045.82
4665.86
21023.3
21015.2
20944.5
20770.3
20494.1
20118.6
19647.2
19084.7
18437.1
17711.5
16916.4
16061.3
15155.9
14209.6
13231
12227.9
11208
10180.2
9156.98
8156.38
7204.38
6337.06
5601.11
5048.56
4667.01
21067.8
21060
20990
20815.8
20539.2
20162.8
19690
19125.5
18475.3
17746.6
16948
16089.2
15179.9
14230
13248
12242
11219.4
10189.2
9163.54
8160.5
7206.09
6336.63
5599.26
5046.53
4666.16
21014.1
21005.8
20935.1
20760.9
20484.8
20109.4
19638.4
19076.3
18429.2
17704.2
16909.9
16055.6
15150.9
14205.3
13227.4
12224.8
11205.4
10178.1
9155.3
8155.14
7203.57
6336.6
5600.88
5048.4
4666.91
21014.1
21005.8
20935.1
20760.9
20484.8
20109.4
19638.4
19076.3
18429.2
17704.2
16909.9
16055.6
15150.9
14205.3
13227.4
12224.8
11205.4
10178.1
9155.3
8155.14
7203.56
6336.59
5600.87
5048.39
4666.91
21067.8
21060
20990
20815.8
20539.2
20162.8
19690
19125.5
18475.3
17746.6
16948
16089.2
15179.9
14230
13248
12242
11219.4
10189.2
9163.54
8160.5
7206.09
6336.63
5599.26
5046.53
4666.16
)
;

boundaryField
{
    outletCentralUnloaded
    {
        type            zeroGradient;
    }
    inletCentralUnloaded
    {
        type            zeroGradient;
    }
    outletFuelElement
    {
        type            zeroGradient;
    }
    inletFuelElement
    {
        type            zeroGradient;
    }
    defaultFaces
    {
        type            zeroGradient;
    }
    baffle_master
    {
        type            zeroGradient;
    }
    baffle_slave
    {
        type            zeroGradient;
    }
}


// ************************************************************************* //
