/*--------------------------------*- C++ -*----------------------------------*\
| =========                 |                                                 |
| \\      /  F ield         | OpenFOAM: The Open Source CFD Toolbox           |
|  \\    /   O peration     | Version:  2212                                  |
|   \\  /    A nd           | Website:  www.openfoam.com                      |
|    \\/     M anipulation  |                                                 |
\*---------------------------------------------------------------------------*/
FoamFile
{
    version     2.0;
    format      ascii;
    arch        "LSB;label=32;scalar=64";
    class       volTensorField;
    location    "16/fluidRegion";
    object      Kd;
}
// * * * * * * * * * * * * * * * * * * * * * * * * * * * * * * * * * * * * * //

dimensions      [1 -3 -1 0 0 0 0];

internalField   nonuniform List<tensor> 
350
(
(84.6298 0 0 0 84.6298 0 0 0 84.6298)
(84.6298 0 0 0 84.6298 0 0 0 84.6298)
(84.6298 0 0 0 84.6298 0 0 0 84.6298)
(84.6298 0 0 0 84.6298 0 0 0 84.6298)
(84.6298 0 0 0 84.6298 0 0 0 84.6298)
(84.6298 0 0 0 84.6298 0 0 0 84.6298)
(84.6298 0 0 0 84.6298 0 0 0 84.6298)
(84.6298 0 0 0 84.6298 0 0 0 84.6298)
(84.6298 0 0 0 84.6298 0 0 0 84.6298)
(84.6298 0 0 0 84.6298 0 0 0 84.6298)
(84.6298 0 0 0 84.6298 0 0 0 84.6298)
(84.6298 0 0 0 84.6298 0 0 0 84.6298)
(84.6298 0 0 0 84.6298 0 0 0 84.6298)
(84.6298 0 0 0 84.6298 0 0 0 84.6298)
(84.6298 0 0 0 84.6298 0 0 0 84.6298)
(84.6298 0 0 0 84.6298 0 0 0 84.6298)
(84.6298 0 0 0 84.6298 0 0 0 84.6298)
(84.6298 0 0 0 84.6298 0 0 0 84.6298)
(84.6298 0 0 0 84.6298 0 0 0 84.6298)
(84.6298 0 0 0 84.6298 0 0 0 84.6298)
(84.6298 0 0 0 84.6298 0 0 0 84.6298)
(84.6298 0 0 0 84.6298 0 0 0 84.6298)
(84.6298 0 0 0 84.6298 0 0 0 84.6298)
(84.6298 0 0 0 84.6298 0 0 0 84.6298)
(84.8175 0 0 0 84.8175 0 0 0 84.8175)
(84.6298 0 0 0 84.6298 0 0 0 84.6298)
(84.6298 0 0 0 84.6298 0 0 0 84.6298)
(84.6298 0 0 0 84.6298 0 0 0 84.6298)
(84.6298 0 0 0 84.6298 0 0 0 84.6298)
(84.6298 0 0 0 84.6298 0 0 0 84.6298)
(84.6298 0 0 0 84.6298 0 0 0 84.6298)
(84.6298 0 0 0 84.6298 0 0 0 84.6298)
(84.6298 0 0 0 84.6298 0 0 0 84.6298)
(84.6298 0 0 0 84.6298 0 0 0 84.6298)
(84.6298 0 0 0 84.6298 0 0 0 84.6298)
(84.6298 0 0 0 84.6298 0 0 0 84.6298)
(84.6298 0 0 0 84.6298 0 0 0 84.6298)
(84.6298 0 0 0 84.6298 0 0 0 84.6298)
(84.6298 0 0 0 84.6298 0 0 0 84.6298)
(84.6298 0 0 0 84.6298 0 0 0 84.6298)
(84.6298 0 0 0 84.6298 0 0 0 84.6298)
(84.6298 0 0 0 84.6298 0 0 0 84.6298)
(84.6298 0 0 0 84.6298 0 0 0 84.6298)
(84.6298 0 0 0 84.6298 0 0 0 84.6298)
(84.6298 0 0 0 84.6298 0 0 0 84.6298)
(84.6298 0 0 0 84.6298 0 0 0 84.6298)
(84.6298 0 0 0 84.6298 0 0 0 84.6298)
(84.6298 0 0 0 84.6298 0 0 0 84.6298)
(84.6298 0 0 0 84.6298 0 0 0 84.6298)
(84.8175 0 0 0 84.8175 0 0 0 84.8175)
(651.222 0 0 0 651.222 0 0 0 651.222)
(650.033 0 0 0 650.033 0 0 0 650.033)
(650.057 0 0 0 650.057 0 0 0 650.057)
(650.071 0 0 0 650.071 0 0 0 650.071)
(650.074 0 0 0 650.074 0 0 0 650.074)
(650.064 0 0 0 650.064 0 0 0 650.064)
(650.041 0 0 0 650.041 0 0 0 650.041)
(650.005 0 0 0 650.005 0 0 0 650.005)
(649.954 0 0 0 649.954 0 0 0 649.954)
(649.889 0 0 0 649.889 0 0 0 649.889)
(649.809 0 0 0 649.809 0 0 0 649.809)
(649.714 0 0 0 649.714 0 0 0 649.714)
(649.601 0 0 0 649.601 0 0 0 649.601)
(649.469 0 0 0 649.469 0 0 0 649.469)
(649.313 0 0 0 649.313 0 0 0 649.313)
(649.127 0 0 0 649.127 0 0 0 649.127)
(648.906 0 0 0 648.906 0 0 0 648.906)
(648.654 0 0 0 648.654 0 0 0 648.654)
(648.391 0 0 0 648.391 0 0 0 648.391)
(648.195 0 0 0 648.195 0 0 0 648.195)
(648.231 0 0 0 648.231 0 0 0 648.231)
(648.876 0 0 0 648.876 0 0 0 648.876)
(650.808 0 0 0 650.808 0 0 0 650.808)
(654.934 0 0 0 654.934 0 0 0 654.934)
(654.959 0 0 0 654.959 0 0 0 654.959)
(647.463 0 0 0 647.463 0 0 0 647.463)
(646.199 0 0 0 646.199 0 0 0 646.199)
(646.171 0 0 0 646.171 0 0 0 646.171)
(646.134 0 0 0 646.134 0 0 0 646.134)
(646.09 0 0 0 646.09 0 0 0 646.09)
(646.039 0 0 0 646.039 0 0 0 646.039)
(645.981 0 0 0 645.981 0 0 0 645.981)
(645.916 0 0 0 645.916 0 0 0 645.916)
(645.844 0 0 0 645.844 0 0 0 645.844)
(645.766 0 0 0 645.766 0 0 0 645.766)
(645.687 0 0 0 645.687 0 0 0 645.687)
(645.608 0 0 0 645.608 0 0 0 645.608)
(645.534 0 0 0 645.534 0 0 0 645.534)
(645.466 0 0 0 645.466 0 0 0 645.466)
(645.403 0 0 0 645.403 0 0 0 645.403)
(645.343 0 0 0 645.343 0 0 0 645.343)
(645.283 0 0 0 645.283 0 0 0 645.283)
(645.228 0 0 0 645.228 0 0 0 645.228)
(645.203 0 0 0 645.203 0 0 0 645.203)
(645.293 0 0 0 645.293 0 0 0 645.293)
(645.677 0 0 0 645.677 0 0 0 645.677)
(646.751 0 0 0 646.751 0 0 0 646.751)
(649.215 0 0 0 649.215 0 0 0 649.215)
(653.976 0 0 0 653.976 0 0 0 653.976)
(654.663 0 0 0 654.663 0 0 0 654.663)
(651.851 0 0 0 651.851 0 0 0 651.851)
(650.667 0 0 0 650.667 0 0 0 650.667)
(650.699 0 0 0 650.699 0 0 0 650.699)
(650.719 0 0 0 650.719 0 0 0 650.719)
(650.726 0 0 0 650.726 0 0 0 650.726)
(650.719 0 0 0 650.719 0 0 0 650.719)
(650.699 0 0 0 650.699 0 0 0 650.699)
(650.664 0 0 0 650.664 0 0 0 650.664)
(650.614 0 0 0 650.614 0 0 0 650.614)
(650.547 0 0 0 650.547 0 0 0 650.547)
(650.463 0 0 0 650.463 0 0 0 650.463)
(650.361 0 0 0 650.361 0 0 0 650.361)
(650.237 0 0 0 650.237 0 0 0 650.237)
(650.09 0 0 0 650.09 0 0 0 650.09)
(649.914 0 0 0 649.914 0 0 0 649.914)
(649.703 0 0 0 649.703 0 0 0 649.703)
(649.45 0 0 0 649.45 0 0 0 649.45)
(649.16 0 0 0 649.16 0 0 0 649.16)
(648.852 0 0 0 648.852 0 0 0 648.852)
(648.602 0 0 0 648.602 0 0 0 648.602)
(648.573 0 0 0 648.573 0 0 0 648.573)
(649.14 0 0 0 649.14 0 0 0 649.14)
(650.979 0 0 0 650.979 0 0 0 650.979)
(655.008 0 0 0 655.008 0 0 0 655.008)
(654.969 0 0 0 654.969 0 0 0 654.969)
(648.305 0 0 0 648.305 0 0 0 648.305)
(647.061 0 0 0 647.061 0 0 0 647.061)
(647.046 0 0 0 647.046 0 0 0 647.046)
(647.022 0 0 0 647.022 0 0 0 647.022)
(646.99 0 0 0 646.99 0 0 0 646.99)
(646.951 0 0 0 646.951 0 0 0 646.951)
(646.902 0 0 0 646.902 0 0 0 646.902)
(646.845 0 0 0 646.845 0 0 0 646.845)
(646.779 0 0 0 646.779 0 0 0 646.779)
(646.706 0 0 0 646.706 0 0 0 646.706)
(646.628 0 0 0 646.628 0 0 0 646.628)
(646.547 0 0 0 646.547 0 0 0 646.547)
(646.465 0 0 0 646.465 0 0 0 646.465)
(646.384 0 0 0 646.384 0 0 0 646.384)
(646.301 0 0 0 646.301 0 0 0 646.301)
(646.214 0 0 0 646.214 0 0 0 646.214)
(646.118 0 0 0 646.118 0 0 0 646.118)
(646.019 0 0 0 646.019 0 0 0 646.019)
(645.941 0 0 0 645.941 0 0 0 645.941)
(645.966 0 0 0 645.966 0 0 0 645.966)
(646.271 0 0 0 646.271 0 0 0 646.271)
(647.248 0 0 0 647.248 0 0 0 647.248)
(649.59 0 0 0 649.59 0 0 0 649.59)
(654.206 0 0 0 654.206 0 0 0 654.206)
(654.736 0 0 0 654.736 0 0 0 654.736)
(648.305 0 0 0 648.305 0 0 0 648.305)
(647.061 0 0 0 647.061 0 0 0 647.061)
(647.046 0 0 0 647.046 0 0 0 647.046)
(647.022 0 0 0 647.022 0 0 0 647.022)
(646.99 0 0 0 646.99 0 0 0 646.99)
(646.951 0 0 0 646.951 0 0 0 646.951)
(646.902 0 0 0 646.902 0 0 0 646.902)
(646.845 0 0 0 646.845 0 0 0 646.845)
(646.779 0 0 0 646.779 0 0 0 646.779)
(646.706 0 0 0 646.706 0 0 0 646.706)
(646.628 0 0 0 646.628 0 0 0 646.628)
(646.547 0 0 0 646.547 0 0 0 646.547)
(646.465 0 0 0 646.465 0 0 0 646.465)
(646.384 0 0 0 646.384 0 0 0 646.384)
(646.301 0 0 0 646.301 0 0 0 646.301)
(646.214 0 0 0 646.214 0 0 0 646.214)
(646.118 0 0 0 646.118 0 0 0 646.118)
(646.019 0 0 0 646.019 0 0 0 646.019)
(645.941 0 0 0 645.941 0 0 0 645.941)
(645.966 0 0 0 645.966 0 0 0 645.966)
(646.271 0 0 0 646.271 0 0 0 646.271)
(647.248 0 0 0 647.248 0 0 0 647.248)
(649.59 0 0 0 649.59 0 0 0 649.59)
(654.206 0 0 0 654.206 0 0 0 654.206)
(654.736 0 0 0 654.736 0 0 0 654.736)
(651.851 0 0 0 651.851 0 0 0 651.851)
(650.667 0 0 0 650.667 0 0 0 650.667)
(650.699 0 0 0 650.699 0 0 0 650.699)
(650.719 0 0 0 650.719 0 0 0 650.719)
(650.726 0 0 0 650.726 0 0 0 650.726)
(650.719 0 0 0 650.719 0 0 0 650.719)
(650.699 0 0 0 650.699 0 0 0 650.699)
(650.664 0 0 0 650.664 0 0 0 650.664)
(650.614 0 0 0 650.614 0 0 0 650.614)
(650.547 0 0 0 650.547 0 0 0 650.547)
(650.463 0 0 0 650.463 0 0 0 650.463)
(650.36 0 0 0 650.36 0 0 0 650.36)
(650.237 0 0 0 650.237 0 0 0 650.237)
(650.09 0 0 0 650.09 0 0 0 650.09)
(649.914 0 0 0 649.914 0 0 0 649.914)
(649.702 0 0 0 649.702 0 0 0 649.702)
(649.45 0 0 0 649.45 0 0 0 649.45)
(649.159 0 0 0 649.159 0 0 0 649.159)
(648.851 0 0 0 648.851 0 0 0 648.851)
(648.601 0 0 0 648.601 0 0 0 648.601)
(648.573 0 0 0 648.573 0 0 0 648.573)
(649.139 0 0 0 649.139 0 0 0 649.139)
(650.978 0 0 0 650.978 0 0 0 650.978)
(655.007 0 0 0 655.007 0 0 0 655.007)
(654.969 0 0 0 654.969 0 0 0 654.969)
(647.463 0 0 0 647.463 0 0 0 647.463)
(646.199 0 0 0 646.199 0 0 0 646.199)
(646.171 0 0 0 646.171 0 0 0 646.171)
(646.134 0 0 0 646.134 0 0 0 646.134)
(646.09 0 0 0 646.09 0 0 0 646.09)
(646.039 0 0 0 646.039 0 0 0 646.039)
(645.981 0 0 0 645.981 0 0 0 645.981)
(645.916 0 0 0 645.916 0 0 0 645.916)
(645.844 0 0 0 645.844 0 0 0 645.844)
(645.766 0 0 0 645.766 0 0 0 645.766)
(645.687 0 0 0 645.687 0 0 0 645.687)
(645.608 0 0 0 645.608 0 0 0 645.608)
(645.534 0 0 0 645.534 0 0 0 645.534)
(645.466 0 0 0 645.466 0 0 0 645.466)
(645.403 0 0 0 645.403 0 0 0 645.403)
(645.343 0 0 0 645.343 0 0 0 645.343)
(645.283 0 0 0 645.283 0 0 0 645.283)
(645.228 0 0 0 645.228 0 0 0 645.228)
(645.203 0 0 0 645.203 0 0 0 645.203)
(645.293 0 0 0 645.293 0 0 0 645.293)
(645.677 0 0 0 645.677 0 0 0 645.677)
(646.751 0 0 0 646.751 0 0 0 646.751)
(649.215 0 0 0 649.215 0 0 0 649.215)
(653.976 0 0 0 653.976 0 0 0 653.976)
(654.663 0 0 0 654.663 0 0 0 654.663)
(651.222 0 0 0 651.222 0 0 0 651.222)
(650.033 0 0 0 650.033 0 0 0 650.033)
(650.057 0 0 0 650.057 0 0 0 650.057)
(650.071 0 0 0 650.071 0 0 0 650.071)
(650.074 0 0 0 650.074 0 0 0 650.074)
(650.064 0 0 0 650.064 0 0 0 650.064)
(650.041 0 0 0 650.041 0 0 0 650.041)
(650.005 0 0 0 650.005 0 0 0 650.005)
(649.954 0 0 0 649.954 0 0 0 649.954)
(649.889 0 0 0 649.889 0 0 0 649.889)
(649.809 0 0 0 649.809 0 0 0 649.809)
(649.714 0 0 0 649.714 0 0 0 649.714)
(649.601 0 0 0 649.601 0 0 0 649.601)
(649.469 0 0 0 649.469 0 0 0 649.469)
(649.313 0 0 0 649.313 0 0 0 649.313)
(649.127 0 0 0 649.127 0 0 0 649.127)
(648.906 0 0 0 648.906 0 0 0 648.906)
(648.654 0 0 0 648.654 0 0 0 648.654)
(648.391 0 0 0 648.391 0 0 0 648.391)
(648.195 0 0 0 648.195 0 0 0 648.195)
(648.231 0 0 0 648.231 0 0 0 648.231)
(648.876 0 0 0 648.876 0 0 0 648.876)
(650.808 0 0 0 650.808 0 0 0 650.808)
(654.934 0 0 0 654.934 0 0 0 654.934)
(654.959 0 0 0 654.959 0 0 0 654.959)
(648.305 0 0 0 648.305 0 0 0 648.305)
(647.061 0 0 0 647.061 0 0 0 647.061)
(647.046 0 0 0 647.046 0 0 0 647.046)
(647.022 0 0 0 647.022 0 0 0 647.022)
(646.99 0 0 0 646.99 0 0 0 646.99)
(646.951 0 0 0 646.951 0 0 0 646.951)
(646.902 0 0 0 646.902 0 0 0 646.902)
(646.845 0 0 0 646.845 0 0 0 646.845)
(646.779 0 0 0 646.779 0 0 0 646.779)
(646.706 0 0 0 646.706 0 0 0 646.706)
(646.628 0 0 0 646.628 0 0 0 646.628)
(646.547 0 0 0 646.547 0 0 0 646.547)
(646.465 0 0 0 646.465 0 0 0 646.465)
(646.384 0 0 0 646.384 0 0 0 646.384)
(646.301 0 0 0 646.301 0 0 0 646.301)
(646.214 0 0 0 646.214 0 0 0 646.214)
(646.118 0 0 0 646.118 0 0 0 646.118)
(646.019 0 0 0 646.019 0 0 0 646.019)
(645.941 0 0 0 645.941 0 0 0 645.941)
(645.966 0 0 0 645.966 0 0 0 645.966)
(646.271 0 0 0 646.271 0 0 0 646.271)
(647.248 0 0 0 647.248 0 0 0 647.248)
(649.59 0 0 0 649.59 0 0 0 649.59)
(654.206 0 0 0 654.206 0 0 0 654.206)
(654.736 0 0 0 654.736 0 0 0 654.736)
(651.851 0 0 0 651.851 0 0 0 651.851)
(650.667 0 0 0 650.667 0 0 0 650.667)
(650.699 0 0 0 650.699 0 0 0 650.699)
(650.719 0 0 0 650.719 0 0 0 650.719)
(650.726 0 0 0 650.726 0 0 0 650.726)
(650.719 0 0 0 650.719 0 0 0 650.719)
(650.699 0 0 0 650.699 0 0 0 650.699)
(650.664 0 0 0 650.664 0 0 0 650.664)
(650.614 0 0 0 650.614 0 0 0 650.614)
(650.547 0 0 0 650.547 0 0 0 650.547)
(650.463 0 0 0 650.463 0 0 0 650.463)
(650.361 0 0 0 650.361 0 0 0 650.361)
(650.238 0 0 0 650.238 0 0 0 650.238)
(650.091 0 0 0 650.091 0 0 0 650.091)
(649.914 0 0 0 649.914 0 0 0 649.914)
(649.703 0 0 0 649.703 0 0 0 649.703)
(649.45 0 0 0 649.45 0 0 0 649.45)
(649.16 0 0 0 649.16 0 0 0 649.16)
(648.852 0 0 0 648.852 0 0 0 648.852)
(648.602 0 0 0 648.602 0 0 0 648.602)
(648.573 0 0 0 648.573 0 0 0 648.573)
(649.14 0 0 0 649.14 0 0 0 649.14)
(650.979 0 0 0 650.979 0 0 0 650.979)
(655.008 0 0 0 655.008 0 0 0 655.008)
(654.969 0 0 0 654.969 0 0 0 654.969)
(651.851 0 0 0 651.851 0 0 0 651.851)
(650.667 0 0 0 650.667 0 0 0 650.667)
(650.699 0 0 0 650.699 0 0 0 650.699)
(650.719 0 0 0 650.719 0 0 0 650.719)
(650.726 0 0 0 650.726 0 0 0 650.726)
(650.719 0 0 0 650.719 0 0 0 650.719)
(650.699 0 0 0 650.699 0 0 0 650.699)
(650.664 0 0 0 650.664 0 0 0 650.664)
(650.614 0 0 0 650.614 0 0 0 650.614)
(650.547 0 0 0 650.547 0 0 0 650.547)
(650.463 0 0 0 650.463 0 0 0 650.463)
(650.36 0 0 0 650.36 0 0 0 650.36)
(650.237 0 0 0 650.237 0 0 0 650.237)
(650.09 0 0 0 650.09 0 0 0 650.09)
(649.914 0 0 0 649.914 0 0 0 649.914)
(649.702 0 0 0 649.702 0 0 0 649.702)
(649.45 0 0 0 649.45 0 0 0 649.45)
(649.159 0 0 0 649.159 0 0 0 649.159)
(648.851 0 0 0 648.851 0 0 0 648.851)
(648.601 0 0 0 648.601 0 0 0 648.601)
(648.573 0 0 0 648.573 0 0 0 648.573)
(649.139 0 0 0 649.139 0 0 0 649.139)
(650.978 0 0 0 650.978 0 0 0 650.978)
(655.007 0 0 0 655.007 0 0 0 655.007)
(654.969 0 0 0 654.969 0 0 0 654.969)
(648.305 0 0 0 648.305 0 0 0 648.305)
(647.061 0 0 0 647.061 0 0 0 647.061)
(647.046 0 0 0 647.046 0 0 0 647.046)
(647.022 0 0 0 647.022 0 0 0 647.022)
(646.99 0 0 0 646.99 0 0 0 646.99)
(646.951 0 0 0 646.951 0 0 0 646.951)
(646.902 0 0 0 646.902 0 0 0 646.902)
(646.845 0 0 0 646.845 0 0 0 646.845)
(646.779 0 0 0 646.779 0 0 0 646.779)
(646.706 0 0 0 646.706 0 0 0 646.706)
(646.628 0 0 0 646.628 0 0 0 646.628)
(646.547 0 0 0 646.547 0 0 0 646.547)
(646.465 0 0 0 646.465 0 0 0 646.465)
(646.384 0 0 0 646.384 0 0 0 646.384)
(646.301 0 0 0 646.301 0 0 0 646.301)
(646.214 0 0 0 646.214 0 0 0 646.214)
(646.118 0 0 0 646.118 0 0 0 646.118)
(646.019 0 0 0 646.019 0 0 0 646.019)
(645.941 0 0 0 645.941 0 0 0 645.941)
(645.966 0 0 0 645.966 0 0 0 645.966)
(646.271 0 0 0 646.271 0 0 0 646.271)
(647.248 0 0 0 647.248 0 0 0 647.248)
(649.591 0 0 0 649.591 0 0 0 649.591)
(654.206 0 0 0 654.206 0 0 0 654.206)
(654.736 0 0 0 654.736 0 0 0 654.736)
)
;

boundaryField
{
    outletCentralUnloaded
    {
        type            zeroGradient;
    }
    inletCentralUnloaded
    {
        type            zeroGradient;
    }
    outletFuelElement
    {
        type            zeroGradient;
    }
    inletFuelElement
    {
        type            zeroGradient;
    }
    defaultFaces
    {
        type            zeroGradient;
    }
    baffle_master
    {
        type            zeroGradient;
    }
    baffle_slave
    {
        type            zeroGradient;
    }
}


// ************************************************************************* //
