/*--------------------------------*- C++ -*----------------------------------*\
| =========                 |                                                 |
| \\      /  F ield         | OpenFOAM: The Open Source CFD Toolbox           |
|  \\    /   O peration     | Version:  2212                                  |
|   \\  /    A nd           | Website:  www.openfoam.com                      |
|    \\/     M anipulation  |                                                 |
\*---------------------------------------------------------------------------*/
FoamFile
{
    version     2.0;
    format      ascii;
    arch        "LSB;label=32;scalar=64";
    class       volScalarField;
    location    "16/fluidRegion";
    object      nut;
}
// * * * * * * * * * * * * * * * * * * * * * * * * * * * * * * * * * * * * * //

dimensions      [0 2 -1 0 0 0 0];

internalField   nonuniform List<scalar> 
350
(
0.000536708
0.000536664
0.00053662
0.000536576
0.000536532
0.000536489
0.000536445
0.000536402
0.00053636
0.000536318
0.000536277
0.000536238
0.000536201
0.000536168
0.000536141
0.000536122
0.000536117
0.000536132
0.000536178
0.000536272
0.000536438
0.000536716
0.000537163
0.000537871
0.000539857
0.000536708
0.000536664
0.00053662
0.000536576
0.000536532
0.000536489
0.000536445
0.000536402
0.00053636
0.000536318
0.000536277
0.000536238
0.000536201
0.000536168
0.000536141
0.000536122
0.000536117
0.000536132
0.000536178
0.000536272
0.000536438
0.000536716
0.000537163
0.000537871
0.000539857
0.0072298
0.00714274
0.00702032
0.00684967
0.00663401
0.006377
0.00608267
0.00575536
0.00539978
0.005021
0.00462446
0.00421595
0.00380163
0.00338782
0.00298091
0.0025871
0.00221217
0.00186138
0.00153942
0.00125054
0.000998701
0.000787554
0.000620076
0.000497633
0.000416113
0.00727038
0.00718332
0.00706091
0.00688983
0.00667339
0.00641527
0.00611949
0.00579043
0.00543281
0.00505172
0.00465263
0.00424139
0.00382418
0.00340743
0.00299758
0.0026009
0.00222326
0.00186998
0.00154579
0.00125499
0.00100155
0.000789167
0.00062083
0.000497885
0.000416169
0.00722311
0.00713603
0.00701366
0.00684309
0.00662758
0.00637077
0.00607669
0.00574968
0.00539445
0.00501605
0.00461993
0.00421187
0.00379801
0.00338467
0.00297823
0.00258487
0.00221037
0.00185997
0.00153836
0.00124979
0.000998187
0.00078723
0.000619888
0.000497536
0.000416086
0.00726141
0.00717434
0.0070519
0.00688089
0.00666461
0.00640672
0.00611125
0.00578256
0.00542538
0.0050448
0.00464627
0.00423564
0.00381908
0.00340298
0.00299379
0.00259777
0.00222074
0.00186802
0.00154434
0.00125398
0.0010009
0.000788806
0.000620665
0.000497835
0.000416159
0.00726141
0.00717434
0.0070519
0.00688089
0.00666461
0.00640672
0.00611125
0.00578256
0.00542538
0.0050448
0.00464627
0.00423564
0.00381908
0.00340298
0.00299379
0.00259777
0.00222074
0.00186802
0.00154434
0.00125398
0.0010009
0.000788806
0.000620665
0.000497835
0.000416159
0.00722311
0.00713603
0.00701366
0.00684309
0.00662758
0.00637077
0.00607669
0.00574968
0.00539445
0.00501605
0.00461993
0.00421187
0.00379801
0.00338467
0.00297824
0.00258487
0.00221037
0.00185997
0.00153836
0.00124979
0.000998187
0.00078723
0.000619887
0.000497535
0.000416086
0.00727038
0.00718332
0.00706091
0.00688983
0.00667339
0.00641527
0.00611949
0.00579043
0.00543281
0.00505172
0.00465263
0.00424139
0.00382418
0.00340743
0.00299758
0.0026009
0.00222326
0.00186998
0.00154579
0.00125499
0.00100155
0.000789167
0.000620831
0.000497885
0.000416169
0.0072298
0.00714274
0.00702032
0.00684967
0.00663401
0.006377
0.00608267
0.00575536
0.00539978
0.005021
0.00462446
0.00421595
0.00380163
0.00338782
0.00298091
0.0025871
0.00221217
0.00186138
0.00153942
0.00125054
0.000998701
0.000787554
0.000620076
0.000497633
0.000416113
0.00726141
0.00717434
0.0070519
0.00688089
0.00666461
0.00640672
0.00611125
0.00578256
0.00542538
0.0050448
0.00464627
0.00423564
0.00381908
0.00340298
0.00299379
0.00259777
0.00222074
0.00186802
0.00154434
0.00125398
0.0010009
0.000788806
0.000620665
0.000497835
0.000416159
0.00722311
0.00713603
0.00701366
0.00684309
0.00662758
0.00637077
0.00607669
0.00574968
0.00539445
0.00501605
0.00461993
0.00421187
0.00379801
0.00338467
0.00297823
0.00258487
0.00221037
0.00185997
0.00153836
0.00124979
0.000998187
0.00078723
0.000619888
0.000497535
0.000416085
0.00722311
0.00713603
0.00701366
0.00684309
0.00662758
0.00637077
0.00607669
0.00574968
0.00539445
0.00501605
0.00461993
0.00421187
0.00379801
0.00338467
0.00297824
0.00258487
0.00221037
0.00185997
0.00153836
0.00124979
0.000998187
0.00078723
0.000619887
0.000497535
0.000416085
0.00726141
0.00717434
0.0070519
0.00688089
0.00666461
0.00640672
0.00611125
0.00578256
0.00542538
0.0050448
0.00464627
0.00423564
0.00381908
0.00340298
0.00299379
0.00259776
0.00222074
0.00186802
0.00154434
0.00125398
0.0010009
0.000788805
0.000620665
0.000497834
0.000416159
)
;

boundaryField
{
    outletCentralUnloaded
    {
        type            zeroGradient;
    }
    inletCentralUnloaded
    {
        type            zeroGradient;
    }
    outletFuelElement
    {
        type            zeroGradient;
    }
    inletFuelElement
    {
        type            zeroGradient;
    }
    defaultFaces
    {
        type            zeroGradient;
    }
    baffle_master
    {
        type            calculated;
        value           nonuniform List<scalar> 
150
(
0.000536708
0.000536708
0.000536708
0.000536664
0.000536664
0.000536664
0.00053662
0.00053662
0.00053662
0.000536576
0.000536576
0.000536576
0.000536532
0.000536532
0.000536532
0.000536489
0.000536489
0.000536489
0.000536445
0.000536445
0.000536445
0.000536402
0.000536402
0.000536402
0.00053636
0.00053636
0.00053636
0.000536318
0.000536318
0.000536318
0.000536277
0.000536277
0.000536277
0.000536238
0.000536238
0.000536238
0.000536201
0.000536201
0.000536201
0.000536168
0.000536168
0.000536168
0.000536141
0.000536141
0.000536141
0.000536122
0.000536122
0.000536122
0.000536117
0.000536117
0.000536117
0.000536132
0.000536132
0.000536132
0.000536178
0.000536178
0.000536178
0.000536272
0.000536272
0.000536272
0.000536438
0.000536438
0.000536438
0.000536716
0.000536716
0.000536716
0.000537163
0.000537163
0.000537163
0.000537871
0.000537871
0.000537871
0.000539857
0.000539857
0.000539857
0.000536708
0.000536708
0.000536708
0.000536664
0.000536664
0.000536664
0.00053662
0.00053662
0.00053662
0.000536576
0.000536576
0.000536576
0.000536532
0.000536532
0.000536532
0.000536489
0.000536489
0.000536489
0.000536445
0.000536445
0.000536445
0.000536402
0.000536402
0.000536402
0.00053636
0.00053636
0.00053636
0.000536318
0.000536318
0.000536318
0.000536277
0.000536277
0.000536277
0.000536238
0.000536238
0.000536238
0.000536201
0.000536201
0.000536201
0.000536168
0.000536168
0.000536168
0.000536141
0.000536141
0.000536141
0.000536122
0.000536122
0.000536122
0.000536117
0.000536117
0.000536117
0.000536132
0.000536132
0.000536132
0.000536178
0.000536178
0.000536178
0.000536272
0.000536272
0.000536272
0.000536438
0.000536438
0.000536438
0.000536716
0.000536716
0.000536716
0.000537163
0.000537163
0.000537163
0.000537871
0.000537871
0.000537871
0.000539857
0.000539857
0.000539857
)
;
    }
    baffle_slave
    {
        type            calculated;
        value           nonuniform List<scalar> 
150
(
0.00727038
0.00726141
0.00726141
0.00718332
0.00717434
0.00717434
0.00706091
0.0070519
0.0070519
0.00688983
0.00688089
0.00688089
0.00667339
0.00666461
0.00666461
0.00641527
0.00640672
0.00640672
0.00611949
0.00611125
0.00611125
0.00579043
0.00578256
0.00578256
0.00543281
0.00542538
0.00542538
0.00505172
0.0050448
0.0050448
0.00465263
0.00464627
0.00464627
0.00424139
0.00423564
0.00423564
0.00382418
0.00381908
0.00381908
0.00340743
0.00340298
0.00340298
0.00299758
0.00299379
0.00299379
0.0026009
0.00259777
0.00259776
0.00222326
0.00222074
0.00222074
0.00186998
0.00186802
0.00186802
0.00154579
0.00154434
0.00154434
0.00125499
0.00125398
0.00125398
0.00100155
0.0010009
0.0010009
0.000789167
0.000788806
0.000788805
0.00062083
0.000620665
0.000620665
0.000497885
0.000497835
0.000497834
0.000416169
0.000416159
0.000416159
0.00726141
0.00727038
0.00726141
0.00717434
0.00718332
0.00717434
0.0070519
0.00706091
0.0070519
0.00688089
0.00688983
0.00688089
0.00666461
0.00667339
0.00666461
0.00640672
0.00641527
0.00640672
0.00611125
0.00611949
0.00611125
0.00578256
0.00579043
0.00578256
0.00542538
0.00543281
0.00542538
0.0050448
0.00505172
0.0050448
0.00464627
0.00465263
0.00464627
0.00423564
0.00424139
0.00423564
0.00381908
0.00382418
0.00381908
0.00340298
0.00340743
0.00340298
0.00299379
0.00299758
0.00299379
0.00259777
0.0026009
0.00259777
0.00222074
0.00222326
0.00222074
0.00186802
0.00186998
0.00186802
0.00154434
0.00154579
0.00154434
0.00125398
0.00125499
0.00125398
0.0010009
0.00100155
0.0010009
0.000788806
0.000789167
0.000788806
0.000620665
0.000620831
0.000620665
0.000497835
0.000497885
0.000497835
0.000416159
0.000416169
0.000416159
)
;
    }
}


// ************************************************************************* //
