/*--------------------------------*- C++ -*----------------------------------*\
| =========                 |                                                 |
| \\      /  F ield         | OpenFOAM: The Open Source CFD Toolbox           |
|  \\    /   O peration     | Version:  2212                                  |
|   \\  /    A nd           | Website:  www.openfoam.com                      |
|    \\/     M anipulation  |                                                 |
\*---------------------------------------------------------------------------*/
FoamFile
{
    version     2.0;
    format      ascii;
    arch        "LSB;label=32;scalar=64";
    class       volScalarField;
    location    "16/fluidRegion";
    object      p;
}
// * * * * * * * * * * * * * * * * * * * * * * * * * * * * * * * * * * * * * //

dimensions      [1 -1 -2 0 0 0 0];

internalField   nonuniform List<scalar> 
350
(
3.44743e+06
3.44772e+06
3.44802e+06
3.44831e+06
3.44861e+06
3.4489e+06
3.4492e+06
3.44949e+06
3.44979e+06
3.45008e+06
3.45037e+06
3.45067e+06
3.45096e+06
3.45126e+06
3.45155e+06
3.45185e+06
3.45214e+06
3.45244e+06
3.45273e+06
3.45303e+06
3.45332e+06
3.45362e+06
3.45391e+06
3.4542e+06
3.45449e+06
3.44743e+06
3.44772e+06
3.44802e+06
3.44831e+06
3.44861e+06
3.4489e+06
3.4492e+06
3.44949e+06
3.44979e+06
3.45008e+06
3.45037e+06
3.45067e+06
3.45096e+06
3.45126e+06
3.45155e+06
3.45185e+06
3.45214e+06
3.45244e+06
3.45273e+06
3.45303e+06
3.45332e+06
3.45362e+06
3.45391e+06
3.4542e+06
3.45449e+06
3.46434e+06
3.49805e+06
3.53175e+06
3.56521e+06
3.59818e+06
3.63043e+06
3.66174e+06
3.69191e+06
3.72076e+06
3.74811e+06
3.77383e+06
3.79778e+06
3.81986e+06
3.84001e+06
3.85818e+06
3.87437e+06
3.88859e+06
3.9009e+06
3.91138e+06
3.92014e+06
3.9273e+06
3.93301e+06
3.93744e+06
3.9408e+06
3.9433e+06
3.46434e+06
3.49805e+06
3.53175e+06
3.56521e+06
3.59818e+06
3.63043e+06
3.66174e+06
3.69191e+06
3.72076e+06
3.74811e+06
3.77383e+06
3.79778e+06
3.81986e+06
3.84001e+06
3.85818e+06
3.87437e+06
3.88859e+06
3.9009e+06
3.91138e+06
3.92014e+06
3.9273e+06
3.93301e+06
3.93744e+06
3.9408e+06
3.9433e+06
3.46434e+06
3.49805e+06
3.53175e+06
3.56521e+06
3.59818e+06
3.63043e+06
3.66174e+06
3.69191e+06
3.72076e+06
3.74811e+06
3.77383e+06
3.79778e+06
3.81986e+06
3.84001e+06
3.85818e+06
3.87437e+06
3.88859e+06
3.9009e+06
3.91138e+06
3.92014e+06
3.9273e+06
3.93301e+06
3.93744e+06
3.9408e+06
3.9433e+06
3.46434e+06
3.49805e+06
3.53175e+06
3.56521e+06
3.59818e+06
3.63043e+06
3.66174e+06
3.69191e+06
3.72076e+06
3.74811e+06
3.77383e+06
3.79778e+06
3.81986e+06
3.84001e+06
3.85818e+06
3.87437e+06
3.88859e+06
3.9009e+06
3.91138e+06
3.92014e+06
3.9273e+06
3.93301e+06
3.93744e+06
3.9408e+06
3.9433e+06
3.46434e+06
3.49805e+06
3.53175e+06
3.56521e+06
3.59818e+06
3.63043e+06
3.66174e+06
3.69191e+06
3.72076e+06
3.74811e+06
3.77383e+06
3.79778e+06
3.81986e+06
3.84001e+06
3.85818e+06
3.87437e+06
3.88859e+06
3.9009e+06
3.91138e+06
3.92014e+06
3.9273e+06
3.93301e+06
3.93744e+06
3.9408e+06
3.9433e+06
3.46434e+06
3.49805e+06
3.53175e+06
3.56521e+06
3.59818e+06
3.63043e+06
3.66174e+06
3.69191e+06
3.72076e+06
3.74811e+06
3.77383e+06
3.79778e+06
3.81986e+06
3.84001e+06
3.85818e+06
3.87437e+06
3.88859e+06
3.9009e+06
3.91138e+06
3.92014e+06
3.9273e+06
3.93301e+06
3.93744e+06
3.9408e+06
3.9433e+06
3.46434e+06
3.49805e+06
3.53175e+06
3.56521e+06
3.59818e+06
3.63043e+06
3.66174e+06
3.69191e+06
3.72076e+06
3.74811e+06
3.77383e+06
3.79778e+06
3.81986e+06
3.84001e+06
3.85818e+06
3.87437e+06
3.88859e+06
3.9009e+06
3.91138e+06
3.92014e+06
3.9273e+06
3.93301e+06
3.93744e+06
3.9408e+06
3.9433e+06
3.46434e+06
3.49805e+06
3.53175e+06
3.56521e+06
3.59818e+06
3.63043e+06
3.66174e+06
3.69191e+06
3.72076e+06
3.74811e+06
3.77383e+06
3.79778e+06
3.81986e+06
3.84001e+06
3.85818e+06
3.87437e+06
3.88859e+06
3.9009e+06
3.91138e+06
3.92014e+06
3.9273e+06
3.93301e+06
3.93744e+06
3.9408e+06
3.9433e+06
3.46434e+06
3.49805e+06
3.53175e+06
3.56521e+06
3.59818e+06
3.63043e+06
3.66174e+06
3.69191e+06
3.72076e+06
3.74811e+06
3.77383e+06
3.79778e+06
3.81986e+06
3.84001e+06
3.85818e+06
3.87437e+06
3.88859e+06
3.9009e+06
3.91138e+06
3.92014e+06
3.9273e+06
3.93301e+06
3.93744e+06
3.9408e+06
3.9433e+06
3.46434e+06
3.49805e+06
3.53175e+06
3.56521e+06
3.59818e+06
3.63043e+06
3.66174e+06
3.69191e+06
3.72076e+06
3.74811e+06
3.77383e+06
3.79778e+06
3.81986e+06
3.84001e+06
3.85818e+06
3.87437e+06
3.88859e+06
3.9009e+06
3.91138e+06
3.92014e+06
3.9273e+06
3.93301e+06
3.93744e+06
3.9408e+06
3.9433e+06
3.46434e+06
3.49805e+06
3.53175e+06
3.56521e+06
3.59818e+06
3.63043e+06
3.66174e+06
3.69191e+06
3.72076e+06
3.74811e+06
3.77383e+06
3.79778e+06
3.81986e+06
3.84001e+06
3.85818e+06
3.87437e+06
3.88859e+06
3.9009e+06
3.91138e+06
3.92014e+06
3.9273e+06
3.93301e+06
3.93744e+06
3.9408e+06
3.9433e+06
3.46434e+06
3.49805e+06
3.53175e+06
3.56521e+06
3.59818e+06
3.63043e+06
3.66174e+06
3.69191e+06
3.72076e+06
3.74811e+06
3.77383e+06
3.79778e+06
3.81986e+06
3.84001e+06
3.85818e+06
3.87437e+06
3.88859e+06
3.9009e+06
3.91138e+06
3.92014e+06
3.9273e+06
3.93301e+06
3.93744e+06
3.9408e+06
3.9433e+06
)
;

boundaryField
{
    outletCentralUnloaded
    {
        type            fixedValue;
        value           uniform 3.44728e+06;
    }
    inletCentralUnloaded
    {
        type            zeroGradient;
    }
    outletFuelElement
    {
        type            fixedValue;
        value           uniform 3.44728e+06;
    }
    inletFuelElement
    {
        type            zeroGradient;
    }
    defaultFaces
    {
        type            zeroGradient;
    }
    baffle_master
    {
        type            zeroGradient;
    }
    baffle_slave
    {
        type            zeroGradient;
    }
}


// ************************************************************************* //
