/*--------------------------------*- C++ -*----------------------------------*\
| =========                 |                                                 |
| \\      /  F ield         | OpenFOAM: The Open Source CFD Toolbox           |
|  \\    /   O peration     | Version:  2212                                  |
|   \\  /    A nd           | Website:  www.openfoam.com                      |
|    \\/     M anipulation  |                                                 |
\*---------------------------------------------------------------------------*/
FoamFile
{
    version     2.0;
    format      ascii;
    arch        "LSB;label=32;scalar=64";
    class       volScalarField;
    location    "16/fluidRegion";
    object      Re;
}
// * * * * * * * * * * * * * * * * * * * * * * * * * * * * * * * * * * * * * //

dimensions      [0 0 0 0 0 0 0];

internalField   nonuniform List<scalar> 
350
(
173725
173725
173725
173725
173725
173725
173725
173725
173725
173725
173725
173725
173725
173725
173725
173725
173725
173725
173725
173725
173725
173725
173725
173725
174239
173725
173725
173725
173725
173725
173725
173725
173725
173725
173725
173725
173725
173725
173725
173725
173725
173725
173725
173725
173725
173725
173725
173725
173725
174239
52055.4
51928.6
51931.2
51932.7
51933
51932
51929.5
51925.7
51920.3
51913.4
51904.8
51894.7
51882.7
51868.7
51852
51832.2
51808.7
51781.8
51753.9
51733
51736.9
51805.5
52011.2
52451.4
52454
51655.1
51520.7
51517.7
51513.8
51509.1
51503.7
51497.6
51490.6
51482.9
51474.7
51466.3
51457.9
51450
51442.8
51436.1
51429.8
51423.4
51417.5
51414.9
51424.4
51465.2
51579.4
51841.5
52349.1
52422.4
52122.4
51996.2
51999.6
52001.7
52002.5
52001.8
51999.7
51995.9
51990.6
51983.5
51974.5
51963.6
51950.5
51934.8
51916
51893.5
51866.6
51835.7
51802.9
51776.3
51773.3
51833.6
52029.4
52459.2
52455.1
51744.7
51612.3
51610.7
51608.2
51604.9
51600.6
51595.5
51589.4
51582.4
51574.6
51566.3
51557.7
51549
51540.4
51531.6
51522.3
51512.1
51501.5
51493.2
51495.9
51528.4
51632.3
51881.6
52373.7
52430.2
51744.7
51612.3
51610.7
51608.2
51604.9
51600.6
51595.5
51589.4
51582.4
51574.6
51566.3
51557.7
51549
51540.4
51531.6
51522.3
51512.1
51501.5
51493.2
51495.9
51528.4
51632.3
51881.6
52373.7
52430.2
52122.4
51996.2
51999.6
52001.7
52002.5
52001.8
51999.7
51995.9
51990.6
51983.5
51974.5
51963.6
51950.4
51934.8
51916
51893.5
51866.6
51835.6
51802.9
51776.3
51773.2
51833.5
52029.3
52459.1
52455.1
51655.1
51520.7
51517.7
51513.8
51509.1
51503.7
51497.6
51490.6
51482.9
51474.7
51466.3
51457.9
51450
51442.8
51436.1
51429.8
51423.4
51417.5
51414.9
51424.4
51465.2
51579.4
51841.5
52349.1
52422.4
52055.4
51928.6
51931.2
51932.7
51933
51932
51929.5
51925.7
51920.3
51913.4
51904.9
51894.7
51882.7
51868.7
51852
51832.2
51808.7
51781.8
51753.9
51733
51736.9
51805.5
52011.2
52451.4
52454
51744.7
51612.3
51610.7
51608.2
51604.9
51600.6
51595.5
51589.4
51582.4
51574.6
51566.3
51557.7
51549
51540.4
51531.6
51522.3
51512.1
51501.5
51493.2
51495.9
51528.4
51632.3
51881.6
52373.7
52430.2
52122.4
51996.2
51999.6
52001.8
52002.5
52001.8
51999.7
51996
51990.6
51983.5
51974.5
51963.6
51950.5
51934.8
51916
51893.5
51866.6
51835.7
51802.9
51776.3
51773.3
51833.6
52029.4
52459.2
52455.1
52122.4
51996.2
51999.6
52001.7
52002.5
52001.8
51999.7
51995.9
51990.6
51983.5
51974.5
51963.6
51950.4
51934.8
51916
51893.5
51866.6
51835.6
51802.9
51776.3
51773.2
51833.5
52029.3
52459.1
52455.1
51744.7
51612.3
51610.7
51608.2
51604.9
51600.6
51595.5
51589.4
51582.4
51574.6
51566.3
51557.7
51549
51540.4
51531.6
51522.3
51512.1
51501.5
51493.2
51495.9
51528.4
51632.3
51881.6
52373.7
52430.2
)
;

boundaryField
{
    outletCentralUnloaded
    {
        type            zeroGradient;
    }
    inletCentralUnloaded
    {
        type            zeroGradient;
    }
    outletFuelElement
    {
        type            zeroGradient;
    }
    inletFuelElement
    {
        type            zeroGradient;
    }
    defaultFaces
    {
        type            zeroGradient;
    }
    baffle_master
    {
        type            zeroGradient;
    }
    baffle_slave
    {
        type            zeroGradient;
    }
}


// ************************************************************************* //
