/*--------------------------------*- C++ -*----------------------------------*\
| =========                 |                                                 |
| \\      /  F ield         | OpenFOAM: The Open Source CFD Toolbox           |
|  \\    /   O peration     | Version:  2212                                  |
|   \\  /    A nd           | Website:  www.openfoam.com                      |
|    \\/     M anipulation  |                                                 |
\*---------------------------------------------------------------------------*/
FoamFile
{
    version     2.0;
    format      ascii;
    arch        "LSB;label=32;scalar=64";
    class       volScalarField;
    location    "16/fluidRegion";
    object      T.fuelAvForNeutronics;
}
// * * * * * * * * * * * * * * * * * * * * * * * * * * * * * * * * * * * * * //

dimensions      [0 0 0 1 0 0 0];

internalField   nonuniform List<scalar> 
350
(
0
0
0
0
0
0
0
0
0
0
0
0
0
0
0
0
0
0
0
0
0
0
0
0
0
0
0
0
0
0
0
0
0
0
0
0
0
0
0
0
0
0
0
0
0
0
0
0
0
0
1227.86
1776.89
2307.68
2812.08
3282.37
3711.31
4092.35
4419.63
4688.15
4893.81
5033.51
5105.15
5107.7
5041.2
4906.7
4706.26
4442.86
4120.25
3742.8
3315.38
2843.02
2330.82
1783.99
1208.79
615.011
1239.72
1795.19
2332.18
2842.46
3318.2
3752.1
4137.5
4468.5
4740.03
4947.96
5089.14
5161.45
5163.87
5096.42
4960.19
4757.27
4490.68
4164.22
3782.33
3349.94
2872.12
2354.04
1800.92
1219.1
618.47
1225.93
1773.94
2303.74
2807.21
3276.63
3704.8
4085.15
4411.84
4679.88
4885.19
5024.66
5096.2
5098.77
5032.42
4898.2
4698.16
4435.27
4113.26
3736.52
3309.9
2838.4
2327.14
1781.31
1207.16
614.462
1237.04
1791.02
2326.58
2835.5
3309.98
3742.73
4127.13
4457.27
4728.11
4935.51
5076.34
5148.5
5150.94
5083.71
4947.87
4745.53
4479.67
4154.09
3773.22
3341.98
2865.42
2348.69
1797.02
1216.72
617.673
1237.04
1791.02
2326.58
2835.5
3309.98
3742.73
4127.13
4457.27
4728.11
4935.51
5076.34
5148.5
5150.94
5083.71
4947.87
4745.53
4479.67
4154.09
3773.22
3341.98
2865.42
2348.69
1797.02
1216.72
617.673
1225.93
1773.94
2303.74
2807.21
3276.63
3704.8
4085.15
4411.84
4679.88
4885.19
5024.66
5096.19
5098.77
5032.42
4898.2
4698.16
4435.27
4113.26
3736.52
3309.9
2838.4
2327.14
1781.31
1207.16
614.462
1239.72
1795.19
2332.18
2842.46
3318.2
3752.1
4137.5
4468.5
4740.03
4947.96
5089.14
5161.45
5163.87
5096.42
4960.19
4757.27
4490.68
4164.22
3782.33
3349.94
2872.12
2354.04
1800.92
1219.1
618.47
1227.86
1776.89
2307.68
2812.08
3282.36
3711.31
4092.35
4419.63
4688.15
4893.81
5033.51
5105.15
5107.7
5041.2
4906.7
4706.27
4442.86
4120.25
3742.8
3315.38
2843.02
2330.82
1783.99
1208.79
615.011
1237.04
1791.02
2326.58
2835.5
3309.98
3742.73
4127.13
4457.27
4728.11
4935.51
5076.34
5148.5
5150.94
5083.71
4947.87
4745.53
4479.67
4154.09
3773.22
3341.98
2865.42
2348.69
1797.02
1216.72
617.673
1225.93
1773.94
2303.74
2807.21
3276.63
3704.8
4085.15
4411.84
4679.88
4885.19
5024.66
5096.19
5098.77
5032.42
4898.2
4698.16
4435.27
4113.26
3736.52
3309.9
2838.4
2327.14
1781.31
1207.16
614.462
1225.93
1773.94
2303.74
2807.21
3276.63
3704.8
4085.15
4411.84
4679.88
4885.19
5024.66
5096.2
5098.77
5032.42
4898.2
4698.16
4435.27
4113.26
3736.52
3309.9
2838.4
2327.14
1781.31
1207.16
614.462
1237.04
1791.02
2326.58
2835.5
3309.98
3742.73
4127.13
4457.27
4728.11
4935.51
5076.34
5148.5
5150.94
5083.71
4947.87
4745.53
4479.67
4154.09
3773.22
3341.98
2865.42
2348.69
1797.02
1216.72
617.673
)
;

boundaryField
{
    outletCentralUnloaded
    {
        type            zeroGradient;
    }
    inletCentralUnloaded
    {
        type            zeroGradient;
    }
    outletFuelElement
    {
        type            zeroGradient;
    }
    inletFuelElement
    {
        type            zeroGradient;
    }
    defaultFaces
    {
        type            zeroGradient;
    }
    baffle_master
    {
        type            zeroGradient;
    }
    baffle_slave
    {
        type            zeroGradient;
    }
}


// ************************************************************************* //
