/*--------------------------------*- C++ -*----------------------------------*\
| =========                 |                                                 |
| \\      /  F ield         | OpenFOAM: The Open Source CFD Toolbox           |
|  \\    /   O peration     | Version:  2212                                  |
|   \\  /    A nd           | Website:  www.openfoam.com                      |
|    \\/     M anipulation  |                                                 |
\*---------------------------------------------------------------------------*/
FoamFile
{
    version     2.0;
    format      ascii;
    arch        "LSB;label=32;scalar=64";
    class       volScalarField;
    location    "16/fluidRegion";
    object      Tcav.nuclearFuelPin;
}
// * * * * * * * * * * * * * * * * * * * * * * * * * * * * * * * * * * * * * //

dimensions      [0 0 0 1 0 0 0];

internalField   nonuniform List<scalar> 
350
(
0
0
0
0
0
0
0
0
0
0
0
0
0
0
0
0
0
0
0
0
0
0
0
0
0
0
0
0
0
0
0
0
0
0
0
0
0
0
0
0
0
0
0
0
0
0
0
0
0
0
1323.94
1365.25
1396.17
1416.66
1426.79
1426.74
1416.83
1397.5
1369.29
1332.88
1289.04
1238.67
1182.73
1122.27
1058.31
991.855
923.691
854.287
783.554
710.553
633.118
547.544
448.888
333.15
202.912
1341.41
1383.43
1414.89
1435.74
1446.05
1446.01
1435.95
1416.28
1387.59
1350.54
1305.92
1254.64
1197.69
1136.12
1071
1003.35
934.001
863.443
791.612
717.574
639.137
552.528
452.698
335.553
203.728
1321.07
1362.27
1393.13
1413.57
1423.68
1423.64
1413.77
1394.5
1366.38
1330.08
1286.38
1236.16
1180.39
1120.1
1056.33
990.065
922.09
852.87
782.31
709.473
632.198
546.788
448.315
332.791
202.788
1337.49
1379.33
1410.66
1431.42
1441.68
1441.63
1431.59
1412
1383.41
1346.49
1302.05
1250.98
1194.25
1132.93
1068.08
1000.7
931.623
861.331
789.752
715.953
637.746
551.376
451.816
334.997
203.539
1337.49
1379.33
1410.66
1431.42
1441.68
1441.63
1431.59
1412
1383.41
1346.49
1302.05
1250.98
1194.25
1132.93
1068.08
1000.7
931.623
861.331
789.752
715.953
637.746
551.376
451.816
334.996
203.539
1321.07
1362.28
1393.13
1413.57
1423.68
1423.64
1413.77
1394.5
1366.38
1330.08
1286.38
1236.16
1180.39
1120.1
1056.33
990.065
922.091
852.87
782.31
709.474
632.198
546.789
448.316
332.791
202.788
1341.41
1383.43
1414.89
1435.74
1446.05
1446.01
1435.95
1416.28
1387.59
1350.54
1305.92
1254.64
1197.69
1136.12
1071
1003.35
934.001
863.443
791.612
717.574
639.137
552.528
452.698
335.553
203.728
1323.94
1365.25
1396.17
1416.66
1426.79
1426.74
1416.83
1397.5
1369.29
1332.88
1289.04
1238.67
1182.73
1122.27
1058.31
991.855
923.691
854.287
783.554
710.553
633.118
547.544
448.888
333.15
202.912
1337.49
1379.33
1410.66
1431.42
1441.68
1441.63
1431.59
1412
1383.4
1346.49
1302.05
1250.98
1194.25
1132.93
1068.08
1000.7
931.623
861.331
789.752
715.953
637.746
551.376
451.816
334.997
203.539
1321.07
1362.27
1393.13
1413.57
1423.68
1423.64
1413.77
1394.5
1366.38
1330.08
1286.38
1236.16
1180.39
1120.1
1056.33
990.064
922.09
852.869
782.31
709.473
632.198
546.788
448.315
332.791
202.788
1321.07
1362.28
1393.13
1413.57
1423.68
1423.64
1413.77
1394.5
1366.38
1330.08
1286.38
1236.16
1180.39
1120.1
1056.33
990.065
922.091
852.87
782.31
709.474
632.198
546.789
448.316
332.791
202.788
1337.49
1379.33
1410.66
1431.42
1441.68
1441.63
1431.59
1412
1383.4
1346.49
1302.05
1250.98
1194.25
1132.93
1068.08
1000.7
931.623
861.331
789.752
715.953
637.746
551.376
451.816
334.996
203.539
)
;

boundaryField
{
    outletCentralUnloaded
    {
        type            zeroGradient;
    }
    inletCentralUnloaded
    {
        type            zeroGradient;
    }
    outletFuelElement
    {
        type            zeroGradient;
    }
    inletFuelElement
    {
        type            zeroGradient;
    }
    defaultFaces
    {
        type            zeroGradient;
    }
    baffle_master
    {
        type            zeroGradient;
    }
    baffle_slave
    {
        type            zeroGradient;
    }
}


// ************************************************************************* //
