/*--------------------------------*- C++ -*----------------------------------*\
| =========                 |                                                 |
| \\      /  F ield         | OpenFOAM: The Open Source CFD Toolbox           |
|  \\    /   O peration     | Version:  2212                                  |
|   \\  /    A nd           | Website:  www.openfoam.com                      |
|    \\/     M anipulation  |                                                 |
\*---------------------------------------------------------------------------*/
FoamFile
{
    version     2.0;
    format      ascii;
    arch        "LSB;label=32;scalar=64";
    class       volScalarField;
    location    "16/fluidRegion";
    object      Tco.nuclearFuelPin;
}
// * * * * * * * * * * * * * * * * * * * * * * * * * * * * * * * * * * * * * //

dimensions      [0 0 0 1 0 0 0];

internalField   nonuniform List<scalar> 
350
(
0
0
0
0
0
0
0
0
0
0
0
0
0
0
0
0
0
0
0
0
0
0
0
0
0
0
0
0
0
0
0
0
0
0
0
0
0
0
0
0
0
0
0
0
0
0
0
0
0
0
1326.07
1359.35
1382.37
1395.21
1398.06
1391.23
1375.13
1350.31
1317.41
1277.16
1230.41
1178.1
1121.22
1060.83
997.978
933.619
868.523
803.105
737.205
669.795
598.592
519.751
428.159
319.648
196.686
1343.65
1377.54
1401.01
1414.12
1417.07
1410.17
1393.84
1368.63
1335.18
1294.25
1246.69
1193.44
1135.53
1074.04
1010.03
944.497
878.244
811.714
744.769
676.383
604.248
524.448
431.763
321.927
197.46
1323.19
1356.38
1379.34
1392.15
1394.99
1388.18
1372.14
1347.39
1314.58
1274.45
1227.84
1175.68
1118.98
1058.77
996.099
931.928
867.017
801.775
736.041
668.784
597.73
519.041
427.62
319.309
196.568
1339.7
1373.44
1396.8
1409.84
1412.76
1405.86
1389.58
1364.45
1331.12
1290.34
1242.96
1189.92
1132.24
1071
1007.25
941.989
876.002
809.727
743.023
674.861
602.941
523.362
430.929
321.399
197.281
1339.7
1373.44
1396.8
1409.84
1412.76
1405.86
1389.58
1364.45
1331.12
1290.34
1242.96
1189.92
1132.24
1071
1007.25
941.989
876.002
809.727
743.023
674.861
602.941
523.362
430.929
321.399
197.281
1323.19
1356.38
1379.34
1392.15
1394.99
1388.18
1372.14
1347.39
1314.58
1274.45
1227.84
1175.68
1118.98
1058.77
996.099
931.928
867.017
801.776
736.041
668.785
597.731
519.041
427.62
319.309
196.568
1343.65
1377.54
1401.01
1414.12
1417.07
1410.17
1393.84
1368.63
1335.18
1294.25
1246.69
1193.44
1135.53
1074.04
1010.03
944.497
878.244
811.714
744.769
676.383
604.248
524.448
431.763
321.927
197.46
1326.07
1359.35
1382.37
1395.21
1398.06
1391.23
1375.13
1350.31
1317.41
1277.16
1230.41
1178.1
1121.22
1060.83
997.978
933.619
868.523
803.105
737.205
669.795
598.592
519.751
428.159
319.648
196.686
1339.7
1373.44
1396.8
1409.84
1412.76
1405.86
1389.58
1364.45
1331.12
1290.34
1242.96
1189.92
1132.24
1071
1007.25
941.989
876.002
809.727
743.023
674.861
602.941
523.362
430.929
321.399
197.281
1323.19
1356.38
1379.34
1392.15
1394.99
1388.18
1372.14
1347.39
1314.58
1274.45
1227.84
1175.68
1118.98
1058.77
996.099
931.928
867.017
801.775
736.041
668.784
597.73
519.041
427.62
319.309
196.568
1323.19
1356.38
1379.34
1392.15
1394.99
1388.18
1372.14
1347.39
1314.58
1274.45
1227.84
1175.68
1118.98
1058.77
996.099
931.928
867.017
801.775
736.041
668.785
597.731
519.041
427.62
319.309
196.568
1339.7
1373.44
1396.8
1409.84
1412.76
1405.86
1389.58
1364.45
1331.12
1290.34
1242.96
1189.92
1132.24
1071
1007.25
941.989
876.002
809.727
743.023
674.861
602.941
523.362
430.929
321.399
197.281
)
;

boundaryField
{
    outletCentralUnloaded
    {
        type            zeroGradient;
    }
    inletCentralUnloaded
    {
        type            zeroGradient;
    }
    outletFuelElement
    {
        type            zeroGradient;
    }
    inletFuelElement
    {
        type            zeroGradient;
    }
    defaultFaces
    {
        type            zeroGradient;
    }
    baffle_master
    {
        type            zeroGradient;
    }
    baffle_slave
    {
        type            zeroGradient;
    }
}


// ************************************************************************* //
