/*--------------------------------*- C++ -*----------------------------------*\
| =========                 |                                                 |
| \\      /  F ield         | OpenFOAM: The Open Source CFD Toolbox           |
|  \\    /   O peration     | Version:  2212                                  |
|   \\  /    A nd           | Website:  www.openfoam.com                      |
|    \\/     M anipulation  |                                                 |
\*---------------------------------------------------------------------------*/
FoamFile
{
    version     2.0;
    format      ascii;
    arch        "LSB;label=32;scalar=64";
    class       volScalarField;
    location    "16/fluidRegion";
    object      Tfi.nuclearFuelPin;
}
// * * * * * * * * * * * * * * * * * * * * * * * * * * * * * * * * * * * * * //

dimensions      [0 0 0 1 0 0 0];

internalField   nonuniform List<scalar> 
350
(
0
0
0
0
0
0
0
0
0
0
0
0
0
0
0
0
0
0
0
0
0
0
0
0
0
0
0
0
0
0
0
0
0
0
0
0
0
0
0
0
0
0
0
0
0
0
0
0
0
0
1179.26
1963.55
2726.35
3455.74
4140.32
4769.41
5333.19
5822.87
6230.8
6550.65
6777.43
6907.63
6939.25
6871.81
6706.35
6445.43
6093.02
5654.42
5136.14
4545.81
3891.86
3183.57
2430.84
1644.63
838.014
1188.08
1981.46
2753.08
3490.9
4183.38
4819.72
5389.98
5885.27
6297.87
6621.35
6850.68
6982.33
7014.24
6945.96
6778.54
6514.56
6158.05
5714.38
5190.12
4593.01
3931.56
3215.16
2453.8
1658.57
842.686
1177.83
1960.68
2722.08
3450.12
4133.45
4761.39
5324.14
5812.92
6220.12
6539.39
6765.76
6895.74
6927.31
6860
6694.86
6434.43
6082.67
5644.88
5127.55
4538.3
3885.55
3178.55
2427.19
1642.42
837.27
1186.07
1977.36
2746.95
3482.82
4173.48
4808.15
5376.92
5870.91
6282.44
6605.08
6833.82
6965.13
6996.98
6928.89
6761.92
6498.65
6143.08
5700.58
5177.69
4582.15
3922.42
3207.88
2448.51
1655.36
841.61
1186.07
1977.36
2746.95
3482.82
4173.48
4808.15
5376.92
5870.91
6282.44
6605.08
6833.82
6965.13
6996.98
6928.89
6761.92
6498.65
6143.08
5700.58
5177.69
4582.15
3922.42
3207.89
2448.51
1655.36
841.61
1177.83
1960.68
2722.08
3450.12
4133.45
4761.39
5324.14
5812.92
6220.12
6539.39
6765.76
6895.74
6927.31
6860
6694.86
6434.43
6082.67
5644.88
5127.55
4538.3
3885.55
3178.55
2427.19
1642.42
837.271
1188.08
1981.46
2753.08
3490.9
4183.38
4819.72
5389.98
5885.27
6297.87
6621.35
6850.68
6982.33
7014.24
6945.96
6778.54
6514.56
6158.05
5714.38
5190.12
4593.01
3931.56
3215.16
2453.8
1658.57
842.686
1179.26
1963.55
2726.36
3455.74
4140.32
4769.41
5333.19
5822.87
6230.8
6550.65
6777.43
6907.63
6939.25
6871.81
6706.35
6445.43
6093.02
5654.42
5136.14
4545.81
3891.86
3183.57
2430.84
1644.63
838.014
1186.07
1977.36
2746.95
3482.82
4173.48
4808.15
5376.92
5870.91
6282.44
6605.08
6833.82
6965.13
6996.98
6928.89
6761.92
6498.65
6143.08
5700.57
5177.69
4582.15
3922.42
3207.89
2448.51
1655.36
841.61
1177.83
1960.68
2722.08
3450.12
4133.45
4761.39
5324.14
5812.92
6220.12
6539.38
6765.76
6895.74
6927.31
6860
6694.86
6434.43
6082.67
5644.88
5127.55
4538.3
3885.55
3178.55
2427.19
1642.42
837.27
1177.83
1960.68
2722.08
3450.12
4133.45
4761.39
5324.14
5812.92
6220.12
6539.38
6765.76
6895.74
6927.31
6860
6694.86
6434.43
6082.67
5644.88
5127.55
4538.3
3885.55
3178.55
2427.19
1642.42
837.27
1186.07
1977.36
2746.95
3482.82
4173.48
4808.15
5376.92
5870.91
6282.44
6605.08
6833.82
6965.13
6996.98
6928.89
6761.92
6498.65
6143.08
5700.57
5177.69
4582.15
3922.42
3207.88
2448.51
1655.36
841.61
)
;

boundaryField
{
    outletCentralUnloaded
    {
        type            zeroGradient;
    }
    inletCentralUnloaded
    {
        type            zeroGradient;
    }
    outletFuelElement
    {
        type            zeroGradient;
    }
    inletFuelElement
    {
        type            zeroGradient;
    }
    defaultFaces
    {
        type            zeroGradient;
    }
    baffle_master
    {
        type            zeroGradient;
    }
    baffle_slave
    {
        type            zeroGradient;
    }
}


// ************************************************************************* //
