/*--------------------------------*- C++ -*----------------------------------*\
| =========                 |                                                 |
| \\      /  F ield         | OpenFOAM: The Open Source CFD Toolbox           |
|  \\    /   O peration     | Version:  2212                                  |
|   \\  /    A nd           | Website:  www.openfoam.com                      |
|    \\/     M anipulation  |                                                 |
\*---------------------------------------------------------------------------*/
FoamFile
{
    version     2.0;
    format      ascii;
    arch        "LSB;label=32;scalar=64";
    class       volScalarField;
    location    "16/fluidRegion";
    object      Tfo.nuclearFuelPin;
}
// * * * * * * * * * * * * * * * * * * * * * * * * * * * * * * * * * * * * * //

dimensions      [0 0 0 1 0 0 0];

internalField   nonuniform List<scalar> 
350
(
0
0
0
0
0
0
0
0
0
0
0
0
0
0
0
0
0
0
0
0
0
0
0
0
0
0
0
0
0
0
0
0
0
0
0
0
0
0
0
0
0
0
0
0
0
0
0
0
0
0
1278.82
1569.4
1845.61
2103.43
2339.12
2549.25
2730.75
2881
2997.84
3079.61
3125.2
3134.06
3106.19
3042.14
2942.98
2810.22
2645.73
2451.57
2229.83
1982.4
1710.61
1415.05
1095.77
753.817
395.332
1293.68
1587.79
1867.32
2128.21
2366.67
2579.23
2762.79
2914.69
3032.76
3115.31
3161.22
3169.94
3141.47
3076.39
2975.77
2841.18
2674.51
2477.87
2253.38
2002.98
1728
1429.02
1106.04
760.112
397.449
1276.38
1566.41
1842.1
2099.44
2334.7
2544.45
2725.63
2875.63
2992.28
3073.93
3119.48
3128.37
3100.6
3036.72
2937.79
2805.32
2641.18
2447.41
2226.11
1979.15
1707.87
1412.86
1094.16
752.832
394.999
1290.33
1583.62
1862.38
2122.56
2360.38
2572.37
2755.45
2906.97
3024.74
3107.11
3152.94
3161.69
3133.36
3068.51
2968.22
2834.05
2667.88
2471.81
2247.96
1998.24
1723.99
1425.8
1103.67
758.66
396.961
1290.33
1583.62
1862.38
2122.56
2360.38
2572.37
2755.45
2906.97
3024.74
3107.11
3152.94
3161.69
3133.35
3068.51
2968.22
2834.05
2667.88
2471.81
2247.96
1998.24
1723.99
1425.8
1103.67
758.66
396.961
1276.38
1566.41
1842.1
2099.44
2334.7
2544.45
2725.63
2875.63
2992.28
3073.93
3119.48
3128.37
3100.6
3036.72
2937.79
2805.32
2641.18
2447.41
2226.11
1979.15
1707.87
1412.86
1094.16
752.832
394.999
1293.68
1587.79
1867.32
2128.21
2366.67
2579.23
2762.79
2914.69
3032.76
3115.31
3161.22
3169.94
3141.47
3076.39
2975.77
2841.18
2674.51
2477.86
2253.38
2002.98
1728
1429.02
1106.04
760.112
397.449
1278.82
1569.4
1845.61
2103.43
2339.12
2549.25
2730.75
2881
2997.84
3079.61
3125.2
3134.06
3106.19
3042.14
2942.98
2810.22
2645.73
2451.57
2229.83
1982.4
1710.61
1415.05
1095.77
753.817
395.332
1290.33
1583.62
1862.38
2122.56
2360.38
2572.37
2755.45
2906.97
3024.74
3107.11
3152.94
3161.69
3133.35
3068.51
2968.22
2834.05
2667.88
2471.81
2247.96
1998.24
1723.99
1425.8
1103.67
758.66
396.961
1276.38
1566.41
1842.1
2099.44
2334.7
2544.45
2725.63
2875.62
2992.28
3073.93
3119.48
3128.37
3100.6
3036.72
2937.79
2805.32
2641.18
2447.41
2226.11
1979.15
1707.87
1412.86
1094.16
752.832
394.999
1276.38
1566.41
1842.1
2099.44
2334.7
2544.45
2725.63
2875.63
2992.28
3073.93
3119.48
3128.37
3100.6
3036.72
2937.79
2805.32
2641.18
2447.41
2226.11
1979.15
1707.87
1412.86
1094.16
752.832
394.999
1290.33
1583.62
1862.38
2122.56
2360.38
2572.37
2755.45
2906.97
3024.74
3107.11
3152.94
3161.69
3133.35
3068.51
2968.22
2834.05
2667.88
2471.81
2247.96
1998.24
1723.99
1425.8
1103.67
758.66
396.961
)
;

boundaryField
{
    outletCentralUnloaded
    {
        type            zeroGradient;
    }
    inletCentralUnloaded
    {
        type            zeroGradient;
    }
    outletFuelElement
    {
        type            zeroGradient;
    }
    inletFuelElement
    {
        type            zeroGradient;
    }
    defaultFaces
    {
        type            zeroGradient;
    }
    baffle_master
    {
        type            zeroGradient;
    }
    baffle_slave
    {
        type            zeroGradient;
    }
}


// ************************************************************************* //
