/*--------------------------------*- C++ -*----------------------------------*\
| =========                 |                                                 |
| \\      /  F ield         | OpenFOAM: The Open Source CFD Toolbox           |
|  \\    /   O peration     | Version:  2212                                  |
|   \\  /    A nd           | Website:  www.openfoam.com                      |
|    \\/     M anipulation  |                                                 |
\*---------------------------------------------------------------------------*/
FoamFile
{
    version     2.0;
    format      ascii;
    arch        "LSB;label=32;scalar=64";
    class       surfaceScalarField;
    location    "23/fluidRegion";
    object      alphaPhi;
}
// * * * * * * * * * * * * * * * * * * * * * * * * * * * * * * * * * * * * * //

dimensions      [0 3 -1 0 0 0 0];

oriented        oriented;

internalField   nonuniform List<scalar> 
661
(
-0.000538737
-3.6336e-16
-0.000538692
-2.29579e-16
-0.000538648
-5.30741e-16
-0.000538603
-6.47559e-17
-0.000538559
-4.91369e-16
-0.000538515
-4.03761e-16
-0.00053847
-3.11337e-16
-0.000538426
-1.26238e-16
-0.000538382
-2.07566e-16
-0.000538337
-1.3831e-16
-0.000538293
-2.71725e-16
-0.000538249
-4.03392e-17
-0.000538204
5.33878e-17
-0.00053816
-8.1862e-17
-0.000538116
-1.13617e-16
-0.000538071
-1.89445e-16
-0.000538027
-2.24363e-16
-0.000537983
-1.05541e-16
-0.000537938
-4.15778e-17
-0.000537894
-7.36573e-17
-0.00053785
-3.57934e-16
-0.000537806
-6.34258e-17
-0.000537761
-1.1147e-16
-0.000537718
1.96684e-16
2.13209e-15
-0.000538737
-0.000538692
-0.000538648
-0.000538603
-0.000538559
-0.000538515
-0.00053847
-0.000538426
-0.000538382
-0.000538337
-0.000538293
-0.000538249
-0.000538204
-0.00053816
-0.000538116
-0.000538071
-0.000538027
-0.000537983
-0.000537938
-0.000537894
-0.00053785
-0.000537806
-0.000537761
-0.000537718
-0.0183256
1.18199e-06
-0.0180066
6.8029e-07
-0.0175723
7.59017e-07
-0.0170309
6.81102e-07
-0.0163912
6.14248e-07
-0.0156625
5.50048e-07
-0.0148546
4.87813e-07
-0.0139775
4.23551e-07
-0.0130419
3.51692e-07
-0.0120586
2.63506e-07
-0.0110397
1.51048e-07
-0.00999803
5.82418e-09
-0.00894759
-1.64222e-07
-0.00790372
-3.49204e-07
-0.00688244
-5.25258e-07
-0.00589972
-6.6698e-07
-0.00497046
-7.57452e-07
-0.00410769
-7.95879e-07
-0.00332234
-7.95746e-07
-0.00262388
-7.76108e-07
-0.00202097
-7.52017e-07
-0.00152265
-7.24119e-07
-0.00113851
-6.80904e-07
-0.000877544
-5.84449e-07
-5.3546e-07
-0.0184386
-6.03577e-08
-5.98522e-08
-0.0181194
-1.95122e-07
-1.98916e-07
-0.0176838
-1.80441e-07
-1.80774e-07
-0.0171403
-1.56991e-07
-1.54962e-07
-0.0164976
-1.3661e-07
-1.32543e-07
-0.0157652
-1.17307e-07
-1.1271e-07
-0.0149529
-9.86024e-08
-9.37576e-08
-0.0140708
-7.98707e-08
-7.5298e-08
-0.0131294
-5.91093e-08
-5.47615e-08
-0.0121399
-3.43007e-08
-3.0454e-08
-0.0111142
-1.78824e-09
1.58512e-09
-0.0100652
3.77222e-08
4.04876e-08
-0.00900708
8.83883e-08
9.05703e-08
-0.00795529
1.44107e-07
1.45558e-07
-0.00692606
1.98574e-07
1.99307e-07
-0.00593559
2.43468e-07
2.43482e-07
-0.004999
2.7306e-07
2.72408e-07
-0.00412951
2.86354e-07
2.85137e-07
-0.00333821
2.87328e-07
2.85615e-07
-0.00263464
2.81703e-07
2.79652e-07
-0.00202756
2.73896e-07
2.71728e-07
-0.00152606
2.62709e-07
2.60517e-07
-0.00113979
2.41396e-07
2.39217e-07
-0.000877721
1.88636e-07
1.86484e-07
1.4317e-07
1.41072e-07
-0.0183071
6.52876e-07
-0.0179883
7.05533e-07
-0.0175543
6.80283e-07
-0.0170132
6.03491e-07
-0.016374
5.33795e-07
-0.015646
4.68303e-07
-0.0148388
4.0449e-07
-0.0139626
3.38633e-07
-0.0130279
2.63563e-07
-0.0120457
1.70735e-07
-0.0110279
5.08497e-08
-0.00998739
-1.01018e-07
-0.00893819
-2.8092e-07
-0.00789557
-4.74456e-07
-0.00687554
-6.5643e-07
-0.00589404
-7.99794e-07
-0.00496591
-8.87839e-07
-0.00410418
-9.20806e-07
-0.00331974
-9.14024e-07
-0.00262205
-8.87492e-07
-0.00201977
-8.55573e-07
-0.00152193
-8.17069e-07
-0.00113811
-7.50416e-07
-0.000877348
-6.13617e-07
-4.90239e-07
-0.0184135
2.37949e-09
-0.0180942
-3.17239e-10
-0.0176589
1.62578e-10
-0.0171157
8.47463e-11
-0.0164737
1.33902e-10
-0.0157421
1.46515e-10
-0.0149308
1.11742e-10
-0.0140497
1.46492e-10
-0.0131096
1.53312e-10
-0.0121215
1.27956e-10
-0.0110973
1.62198e-10
-0.0100499
2.1744e-10
-0.00899355
2.54983e-10
-0.00794354
2.92744e-10
-0.00691612
2.68922e-10
-0.00592741
2.22098e-10
-0.00499248
1.90597e-10
-0.00412453
2.37683e-10
-0.00333459
2.32917e-10
-0.00263219
2.40997e-10
-0.00202607
2.62448e-10
-0.0015253
1.58203e-10
-0.00113952
1.77205e-11
-0.000877704
-1.12719e-10
-4.06716e-10
-0.0184135
-6.47965e-07
-0.0180943
-7.06277e-07
-0.0176589
-6.7979e-07
-0.0171158
-6.03146e-07
-0.0164737
-5.33396e-07
-0.0157421
-4.67927e-07
-0.0149308
-4.04161e-07
-0.0140498
-3.38245e-07
-0.0131096
-2.6317e-07
-0.0121215
-1.70362e-07
-0.0110973
-5.0416e-08
-0.01005
1.01549e-07
-0.00899356
2.8149e-07
-0.00794355
4.75072e-07
-0.00691612
6.56979e-07
-0.00592741
8.00256e-07
-0.00499249
8.88246e-07
-0.00412454
9.21276e-07
-0.00333459
9.14474e-07
-0.0026322
8.87949e-07
-0.00202607
8.56051e-07
-0.0015253
8.17388e-07
-0.00113952
7.5047e-07
-0.000877705
6.13404e-07
4.8944e-07
-0.0183071
5.59586e-08
-0.0179883
1.93929e-07
-0.0175543
1.80011e-07
-0.0170133
1.57474e-07
-0.0163741
1.3814e-07
-0.015646
1.18742e-07
-0.0148389
1.00357e-07
-0.0139627
8.12397e-08
-0.0130279
6.05874e-08
-0.0120457
3.52957e-08
-0.0110279
2.79557e-09
-0.00998741
-3.71424e-08
-0.0089382
-8.79105e-08
-0.00789558
-1.44017e-07
-0.00687555
-1.98692e-07
-0.00589404
-2.43975e-07
-0.00496591
-2.73768e-07
-0.00410418
-2.87283e-07
-0.00331974
-2.88412e-07
-0.00262205
-2.82943e-07
-0.00201977
-2.75159e-07
-0.00152193
-2.63959e-07
-0.00113811
-2.42511e-07
-0.000877347
-1.89452e-07
-1.43468e-07
-0.0184386
-1.18424e-06
-6.24617e-08
-0.0181194
-6.82727e-07
-1.97785e-07
-0.0176838
-7.58643e-07
-1.81183e-07
-0.0171403
-6.79337e-07
-1.55625e-07
-0.0164976
-6.10931e-07
-1.33625e-07
-0.0157652
-5.46992e-07
-1.13745e-07
-0.0149529
-4.84349e-07
-9.48576e-08
-0.0140708
-4.20723e-07
-7.63064e-08
-0.0131294
-3.4876e-07
-5.5776e-08
-0.0121399
-2.61288e-07
-3.13155e-08
-0.0111142
-1.48856e-07
7.29723e-10
-0.0100652
-4.27905e-09
3.97021e-08
-0.00900708
1.65547e-07
8.98585e-08
-0.00795529
3.49897e-07
1.44966e-07
-0.00692606
5.25557e-07
1.98866e-07
-0.00593559
6.66657e-07
2.43236e-07
-0.004999
7.56753e-07
2.72312e-07
-0.00412951
7.94798e-07
2.85109e-07
-0.00333821
7.94393e-07
2.85683e-07
-0.00263464
7.74531e-07
2.7978e-07
-0.00202756
7.50384e-07
2.71867e-07
-0.00152606
7.22482e-07
2.60739e-07
-0.00113979
6.79355e-07
2.39568e-07
-0.000877721
5.83103e-07
1.86928e-07
5.34361e-07
1.41833e-07
-0.0183256
-0.0180066
-0.0175723
-0.0170309
-0.0163912
-0.0156625
-0.0148546
-0.0139775
-0.0130419
-0.0120586
-0.0110397
-0.00999803
-0.00894759
-0.00790372
-0.00688244
-0.00589972
-0.00497046
-0.00410769
-0.00332234
-0.00262388
-0.00202097
-0.00152266
-0.00113851
-0.000877544
-0.0184135
-6.53072e-07
2.48928e-09
-0.0180942
-7.05394e-07
-5.93185e-10
-0.0176589
-6.79877e-07
2.12723e-10
-0.0171157
-6.0314e-07
5.53813e-11
-0.0164737
-5.33295e-07
1.00249e-10
-0.0157421
-4.68066e-07
-5.87028e-12
-0.0149308
-4.042e-07
9.5668e-11
-0.0140497
-3.38566e-07
5.92117e-11
-0.0131096
-2.63411e-07
1.32382e-10
-0.0121215
-1.70824e-07
1.95403e-10
-0.0110973
-5.08089e-08
2.34842e-10
-0.0100499
1.00929e-07
2.66632e-10
-0.00899355
2.80936e-07
2.87525e-10
-0.00794354
4.74399e-07
2.68923e-10
-0.00691612
6.56358e-07
3.16756e-10
-0.00592741
7.99568e-07
3.50615e-10
-0.00499248
8.876e-07
3.62549e-10
-0.00412453
9.20569e-07
3.05856e-10
-0.00333459
9.13798e-07
2.95776e-10
-0.00263219
8.87264e-07
2.85103e-10
-0.00202607
8.55374e-07
2.478e-10
-0.0015253
8.16804e-07
2.54344e-10
-0.00113952
7.50131e-07
1.99977e-10
-0.000877704
6.13418e-07
3.95159e-11
4.90135e-07
-3.03557e-10
-0.0183071
-0.0179883
-0.0175543
-0.0170132
-0.016374
-0.015646
-0.0148388
-0.0139626
-0.0130279
-0.0120457
-0.0110279
-0.00998739
-0.00893819
-0.00789557
-0.00687554
-0.00589404
-0.00496591
-0.00410418
-0.00331974
-0.00262205
-0.00201977
-0.00152193
-0.00113811
-0.000877348
-0.0183071
6.45014e-07
-0.0179883
7.029e-07
-0.0175543
6.79704e-07
-0.0170133
6.04992e-07
-0.0163741
5.37502e-07
-0.015646
4.71842e-07
-0.0148389
4.08687e-07
-0.0139627
3.41979e-07
-0.0130279
2.67088e-07
-0.0120457
1.73293e-07
-0.0110279
5.33118e-08
-0.00998741
-9.95137e-08
-0.0089382
-2.79711e-07
-0.00789558
-4.74184e-07
-0.00687555
-6.56598e-07
-0.00589404
-8.00762e-07
-0.00496591
-8.8925e-07
-0.00410418
-9.22808e-07
-0.00331974
-9.16379e-07
-0.00262205
-8.90187e-07
-0.00201977
-8.58348e-07
-0.00152193
-8.19758e-07
-0.00113811
-7.52774e-07
-0.000877347
-6.1545e-07
-4.91076e-07
-0.0184135
-0.0180943
-0.0176589
-0.0171158
-0.0164737
-0.0157421
-0.0149308
-0.0140498
-0.0131096
-0.0121215
-0.0110973
-0.01005
-0.00899356
-0.00794355
-0.00691612
-0.00592741
-0.00499249
-0.00412454
-0.00333459
-0.00263219
-0.00202607
-0.0015253
-0.00113952
-0.000877705
)
;

boundaryField
{
    outletCentralUnloaded
    {
        type            calculated;
        value           nonuniform List<scalar> 2(0.000538781 0.000538781);
    }
    inletCentralUnloaded
    {
        type            calculated;
        value           uniform -0.000540134;
    }
    outletFuelElement
    {
        type            calculated;
        value           nonuniform List<scalar> 
12
(
0.0185804
0.0186955
0.0185623
0.0186698
0.0186698
0.0185623
0.0186955
0.0185804
0.0186698
0.0185623
0.0185623
0.0186698
)
;
    }
    inletFuelElement
    {
        type            calculated;
        value           nonuniform List<scalar> 
12
(
-0.000722059
-0.00072206
-0.000722059
-0.000722059
-0.00072206
-0.000722059
-0.00072206
-0.000722059
-0.000722059
-0.000722059
-0.000722059
-0.00072206
)
;
    }
    defaultFaces
    {
        type            calculated;
        value           nonuniform List<scalar> 
450
(
8.20791e-24
-3.31469e-23
0
1.95303e-23
-1.27612e-23
0
2.14559e-23
-2.86333e-24
0
-5.31002e-23
-2.37989e-23
0
-2.47545e-23
-3.32408e-23
0
-3.79619e-23
-2.24823e-23
0
-3.6383e-23
-2.24854e-24
0
-2.75899e-23
-1.12082e-23
0
-1.87281e-23
-1.15656e-23
0
-2.03135e-23
-1.24663e-23
0
-1.05984e-23
-3.95308e-24
0
-2.83635e-25
-2.07622e-25
0
9.8682e-24
3.10582e-24
0
2.3477e-23
1.32334e-24
0
3.43796e-23
1.06289e-23
0
4.22368e-23
9.13526e-24
0
5.0043e-23
9.57887e-25
0
4.57733e-23
2.27681e-23
0
4.90455e-23
-5.43575e-23
0
-1.8518e-23
-9.32811e-24
0
-2.11279e-23
-1.81928e-23
0
3.47012e-23
-1.86288e-23
0
-2.80545e-23
-7.62017e-24
0
-2.06517e-23
-2.24432e-23
0
-1.23706e-23
-1.31533e-23
0
2.20624e-23
0
1.60454e-23
0
8.0227e-24
0
2.40681e-23
0
-1.60454e-23
0
8.0227e-24
0
1.60454e-23
0
1.2034e-23
0
-6.01702e-24
0
4.01135e-24
0
1.88032e-24
0
-4.01135e-24
0
-8.0227e-24
0
-1.60454e-23
0
-2.40681e-23
0
-1.60454e-23
0
3.20908e-23
0
-4.01135e-23
0
8.0227e-24
0
-1.60454e-23
0
-4.81362e-23
0
4.01135e-23
0
0
0
-2.40681e-23
0
-2.00567e-23
0
-8.0227e-24
1.60454e-23
0
-8.0227e-24
1.60454e-23
-8.0227e-24
-8.0227e-24
0
4.01135e-24
0
-2.00567e-24
2.00567e-24
4.01135e-24
0
1.60454e-23
1.60454e-23
-3.20908e-23
0
-1.60454e-23
-1.60454e-23
0
-3.20908e-23
-1.60454e-23
0
-8.0227e-24
0
0
0
0
0
0
0
0
0
0
0
0
0
0
0
0
0
0
0
0
0
0
0
0
0
-1.60454e-23
1.60454e-23
8.0227e-24
1.60454e-23
2.40681e-23
4.01135e-23
-1.60454e-23
-8.0227e-24
1.60454e-23
-1.2034e-23
-1.2034e-23
-1.2034e-23
-1.2034e-23
-1.2034e-23
-8.0227e-24
-8.0227e-24
1.60454e-23
-6.01702e-24
-5.01419e-24
-2.00567e-24
-1.3789e-24
-1.00284e-24
2.00567e-24
2.50709e-24
8.0227e-24
6.01702e-24
1.60454e-23
1.60454e-23
8.0227e-24
1.60454e-23
1.60454e-23
2.40681e-23
-1.60454e-23
4.01135e-23
1.60454e-23
3.20908e-23
-5.61589e-23
4.81362e-23
-4.01135e-23
-2.40681e-23
-8.0227e-24
-3.20908e-23
-3.20908e-23
4.81362e-23
-1.60454e-23
-3.20908e-23
1.60454e-23
-2.00567e-23
-2.40681e-23
-1.60454e-23
1.01423e-23
0
0
1.29935e-23
0
0
2.41346e-23
0
-6.41816e-23
-6.43994e-23
0
0
9.36711e-24
0
8.0227e-24
-5.95371e-23
0
0
-3.7013e-23
0
0
-4.1016e-23
0
8.0227e-24
-1.46558e-23
0
-1.60454e-23
-2.58514e-23
0
4.01135e-24
-1.2599e-23
0
2.00567e-24
-4.10348e-25
0
0
1.52679e-23
-0
-2.00567e-24
2.50895e-23
-0
0
4.52682e-23
-0
-1.60454e-23
5.76068e-23
-0
-2.40681e-23
2.60429e-23
-0
0
6.5018e-23
-0
0
4.70813e-23
-0
-1.60454e-23
-1.10602e-23
-0
0
-5.75712e-24
-0
1.60454e-23
2.65201e-23
-0
0
-2.50198e-23
-0
0
-1.41774e-23
-0
1.60454e-23
-1.47916e-23
-0
8.0227e-24
-1.60454e-23
-1.60454e-23
0
-1.60454e-23
0
-8.0227e-24
0
-8.0227e-24
0
-4.01135e-24
-2.00567e-24
2.00567e-24
4.01135e-24
8.0227e-24
8.0227e-24
1.60454e-23
-3.20908e-23
1.60454e-23
-3.20908e-23
0
1.60454e-23
-3.20908e-23
-3.20908e-23
-8.0227e-24
1.60454e-23
2.40681e-23
0
2.40681e-23
0
8.0227e-24
0
1.60454e-23
0
-1.2034e-23
0
2.00567e-23
0
1.60454e-23
0
1.2034e-23
0
2.00567e-24
0
5.01419e-24
0
8.14805e-25
0
-4.01135e-24
-0
-1.2034e-23
-0
-8.0227e-24
-0
-8.0227e-24
-0
-3.20908e-23
-0
4.01135e-23
-0
-3.20908e-23
-0
4.81362e-23
-0
-4.01135e-23
-0
-4.01135e-23
-0
2.40681e-23
-0
1.60454e-23
-0
-2.40681e-23
-0
-2.00567e-23
-0
-2.40681e-23
0
-2.40681e-23
2.40681e-23
-1.60454e-23
2.40681e-23
-8.0227e-24
-4.01135e-23
4.01135e-24
1.60454e-23
-8.0227e-24
-4.01135e-23
-1.2034e-23
-2.80794e-23
-8.0227e-24
-2.00567e-23
0
-1.2034e-23
-5.01419e-24
-1.2034e-23
-1.62961e-24
-3.00851e-24
2.00567e-24
9.52696e-24
8.0227e-24
2.40681e-23
8.0227e-24
3.61021e-23
1.60454e-23
4.81362e-23
1.60454e-23
6.41816e-23
0
4.01135e-23
1.60454e-23
8.0227e-23
0
5.61589e-23
0
-2.40681e-23
0
-2.40681e-23
8.0227e-24
4.81362e-23
1.60454e-23
-1.60454e-23
-8.0227e-24
-1.2034e-23
0
-2.00567e-23
-0
-0
-0
-0
-0
-0
-0
-0
-0
-0
-0
0
0
0
0
0
0
0
0
0
0
0
0
0
0
)
;
    }
    baffle_master
    {
        type            calculated;
        value           nonuniform List<scalar> 
150
(
1.54158e-33
0
5.5892e-33
1.75434e-33
0
2.7946e-33
-3.92543e-33
0
0
-1.5215e-34
0
0
-2.88758e-32
0
-2.23568e-32
-1.21454e-33
0
-5.5892e-33
-3.52182e-33
0
1.11784e-32
-1.28465e-33
0
0
1.42208e-33
0
0
1.30884e-33
0
2.7946e-33
2.32184e-33
0
0
1.22298e-34
0
0
-1.68248e-34
0
-6.9865e-34
7.94542e-34
0
0
-2.0528e-34
0
-1.3973e-33
-7.21635e-34
0
-2.7946e-33
2.46611e-32
0
1.3973e-32
-5.41626e-34
0
0
2.82013e-33
0
1.3973e-33
1.14574e-33
0
0
1.27939e-33
0
0
-3.50732e-33
0
-1.3973e-33
-2.62969e-34
0
0
-7.69746e-34
0
-5.5892e-33
-6.18202e-33
0
-4.47136e-32
0
-1.90566e-32
0
5.5892e-33
-1.22121e-32
0
0
-2.04758e-32
0
1.3973e-33
-2.7755e-33
0
0
8.76042e-33
0
1.11784e-32
-1.01243e-32
0
5.5892e-33
-1.43182e-32
0
5.5892e-33
-1.40549e-33
0
-5.5892e-33
-8.36265e-33
0
0
-4.92262e-33
0
5.5892e-33
-1.34668e-32
0
0
-1.15646e-33
0
-6.9865e-34
2.49099e-33
-0
0
-2.72228e-33
0
1.3973e-33
-3.98244e-33
0
5.5892e-33
-4.57534e-33
0
-5.5892e-33
-9.21345e-33
0
2.7946e-33
-3.76275e-33
0
-6.9865e-34
-6.82958e-34
0
0
1.59925e-33
0
0
1.60635e-32
0
-2.7946e-33
2.80074e-33
0
-2.7946e-33
-4.138e-33
0
0
-5.36405e-33
-0
-4.47136e-32
-7.07063e-32
-0
)
;
    }
    baffle_slave
    {
        type            calculated;
        value           nonuniform List<scalar> 
150
(
2.78914e-24
-0
0
-3.50993e-24
-0
0
4.68513e-24
-0
0
6.89451e-25
-0
-8.0227e-24
-3.07119e-23
-0
-3.20908e-23
-4.1367e-24
-0
0
-2.50709e-25
-0
0
5.76631e-24
-0
0
6.26773e-25
-0
-4.01135e-24
-2.25638e-24
-0
0
-1.25355e-25
-0
0
0
0
-2.00567e-24
6.26773e-25
0
0
-1.50426e-24
0
-8.0227e-24
-9.71499e-25
0
1.60454e-23
2.36901e-24
0
0
-3.9236e-23
0
-4.81362e-23
-6.70647e-24
0
0
-2.70766e-23
0
-3.20908e-23
-1.56693e-24
0
-1.60454e-23
4.19938e-24
0
-1.60454e-23
2.69513e-23
0
3.20908e-23
5.57828e-24
0
-1.60454e-23
0
0
0
0
0
-1.60454e-23
-2.69809e-24
2.88316e-23
0
8.57156e-24
2.63245e-23
0
1.16361e-23
1.64841e-23
0
-8.20212e-24
1.41651e-23
0
-7.15225e-24
-2.77034e-23
0
-8.27774e-24
1.10312e-23
0
-5.88083e-24
7.27057e-24
0
-6.18057e-24
1.40397e-23
0
8.8925e-24
8.52412e-24
0
-5.59882e-24
6.89451e-24
0
-2.58997e-25
6.51844e-24
0
1.77972e-24
2.00567e-24
0
3.64788e-24
-3.13387e-24
0
9.60127e-24
-9.58963e-24
0
9.56339e-24
-1.06081e-23
0
1.55033e-23
-1.56693e-23
0
-2.27417e-23
-2.38801e-23
0
5.42591e-24
-2.39427e-23
0
-2.75597e-23
4.38741e-24
0
4.0813e-24
9.90302e-24
0
-1.08332e-23
9.77766e-24
0
-2.54579e-23
3.05865e-23
0
-3.62622e-23
-1.54186e-23
0
7.85802e-24
6.39309e-24
0
3.74845e-24
1.147e-23
0
)
;
    }
}


// ************************************************************************* //
