/*--------------------------------*- C++ -*----------------------------------*\
| =========                 |                                                 |
| \\      /  F ield         | OpenFOAM: The Open Source CFD Toolbox           |
|  \\    /   O peration     | Version:  2212                                  |
|   \\  /    A nd           | Website:  www.openfoam.com                      |
|    \\/     M anipulation  |                                                 |
\*---------------------------------------------------------------------------*/
FoamFile
{
    version     2.0;
    format      ascii;
    arch        "LSB;label=32;scalar=64";
    class       volScalarField;
    location    "23/fluidRegion";
    object      heatFlux.structure;
}
// * * * * * * * * * * * * * * * * * * * * * * * * * * * * * * * * * * * * * //

dimensions      [1 0 -3 0 0 0 0];

internalField   nonuniform List<scalar> 
350
(
-258221
-258224
-258227
-258230
-258232
-258235
-258238
-258241
-258244
-258247
-258250
-258253
-258256
-258259
-258262
-258265
-258267
-258270
-258273
-258276
-258279
-258282
-258285
-258287
-258763
-258221
-258224
-258227
-258230
-258232
-258235
-258238
-258241
-258244
-258247
-258250
-258253
-258256
-258259
-258262
-258265
-258267
-258270
-258273
-258276
-258279
-258282
-258285
-258287
-258763
118982
948325
1.76022e+06
2.5418e+06
3.28073e+06
3.96534e+06
4.58481e+06
5.12939e+06
5.59051e+06
5.96092e+06
6.2348e+06
6.40787e+06
6.47742e+06
6.44238e+06
6.30328e+06
6.06226e+06
5.72309e+06
5.29107e+06
4.7731e+06
4.17776e+06
3.51527e+06
2.79797e+06
2.04044e+06
1.25878e+06
465878
117251
956087
1.77729e+06
2.56786e+06
3.3153e+06
4.0078e+06
4.63445e+06
5.18536e+06
5.65186e+06
6.02662e+06
6.30376e+06
6.47895e+06
6.54945e+06
6.51416e+06
6.37364e+06
6.13005e+06
5.78718e+06
5.3504e+06
4.82667e+06
4.22464e+06
3.55463e+06
2.82915e+06
2.06295e+06
1.27236e+06
470426
119271
947098
1.7575e+06
2.53765e+06
3.27523e+06
3.95856e+06
4.57689e+06
5.12046e+06
5.58072e+06
5.95043e+06
6.22379e+06
6.39653e+06
6.46593e+06
6.43093e+06
6.29205e+06
6.05145e+06
5.71286e+06
5.2816e+06
4.76455e+06
4.17028e+06
3.50898e+06
2.79299e+06
2.03684e+06
1.25661e+06
465152
117615
954269
1.77333e+06
2.56184e+06
3.30732e+06
3.99801e+06
4.62301e+06
5.17246e+06
5.63773e+06
6.01149e+06
6.28788e+06
6.46259e+06
6.53287e+06
6.49764e+06
6.35744e+06
6.11445e+06
5.77243e+06
5.33675e+06
4.81434e+06
4.21385e+06
3.54557e+06
2.82197e+06
2.05777e+06
1.26923e+06
469379
117615
954269
1.77333e+06
2.56184e+06
3.30732e+06
3.99801e+06
4.62301e+06
5.17246e+06
5.63773e+06
6.01149e+06
6.28788e+06
6.46258e+06
6.53287e+06
6.49764e+06
6.35744e+06
6.11445e+06
5.77243e+06
5.33675e+06
4.81434e+06
4.21385e+06
3.54557e+06
2.82197e+06
2.05777e+06
1.26923e+06
469379
119271
947097
1.7575e+06
2.53766e+06
3.27522e+06
3.95856e+06
4.57689e+06
5.12046e+06
5.58072e+06
5.95043e+06
6.22379e+06
6.39652e+06
6.46593e+06
6.43093e+06
6.29205e+06
6.05145e+06
5.71286e+06
5.2816e+06
4.76455e+06
4.17028e+06
3.50898e+06
2.79299e+06
2.03684e+06
1.25661e+06
465152
117251
956087
1.77729e+06
2.56786e+06
3.31529e+06
4.0078e+06
4.63445e+06
5.18535e+06
5.65186e+06
6.02662e+06
6.30376e+06
6.47895e+06
6.54945e+06
6.51416e+06
6.37364e+06
6.13005e+06
5.78718e+06
5.3504e+06
4.82667e+06
4.22464e+06
3.55463e+06
2.82915e+06
2.06295e+06
1.27236e+06
470426
118982
948325
1.76022e+06
2.5418e+06
3.28073e+06
3.96534e+06
4.58481e+06
5.12939e+06
5.59051e+06
5.96092e+06
6.2348e+06
6.40787e+06
6.47742e+06
6.44238e+06
6.30328e+06
6.06227e+06
5.72309e+06
5.29107e+06
4.7731e+06
4.17776e+06
3.51526e+06
2.79797e+06
2.04044e+06
1.25878e+06
465878
117615
954270
1.77333e+06
2.56184e+06
3.30732e+06
3.99801e+06
4.62301e+06
5.17246e+06
5.63773e+06
6.01149e+06
6.28788e+06
6.46258e+06
6.53287e+06
6.49764e+06
6.35744e+06
6.11445e+06
5.77243e+06
5.33675e+06
4.81434e+06
4.21385e+06
3.54557e+06
2.82197e+06
2.05777e+06
1.26923e+06
469379
119271
947098
1.7575e+06
2.53766e+06
3.27522e+06
3.95856e+06
4.57689e+06
5.12046e+06
5.58072e+06
5.95043e+06
6.22379e+06
6.39653e+06
6.46593e+06
6.43093e+06
6.29205e+06
6.05145e+06
5.71286e+06
5.2816e+06
4.76455e+06
4.17028e+06
3.50898e+06
2.79299e+06
2.03684e+06
1.25661e+06
465152
119271
947097
1.7575e+06
2.53765e+06
3.27522e+06
3.95856e+06
4.57689e+06
5.12046e+06
5.58072e+06
5.95043e+06
6.22379e+06
6.39652e+06
6.46593e+06
6.43093e+06
6.29205e+06
6.05145e+06
5.71286e+06
5.2816e+06
4.76455e+06
4.17028e+06
3.50898e+06
2.79299e+06
2.03684e+06
1.25661e+06
465152
117615
954269
1.77333e+06
2.56184e+06
3.30732e+06
3.99801e+06
4.62301e+06
5.17246e+06
5.63773e+06
6.01149e+06
6.28788e+06
6.46258e+06
6.53287e+06
6.49764e+06
6.35744e+06
6.11445e+06
5.77243e+06
5.33675e+06
4.81434e+06
4.21385e+06
3.54557e+06
2.82197e+06
2.05777e+06
1.26923e+06
469379
)
;

boundaryField
{
    outletCentralUnloaded
    {
        type            zeroGradient;
    }
    inletCentralUnloaded
    {
        type            zeroGradient;
    }
    outletFuelElement
    {
        type            zeroGradient;
    }
    inletFuelElement
    {
        type            zeroGradient;
    }
    defaultFaces
    {
        type            zeroGradient;
    }
    baffle_master
    {
        type            zeroGradient;
    }
    baffle_slave
    {
        type            zeroGradient;
    }
}


// ************************************************************************* //
