/*--------------------------------*- C++ -*----------------------------------*\
| =========                 |                                                 |
| \\      /  F ield         | OpenFOAM: The Open Source CFD Toolbox           |
|  \\    /   O peration     | Version:  2212                                  |
|   \\  /    A nd           | Website:  www.openfoam.com                      |
|    \\/     M anipulation  |                                                 |
\*---------------------------------------------------------------------------*/
FoamFile
{
    version     2.0;
    format      ascii;
    arch        "LSB;label=32;scalar=64";
    class       volScalarField;
    location    "23/fluidRegion";
    object      htc;
}
// * * * * * * * * * * * * * * * * * * * * * * * * * * * * * * * * * * * * * //

dimensions      [1 0 -3 -1 0 0 0];

internalField   nonuniform List<scalar> 
350
(
3100.32
3100.33
3100.35
3100.37
3100.38
3100.4
3100.42
3100.43
3100.45
3100.47
3100.49
3100.5
3100.52
3100.54
3100.55
3100.57
3100.59
3100.6
3100.62
3100.64
3100.65
3100.67
3100.69
3100.7
3106.39
3100.32
3100.33
3100.35
3100.37
3100.38
3100.4
3100.42
3100.43
3100.45
3100.47
3100.49
3100.5
3100.52
3100.54
3100.55
3100.57
3100.59
3100.6
3100.62
3100.64
3100.65
3100.67
3100.69
3100.7
3106.39
25395.2
25346.8
25208.5
24949
24570
24073.6
23463.2
22742.8
21918.2
20996.9
19988.6
18905.6
17761.6
16571.6
15349.5
14106.9
12852.8
11595.4
10345.1
9119.27
7946.24
6870.56
5956.89
5285.66
4861.09
25474.6
25426.2
25288.7
25029.4
24650
24152.7
23540.7
22817.9
21989.9
21064.2
20050.4
18960.7
17809.4
16611.8
15382.4
14133.4
12873.8
11611.8
10357.5
9127.52
7950.31
6870.66
5953.98
5281.88
4859.39
25382.6
25333.8
25195.5
24936
24557.1
24060.9
23450.7
22730.8
21906.7
20986.1
19978.8
18896.8
17754
16565.2
15344.1
14102.5
12849.1
11592.4
10342.8
9117.48
7945.01
6869.84
5956.53
5285.42
4860.96
25457
25408.6
25270.9
25011.5
24632.2
24135.1
23523.3
22801
21973.8
21049
20036.5
18948.2
17798.6
16602.7
15375
14127.4
12869.1
11608.2
10354.7
9125.71
7949.47
6870.73
5954.75
5282.86
4859.84
25457
25408.6
25270.9
25011.5
24632.2
24135.1
23523.3
22801
21973.8
21049
20036.5
18948.2
17798.6
16602.7
15375
14127.4
12869.1
11608.2
10354.7
9125.71
7949.47
6870.73
5954.75
5282.86
4859.84
25382.6
25333.8
25195.5
24936
24557.1
24060.9
23450.7
22730.8
21906.7
20986.2
19978.8
18896.8
17754
16565.2
15344.1
14102.5
12849.1
11592.4
10342.8
9117.48
7945
6869.83
5956.52
5285.41
4860.95
25474.6
25426.2
25288.7
25029.4
24650
24152.7
23540.7
22817.9
21989.9
21064.2
20050.4
18960.7
17809.4
16611.8
15382.4
14133.4
12873.8
11611.8
10357.5
9127.52
7950.31
6870.66
5953.98
5281.88
4859.39
25395.2
25346.8
25208.5
24949
24570
24073.6
23463.2
22742.8
21918.2
20996.9
19988.6
18905.6
17761.6
16571.6
15349.5
14106.9
12852.8
11595.4
10345.1
9119.27
7946.24
6870.56
5956.89
5285.66
4861.09
25457
25408.6
25270.9
25011.5
24632.2
24135.1
23523.3
22801
21973.8
21049
20036.5
18948.2
17798.6
16602.7
15375
14127.4
12869.1
11608.2
10354.7
9125.71
7949.47
6870.73
5954.75
5282.86
4859.84
25382.6
25333.8
25195.5
24936
24557
24060.9
23450.7
22730.8
21906.7
20986.1
19978.8
18896.8
17754
16565.2
15344.1
14102.5
12849.1
11592.4
10342.8
9117.48
7945.01
6869.84
5956.53
5285.42
4860.96
25382.6
25333.8
25195.5
24936
24557.1
24060.9
23450.7
22730.8
21906.7
20986.2
19978.8
18896.8
17754
16565.2
15344.1
14102.5
12849.1
11592.4
10342.8
9117.48
7945
6869.83
5956.52
5285.41
4860.95
25457
25408.6
25270.9
25011.5
24632.2
24135.1
23523.3
22801
21973.8
21049
20036.5
18948.2
17798.6
16602.7
15375
14127.4
12869.1
11608.2
10354.7
9125.71
7949.47
6870.73
5954.75
5282.86
4859.84
)
;

boundaryField
{
    outletCentralUnloaded
    {
        type            zeroGradient;
    }
    inletCentralUnloaded
    {
        type            zeroGradient;
    }
    outletFuelElement
    {
        type            zeroGradient;
    }
    inletFuelElement
    {
        type            zeroGradient;
    }
    defaultFaces
    {
        type            zeroGradient;
    }
    baffle_master
    {
        type            zeroGradient;
    }
    baffle_slave
    {
        type            zeroGradient;
    }
}


// ************************************************************************* //
