/*--------------------------------*- C++ -*----------------------------------*\
| =========                 |                                                 |
| \\      /  F ield         | OpenFOAM: The Open Source CFD Toolbox           |
|  \\    /   O peration     | Version:  2212                                  |
|   \\  /    A nd           | Website:  www.openfoam.com                      |
|    \\/     M anipulation  |                                                 |
\*---------------------------------------------------------------------------*/
FoamFile
{
    version     2.0;
    format      ascii;
    arch        "LSB;label=32;scalar=64";
    class       volScalarField;
    location    "23/fluidRegion";
    object      k;
}
// * * * * * * * * * * * * * * * * * * * * * * * * * * * * * * * * * * * * * //

dimensions      [0 2 -2 0 0 0 0];

internalField   nonuniform List<scalar> 
350
(
0.420777
0.420708
0.420639
0.42057
0.420501
0.420432
0.420364
0.420296
0.420229
0.420163
0.420099
0.420037
0.41998
0.419928
0.419886
0.419858
0.419853
0.41988
0.419959
0.420116
0.420392
0.42085
0.421587
0.42275
0.424563
0.420777
0.420708
0.420639
0.42057
0.420501
0.420432
0.420364
0.420296
0.420229
0.420163
0.420099
0.420037
0.41998
0.419928
0.419886
0.419858
0.419853
0.41988
0.419959
0.420116
0.420392
0.42085
0.421587
0.42275
0.424563
337.853
321.094
301.458
279.223
255.066
229.673
203.714
177.831
152.613
128.591
106.218
85.8613
67.7902
52.1646
39.0312
28.3247
19.8803
13.4559
8.76013
5.48171
3.31465
1.97632
1.2215
0.851246
0.71827
342.416
325.481
305.632
283.136
258.681
232.961
206.657
180.419
154.847
130.478
107.775
87.1134
68.7669
52.9013
39.5661
28.6968
20.1268
13.6102
8.85034
5.53015
3.33794
1.98599
1.22479
0.852173
0.718641
337.095
320.364
300.767
278.578
254.472
229.134
203.234
177.41
152.251
128.286
105.967
85.6603
67.6337
52.0468
38.9457
28.2652
19.8408
13.431
8.74538
5.47359
3.31055
1.97445
1.22071
0.850944
0.71816
341.415
324.516
304.711
282.271
257.88
232.23
206.002
179.841
154.347
130.055
107.425
86.8313
68.5463
52.7345
39.4447
28.6122
20.0708
13.5751
8.82979
5.51912
3.33265
1.98381
1.22406
0.851978
0.718566
341.415
324.516
304.711
282.271
257.88
232.23
206.002
179.841
154.347
130.055
107.425
86.8313
68.5463
52.7345
39.4447
28.6122
20.0708
13.5751
8.82979
5.51912
3.33265
1.98381
1.22406
0.851978
0.718566
337.095
320.364
300.767
278.578
254.472
229.135
203.234
177.41
152.251
128.286
105.967
85.6604
67.6338
52.0469
38.9457
28.2652
19.8408
13.431
8.74539
5.47359
3.31055
1.97444
1.22071
0.850944
0.718161
342.416
325.481
305.632
283.136
258.681
232.961
206.657
180.419
154.847
130.478
107.775
87.1134
68.7669
52.9013
39.5661
28.6968
20.1268
13.6102
8.85034
5.53015
3.33794
1.98599
1.22479
0.852173
0.718641
337.853
321.094
301.458
279.223
255.066
229.673
203.714
177.831
152.613
128.591
106.218
85.8613
67.7902
52.1646
39.0312
28.3247
19.8803
13.4559
8.76013
5.48171
3.31464
1.97632
1.22149
0.851244
0.718268
341.415
324.516
304.711
282.271
257.88
232.23
206.002
179.841
154.347
130.055
107.425
86.8313
68.5463
52.7345
39.4447
28.6122
20.0708
13.5751
8.82979
5.51912
3.33265
1.98381
1.22406
0.851978
0.718566
337.095
320.364
300.767
278.578
254.472
229.134
203.234
177.41
152.251
128.286
105.967
85.6603
67.6337
52.0468
38.9457
28.2652
19.8408
13.431
8.74538
5.47359
3.31054
1.97444
1.22071
0.850942
0.718158
337.095
320.364
300.767
278.578
254.472
229.135
203.234
177.41
152.251
128.286
105.967
85.6604
67.6338
52.0469
38.9457
28.2652
19.8408
13.431
8.74538
5.47359
3.31054
1.97444
1.22071
0.850943
0.71816
341.415
324.516
304.711
282.271
257.88
232.23
206.002
179.841
154.347
130.055
107.425
86.8313
68.5463
52.7345
39.4447
28.6122
20.0708
13.5751
8.82979
5.51912
3.33264
1.9838
1.22406
0.851976
0.718563
)
;

boundaryField
{
    outletCentralUnloaded
    {
        type            zeroGradient;
    }
    inletCentralUnloaded
    {
        type            zeroGradient;
    }
    outletFuelElement
    {
        type            zeroGradient;
    }
    inletFuelElement
    {
        type            zeroGradient;
    }
    defaultFaces
    {
        type            zeroGradient;
    }
    baffle_master
    {
        type            zeroGradient;
    }
    baffle_slave
    {
        type            zeroGradient;
    }
}


// ************************************************************************* //
