/*--------------------------------*- C++ -*----------------------------------*\
| =========                 |                                                 |
| \\      /  F ield         | OpenFOAM: The Open Source CFD Toolbox           |
|  \\    /   O peration     | Version:  2212                                  |
|   \\  /    A nd           | Website:  www.openfoam.com                      |
|    \\/     M anipulation  |                                                 |
\*---------------------------------------------------------------------------*/
FoamFile
{
    version     2.0;
    format      ascii;
    arch        "LSB;label=32;scalar=64";
    class       volTensorField;
    location    "23/fluidRegion";
    object      Kd;
}
// * * * * * * * * * * * * * * * * * * * * * * * * * * * * * * * * * * * * * //

dimensions      [1 -3 -1 0 0 0 0];

internalField   nonuniform List<tensor> 
350
(
(84.715 0 0 0 84.715 0 0 0 84.715)
(84.715 0 0 0 84.715 0 0 0 84.715)
(84.715 0 0 0 84.715 0 0 0 84.715)
(84.715 0 0 0 84.715 0 0 0 84.715)
(84.715 0 0 0 84.715 0 0 0 84.715)
(84.715 0 0 0 84.715 0 0 0 84.715)
(84.715 0 0 0 84.715 0 0 0 84.715)
(84.715 0 0 0 84.715 0 0 0 84.715)
(84.715 0 0 0 84.715 0 0 0 84.715)
(84.715 0 0 0 84.715 0 0 0 84.715)
(84.715 0 0 0 84.715 0 0 0 84.715)
(84.715 0 0 0 84.715 0 0 0 84.715)
(84.715 0 0 0 84.715 0 0 0 84.715)
(84.715 0 0 0 84.715 0 0 0 84.715)
(84.715 0 0 0 84.715 0 0 0 84.715)
(84.715 0 0 0 84.715 0 0 0 84.715)
(84.715 0 0 0 84.715 0 0 0 84.715)
(84.715 0 0 0 84.715 0 0 0 84.715)
(84.715 0 0 0 84.715 0 0 0 84.715)
(84.715 0 0 0 84.715 0 0 0 84.715)
(84.715 0 0 0 84.715 0 0 0 84.715)
(84.715 0 0 0 84.715 0 0 0 84.715)
(84.715 0 0 0 84.715 0 0 0 84.715)
(84.715 0 0 0 84.715 0 0 0 84.715)
(84.8603 0 0 0 84.8603 0 0 0 84.8603)
(84.715 0 0 0 84.715 0 0 0 84.715)
(84.715 0 0 0 84.715 0 0 0 84.715)
(84.715 0 0 0 84.715 0 0 0 84.715)
(84.715 0 0 0 84.715 0 0 0 84.715)
(84.715 0 0 0 84.715 0 0 0 84.715)
(84.715 0 0 0 84.715 0 0 0 84.715)
(84.715 0 0 0 84.715 0 0 0 84.715)
(84.715 0 0 0 84.715 0 0 0 84.715)
(84.715 0 0 0 84.715 0 0 0 84.715)
(84.715 0 0 0 84.715 0 0 0 84.715)
(84.715 0 0 0 84.715 0 0 0 84.715)
(84.715 0 0 0 84.715 0 0 0 84.715)
(84.715 0 0 0 84.715 0 0 0 84.715)
(84.715 0 0 0 84.715 0 0 0 84.715)
(84.715 0 0 0 84.715 0 0 0 84.715)
(84.715 0 0 0 84.715 0 0 0 84.715)
(84.715 0 0 0 84.715 0 0 0 84.715)
(84.715 0 0 0 84.715 0 0 0 84.715)
(84.715 0 0 0 84.715 0 0 0 84.715)
(84.715 0 0 0 84.715 0 0 0 84.715)
(84.715 0 0 0 84.715 0 0 0 84.715)
(84.715 0 0 0 84.715 0 0 0 84.715)
(84.715 0 0 0 84.715 0 0 0 84.715)
(84.715 0 0 0 84.715 0 0 0 84.715)
(84.8603 0 0 0 84.8603 0 0 0 84.8603)
(673.449 0 0 0 673.449 0 0 0 673.449)
(672.673 0 0 0 672.673 0 0 0 672.673)
(672.69 0 0 0 672.69 0 0 0 672.69)
(672.699 0 0 0 672.699 0 0 0 672.699)
(672.695 0 0 0 672.695 0 0 0 672.695)
(672.678 0 0 0 672.678 0 0 0 672.678)
(672.647 0 0 0 672.647 0 0 0 672.647)
(672.6 0 0 0 672.6 0 0 0 672.6)
(672.537 0 0 0 672.537 0 0 0 672.537)
(672.455 0 0 0 672.455 0 0 0 672.455)
(672.354 0 0 0 672.354 0 0 0 672.354)
(672.234 0 0 0 672.234 0 0 0 672.234)
(672.094 0 0 0 672.094 0 0 0 672.094)
(671.934 0 0 0 671.934 0 0 0 671.934)
(671.75 0 0 0 671.75 0 0 0 671.75)
(671.532 0 0 0 671.532 0 0 0 671.532)
(671.267 0 0 0 671.267 0 0 0 671.267)
(670.944 0 0 0 670.944 0 0 0 670.944)
(670.565 0 0 0 670.565 0 0 0 670.565)
(670.196 0 0 0 670.196 0 0 0 670.196)
(670.023 0 0 0 670.023 0 0 0 670.023)
(670.561 0 0 0 670.561 0 0 0 670.561)
(672.942 0 0 0 672.942 0 0 0 672.942)
(678.992 0 0 0 678.992 0 0 0 678.992)
(681.824 0 0 0 681.824 0 0 0 681.824)
(669.156 0 0 0 669.156 0 0 0 669.156)
(668.307 0 0 0 668.307 0 0 0 668.307)
(668.281 0 0 0 668.281 0 0 0 668.281)
(668.245 0 0 0 668.245 0 0 0 668.245)
(668.201 0 0 0 668.201 0 0 0 668.201)
(668.147 0 0 0 668.147 0 0 0 668.147)
(668.081 0 0 0 668.081 0 0 0 668.081)
(668.003 0 0 0 668.003 0 0 0 668.003)
(667.912 0 0 0 667.912 0 0 0 667.912)
(667.806 0 0 0 667.806 0 0 0 667.806)
(667.688 0 0 0 667.688 0 0 0 667.688)
(667.561 0 0 0 667.561 0 0 0 667.561)
(667.433 0 0 0 667.433 0 0 0 667.433)
(667.309 0 0 0 667.309 0 0 0 667.309)
(667.195 0 0 0 667.195 0 0 0 667.195)
(667.087 0 0 0 667.087 0 0 0 667.087)
(666.977 0 0 0 666.977 0 0 0 666.977)
(666.853 0 0 0 666.853 0 0 0 666.853)
(666.721 0 0 0 666.721 0 0 0 666.721)
(666.652 0 0 0 666.652 0 0 0 666.652)
(666.846 0 0 0 666.846 0 0 0 666.846)
(667.848 0 0 0 667.848 0 0 0 667.848)
(670.836 0 0 0 670.836 0 0 0 670.836)
(677.67 0 0 0 677.67 0 0 0 677.67)
(681.4 0 0 0 681.4 0 0 0 681.4)
(674.167 0 0 0 674.167 0 0 0 674.167)
(673.39 0 0 0 673.39 0 0 0 673.39)
(673.413 0 0 0 673.413 0 0 0 673.413)
(673.425 0 0 0 673.425 0 0 0 673.425)
(673.424 0 0 0 673.424 0 0 0 673.424)
(673.41 0 0 0 673.41 0 0 0 673.41)
(673.381 0 0 0 673.381 0 0 0 673.381)
(673.336 0 0 0 673.336 0 0 0 673.336)
(673.274 0 0 0 673.274 0 0 0 673.274)
(673.192 0 0 0 673.192 0 0 0 673.192)
(673.089 0 0 0 673.089 0 0 0 673.089)
(672.964 0 0 0 672.964 0 0 0 672.964)
(672.818 0 0 0 672.818 0 0 0 672.818)
(672.646 0 0 0 672.646 0 0 0 672.646)
(672.444 0 0 0 672.444 0 0 0 672.444)
(672.202 0 0 0 672.202 0 0 0 672.202)
(671.905 0 0 0 671.905 0 0 0 671.905)
(671.542 0 0 0 671.542 0 0 0 671.542)
(671.115 0 0 0 671.115 0 0 0 671.115)
(670.688 0 0 0 670.688 0 0 0 670.688)
(670.444 0 0 0 670.444 0 0 0 670.444)
(670.894 0 0 0 670.894 0 0 0 670.894)
(673.167 0 0 0 673.167 0 0 0 673.167)
(679.092 0 0 0 679.092 0 0 0 679.092)
(681.839 0 0 0 681.839 0 0 0 681.839)
(670.117 0 0 0 670.117 0 0 0 670.117)
(669.288 0 0 0 669.288 0 0 0 669.288)
(669.274 0 0 0 669.274 0 0 0 669.274)
(669.25 0 0 0 669.25 0 0 0 669.25)
(669.216 0 0 0 669.216 0 0 0 669.216)
(669.173 0 0 0 669.173 0 0 0 669.173)
(669.117 0 0 0 669.117 0 0 0 669.117)
(669.048 0 0 0 669.048 0 0 0 669.048)
(668.964 0 0 0 668.964 0 0 0 668.964)
(668.865 0 0 0 668.865 0 0 0 668.865)
(668.753 0 0 0 668.753 0 0 0 668.753)
(668.629 0 0 0 668.629 0 0 0 668.629)
(668.5 0 0 0 668.5 0 0 0 668.5)
(668.37 0 0 0 668.37 0 0 0 668.37)
(668.241 0 0 0 668.241 0 0 0 668.241)
(668.11 0 0 0 668.11 0 0 0 668.11)
(667.966 0 0 0 667.966 0 0 0 667.966)
(667.798 0 0 0 667.798 0 0 0 667.798)
(667.611 0 0 0 667.611 0 0 0 667.611)
(667.474 0 0 0 667.474 0 0 0 667.474)
(667.586 0 0 0 667.586 0 0 0 667.586)
(668.483 0 0 0 668.483 0 0 0 668.483)
(671.333 0 0 0 671.333 0 0 0 671.333)
(677.988 0 0 0 677.988 0 0 0 677.988)
(681.505 0 0 0 681.505 0 0 0 681.505)
(670.117 0 0 0 670.117 0 0 0 670.117)
(669.288 0 0 0 669.288 0 0 0 669.288)
(669.274 0 0 0 669.274 0 0 0 669.274)
(669.25 0 0 0 669.25 0 0 0 669.25)
(669.216 0 0 0 669.216 0 0 0 669.216)
(669.173 0 0 0 669.173 0 0 0 669.173)
(669.117 0 0 0 669.117 0 0 0 669.117)
(669.048 0 0 0 669.048 0 0 0 669.048)
(668.964 0 0 0 668.964 0 0 0 668.964)
(668.865 0 0 0 668.865 0 0 0 668.865)
(668.753 0 0 0 668.753 0 0 0 668.753)
(668.629 0 0 0 668.629 0 0 0 668.629)
(668.5 0 0 0 668.5 0 0 0 668.5)
(668.37 0 0 0 668.37 0 0 0 668.37)
(668.241 0 0 0 668.241 0 0 0 668.241)
(668.11 0 0 0 668.11 0 0 0 668.11)
(667.966 0 0 0 667.966 0 0 0 667.966)
(667.798 0 0 0 667.798 0 0 0 667.798)
(667.611 0 0 0 667.611 0 0 0 667.611)
(667.474 0 0 0 667.474 0 0 0 667.474)
(667.586 0 0 0 667.586 0 0 0 667.586)
(668.483 0 0 0 668.483 0 0 0 668.483)
(671.333 0 0 0 671.333 0 0 0 671.333)
(677.988 0 0 0 677.988 0 0 0 677.988)
(681.505 0 0 0 681.505 0 0 0 681.505)
(674.167 0 0 0 674.167 0 0 0 674.167)
(673.39 0 0 0 673.39 0 0 0 673.39)
(673.413 0 0 0 673.413 0 0 0 673.413)
(673.425 0 0 0 673.425 0 0 0 673.425)
(673.424 0 0 0 673.424 0 0 0 673.424)
(673.41 0 0 0 673.41 0 0 0 673.41)
(673.381 0 0 0 673.381 0 0 0 673.381)
(673.336 0 0 0 673.336 0 0 0 673.336)
(673.273 0 0 0 673.273 0 0 0 673.273)
(673.191 0 0 0 673.191 0 0 0 673.191)
(673.089 0 0 0 673.089 0 0 0 673.089)
(672.964 0 0 0 672.964 0 0 0 672.964)
(672.817 0 0 0 672.817 0 0 0 672.817)
(672.646 0 0 0 672.646 0 0 0 672.646)
(672.444 0 0 0 672.444 0 0 0 672.444)
(672.202 0 0 0 672.202 0 0 0 672.202)
(671.905 0 0 0 671.905 0 0 0 671.905)
(671.541 0 0 0 671.541 0 0 0 671.541)
(671.114 0 0 0 671.114 0 0 0 671.114)
(670.687 0 0 0 670.687 0 0 0 670.687)
(670.443 0 0 0 670.443 0 0 0 670.443)
(670.893 0 0 0 670.893 0 0 0 670.893)
(673.165 0 0 0 673.165 0 0 0 673.165)
(679.091 0 0 0 679.091 0 0 0 679.091)
(681.838 0 0 0 681.838 0 0 0 681.838)
(669.156 0 0 0 669.156 0 0 0 669.156)
(668.307 0 0 0 668.307 0 0 0 668.307)
(668.281 0 0 0 668.281 0 0 0 668.281)
(668.245 0 0 0 668.245 0 0 0 668.245)
(668.201 0 0 0 668.201 0 0 0 668.201)
(668.147 0 0 0 668.147 0 0 0 668.147)
(668.081 0 0 0 668.081 0 0 0 668.081)
(668.003 0 0 0 668.003 0 0 0 668.003)
(667.912 0 0 0 667.912 0 0 0 667.912)
(667.806 0 0 0 667.806 0 0 0 667.806)
(667.688 0 0 0 667.688 0 0 0 667.688)
(667.561 0 0 0 667.561 0 0 0 667.561)
(667.433 0 0 0 667.433 0 0 0 667.433)
(667.309 0 0 0 667.309 0 0 0 667.309)
(667.195 0 0 0 667.195 0 0 0 667.195)
(667.087 0 0 0 667.087 0 0 0 667.087)
(666.977 0 0 0 666.977 0 0 0 666.977)
(666.853 0 0 0 666.853 0 0 0 666.853)
(666.721 0 0 0 666.721 0 0 0 666.721)
(666.652 0 0 0 666.652 0 0 0 666.652)
(666.846 0 0 0 666.846 0 0 0 666.846)
(667.848 0 0 0 667.848 0 0 0 667.848)
(670.836 0 0 0 670.836 0 0 0 670.836)
(677.67 0 0 0 677.67 0 0 0 677.67)
(681.4 0 0 0 681.4 0 0 0 681.4)
(673.449 0 0 0 673.449 0 0 0 673.449)
(672.673 0 0 0 672.673 0 0 0 672.673)
(672.69 0 0 0 672.69 0 0 0 672.69)
(672.699 0 0 0 672.699 0 0 0 672.699)
(672.695 0 0 0 672.695 0 0 0 672.695)
(672.678 0 0 0 672.678 0 0 0 672.678)
(672.647 0 0 0 672.647 0 0 0 672.647)
(672.6 0 0 0 672.6 0 0 0 672.6)
(672.537 0 0 0 672.537 0 0 0 672.537)
(672.455 0 0 0 672.455 0 0 0 672.455)
(672.354 0 0 0 672.354 0 0 0 672.354)
(672.234 0 0 0 672.234 0 0 0 672.234)
(672.094 0 0 0 672.094 0 0 0 672.094)
(671.934 0 0 0 671.934 0 0 0 671.934)
(671.75 0 0 0 671.75 0 0 0 671.75)
(671.532 0 0 0 671.532 0 0 0 671.532)
(671.267 0 0 0 671.267 0 0 0 671.267)
(670.944 0 0 0 670.944 0 0 0 670.944)
(670.565 0 0 0 670.565 0 0 0 670.565)
(670.196 0 0 0 670.196 0 0 0 670.196)
(670.023 0 0 0 670.023 0 0 0 670.023)
(670.561 0 0 0 670.561 0 0 0 670.561)
(672.942 0 0 0 672.942 0 0 0 672.942)
(678.992 0 0 0 678.992 0 0 0 678.992)
(681.824 0 0 0 681.824 0 0 0 681.824)
(670.117 0 0 0 670.117 0 0 0 670.117)
(669.288 0 0 0 669.288 0 0 0 669.288)
(669.274 0 0 0 669.274 0 0 0 669.274)
(669.25 0 0 0 669.25 0 0 0 669.25)
(669.216 0 0 0 669.216 0 0 0 669.216)
(669.173 0 0 0 669.173 0 0 0 669.173)
(669.117 0 0 0 669.117 0 0 0 669.117)
(669.048 0 0 0 669.048 0 0 0 669.048)
(668.964 0 0 0 668.964 0 0 0 668.964)
(668.865 0 0 0 668.865 0 0 0 668.865)
(668.753 0 0 0 668.753 0 0 0 668.753)
(668.629 0 0 0 668.629 0 0 0 668.629)
(668.5 0 0 0 668.5 0 0 0 668.5)
(668.37 0 0 0 668.37 0 0 0 668.37)
(668.241 0 0 0 668.241 0 0 0 668.241)
(668.11 0 0 0 668.11 0 0 0 668.11)
(667.966 0 0 0 667.966 0 0 0 667.966)
(667.798 0 0 0 667.798 0 0 0 667.798)
(667.611 0 0 0 667.611 0 0 0 667.611)
(667.474 0 0 0 667.474 0 0 0 667.474)
(667.586 0 0 0 667.586 0 0 0 667.586)
(668.483 0 0 0 668.483 0 0 0 668.483)
(671.333 0 0 0 671.333 0 0 0 671.333)
(677.988 0 0 0 677.988 0 0 0 677.988)
(681.505 0 0 0 681.505 0 0 0 681.505)
(674.167 0 0 0 674.167 0 0 0 674.167)
(673.39 0 0 0 673.39 0 0 0 673.39)
(673.413 0 0 0 673.413 0 0 0 673.413)
(673.425 0 0 0 673.425 0 0 0 673.425)
(673.424 0 0 0 673.424 0 0 0 673.424)
(673.41 0 0 0 673.41 0 0 0 673.41)
(673.381 0 0 0 673.381 0 0 0 673.381)
(673.336 0 0 0 673.336 0 0 0 673.336)
(673.274 0 0 0 673.274 0 0 0 673.274)
(673.192 0 0 0 673.192 0 0 0 673.192)
(673.089 0 0 0 673.089 0 0 0 673.089)
(672.964 0 0 0 672.964 0 0 0 672.964)
(672.818 0 0 0 672.818 0 0 0 672.818)
(672.646 0 0 0 672.646 0 0 0 672.646)
(672.444 0 0 0 672.444 0 0 0 672.444)
(672.202 0 0 0 672.202 0 0 0 672.202)
(671.905 0 0 0 671.905 0 0 0 671.905)
(671.542 0 0 0 671.542 0 0 0 671.542)
(671.115 0 0 0 671.115 0 0 0 671.115)
(670.688 0 0 0 670.688 0 0 0 670.688)
(670.444 0 0 0 670.444 0 0 0 670.444)
(670.894 0 0 0 670.894 0 0 0 670.894)
(673.167 0 0 0 673.167 0 0 0 673.167)
(679.092 0 0 0 679.092 0 0 0 679.092)
(681.839 0 0 0 681.839 0 0 0 681.839)
(674.167 0 0 0 674.167 0 0 0 674.167)
(673.39 0 0 0 673.39 0 0 0 673.39)
(673.413 0 0 0 673.413 0 0 0 673.413)
(673.425 0 0 0 673.425 0 0 0 673.425)
(673.424 0 0 0 673.424 0 0 0 673.424)
(673.41 0 0 0 673.41 0 0 0 673.41)
(673.381 0 0 0 673.381 0 0 0 673.381)
(673.336 0 0 0 673.336 0 0 0 673.336)
(673.273 0 0 0 673.273 0 0 0 673.273)
(673.191 0 0 0 673.191 0 0 0 673.191)
(673.089 0 0 0 673.089 0 0 0 673.089)
(672.964 0 0 0 672.964 0 0 0 672.964)
(672.817 0 0 0 672.817 0 0 0 672.817)
(672.646 0 0 0 672.646 0 0 0 672.646)
(672.444 0 0 0 672.444 0 0 0 672.444)
(672.202 0 0 0 672.202 0 0 0 672.202)
(671.905 0 0 0 671.905 0 0 0 671.905)
(671.541 0 0 0 671.541 0 0 0 671.541)
(671.114 0 0 0 671.114 0 0 0 671.114)
(670.687 0 0 0 670.687 0 0 0 670.687)
(670.443 0 0 0 670.443 0 0 0 670.443)
(670.893 0 0 0 670.893 0 0 0 670.893)
(673.165 0 0 0 673.165 0 0 0 673.165)
(679.091 0 0 0 679.091 0 0 0 679.091)
(681.838 0 0 0 681.838 0 0 0 681.838)
(670.117 0 0 0 670.117 0 0 0 670.117)
(669.288 0 0 0 669.288 0 0 0 669.288)
(669.274 0 0 0 669.274 0 0 0 669.274)
(669.25 0 0 0 669.25 0 0 0 669.25)
(669.216 0 0 0 669.216 0 0 0 669.216)
(669.173 0 0 0 669.173 0 0 0 669.173)
(669.117 0 0 0 669.117 0 0 0 669.117)
(669.048 0 0 0 669.048 0 0 0 669.048)
(668.964 0 0 0 668.964 0 0 0 668.964)
(668.865 0 0 0 668.865 0 0 0 668.865)
(668.753 0 0 0 668.753 0 0 0 668.753)
(668.629 0 0 0 668.629 0 0 0 668.629)
(668.5 0 0 0 668.5 0 0 0 668.5)
(668.37 0 0 0 668.37 0 0 0 668.37)
(668.241 0 0 0 668.241 0 0 0 668.241)
(668.11 0 0 0 668.11 0 0 0 668.11)
(667.966 0 0 0 667.966 0 0 0 667.966)
(667.798 0 0 0 667.798 0 0 0 667.798)
(667.611 0 0 0 667.611 0 0 0 667.611)
(667.474 0 0 0 667.474 0 0 0 667.474)
(667.586 0 0 0 667.586 0 0 0 667.586)
(668.483 0 0 0 668.483 0 0 0 668.483)
(671.333 0 0 0 671.333 0 0 0 671.333)
(677.988 0 0 0 677.988 0 0 0 677.988)
(681.505 0 0 0 681.505 0 0 0 681.505)
)
;

boundaryField
{
    outletCentralUnloaded
    {
        type            zeroGradient;
    }
    inletCentralUnloaded
    {
        type            zeroGradient;
    }
    outletFuelElement
    {
        type            zeroGradient;
    }
    inletFuelElement
    {
        type            zeroGradient;
    }
    defaultFaces
    {
        type            zeroGradient;
    }
    baffle_master
    {
        type            zeroGradient;
    }
    baffle_slave
    {
        type            zeroGradient;
    }
}


// ************************************************************************* //
