/*--------------------------------*- C++ -*----------------------------------*\
| =========                 |                                                 |
| \\      /  F ield         | OpenFOAM: The Open Source CFD Toolbox           |
|  \\    /   O peration     | Version:  2212                                  |
|   \\  /    A nd           | Website:  www.openfoam.com                      |
|    \\/     M anipulation  |                                                 |
\*---------------------------------------------------------------------------*/
FoamFile
{
    version     2.0;
    format      ascii;
    arch        "LSB;label=32;scalar=64";
    class       volScalarField;
    location    "23/fluidRegion";
    object      p;
}
// * * * * * * * * * * * * * * * * * * * * * * * * * * * * * * * * * * * * * //

dimensions      [1 -1 -2 0 0 0 0];

internalField   nonuniform List<scalar> 
350
(
3.44743e+06
3.44772e+06
3.44802e+06
3.44831e+06
3.44861e+06
3.44891e+06
3.4492e+06
3.4495e+06
3.44979e+06
3.45009e+06
3.45038e+06
3.45068e+06
3.45097e+06
3.45127e+06
3.45156e+06
3.45186e+06
3.45215e+06
3.45245e+06
3.45274e+06
3.45304e+06
3.45333e+06
3.45363e+06
3.45392e+06
3.45422e+06
3.4545e+06
3.44743e+06
3.44772e+06
3.44802e+06
3.44831e+06
3.44861e+06
3.44891e+06
3.4492e+06
3.4495e+06
3.44979e+06
3.45009e+06
3.45038e+06
3.45068e+06
3.45097e+06
3.45127e+06
3.45156e+06
3.45186e+06
3.45215e+06
3.45245e+06
3.45274e+06
3.45304e+06
3.45333e+06
3.45363e+06
3.45392e+06
3.45422e+06
3.4545e+06
3.47078e+06
3.51682e+06
3.56252e+06
3.60757e+06
3.65169e+06
3.6946e+06
3.73603e+06
3.77576e+06
3.81357e+06
3.84928e+06
3.88272e+06
3.91374e+06
3.94225e+06
3.96815e+06
3.9914e+06
4.01199e+06
4.02996e+06
4.04539e+06
4.0584e+06
4.06914e+06
4.07779e+06
4.08456e+06
4.08966e+06
4.09337e+06
4.09599e+06
3.47078e+06
3.51682e+06
3.56252e+06
3.60757e+06
3.65169e+06
3.6946e+06
3.73603e+06
3.77576e+06
3.81357e+06
3.84928e+06
3.88272e+06
3.91374e+06
3.94225e+06
3.96815e+06
3.9914e+06
4.01199e+06
4.02996e+06
4.04539e+06
4.0584e+06
4.06914e+06
4.07779e+06
4.08456e+06
4.08966e+06
4.09337e+06
4.09599e+06
3.47078e+06
3.51682e+06
3.56252e+06
3.60757e+06
3.65169e+06
3.6946e+06
3.73603e+06
3.77576e+06
3.81357e+06
3.84928e+06
3.88272e+06
3.91374e+06
3.94225e+06
3.96815e+06
3.9914e+06
4.01199e+06
4.02996e+06
4.04539e+06
4.0584e+06
4.06914e+06
4.07779e+06
4.08455e+06
4.08965e+06
4.09337e+06
4.09599e+06
3.47078e+06
3.51682e+06
3.56252e+06
3.60757e+06
3.65169e+06
3.6946e+06
3.73603e+06
3.77576e+06
3.81357e+06
3.84928e+06
3.88272e+06
3.91374e+06
3.94225e+06
3.96815e+06
3.9914e+06
4.01199e+06
4.02996e+06
4.04539e+06
4.0584e+06
4.06914e+06
4.07779e+06
4.08456e+06
4.08966e+06
4.09337e+06
4.09599e+06
3.47078e+06
3.51682e+06
3.56252e+06
3.60757e+06
3.65169e+06
3.6946e+06
3.73603e+06
3.77576e+06
3.81357e+06
3.84928e+06
3.88272e+06
3.91374e+06
3.94225e+06
3.96815e+06
3.9914e+06
4.01199e+06
4.02996e+06
4.04539e+06
4.0584e+06
4.06914e+06
4.07779e+06
4.08456e+06
4.08966e+06
4.09337e+06
4.09599e+06
3.47078e+06
3.51682e+06
3.56252e+06
3.60757e+06
3.65169e+06
3.6946e+06
3.73603e+06
3.77576e+06
3.81357e+06
3.84928e+06
3.88272e+06
3.91374e+06
3.94225e+06
3.96815e+06
3.9914e+06
4.01199e+06
4.02996e+06
4.04539e+06
4.0584e+06
4.06914e+06
4.07779e+06
4.08455e+06
4.08965e+06
4.09337e+06
4.09599e+06
3.47078e+06
3.51682e+06
3.56252e+06
3.60757e+06
3.65169e+06
3.6946e+06
3.73603e+06
3.77576e+06
3.81357e+06
3.84928e+06
3.88272e+06
3.91374e+06
3.94225e+06
3.96815e+06
3.9914e+06
4.01199e+06
4.02996e+06
4.04539e+06
4.0584e+06
4.06914e+06
4.07779e+06
4.08456e+06
4.08966e+06
4.09337e+06
4.09599e+06
3.47078e+06
3.51682e+06
3.56252e+06
3.60757e+06
3.65169e+06
3.6946e+06
3.73603e+06
3.77576e+06
3.81357e+06
3.84928e+06
3.88272e+06
3.91374e+06
3.94225e+06
3.96815e+06
3.9914e+06
4.01199e+06
4.02996e+06
4.04539e+06
4.0584e+06
4.06914e+06
4.07779e+06
4.08456e+06
4.08966e+06
4.09337e+06
4.09599e+06
3.47078e+06
3.51682e+06
3.56252e+06
3.60757e+06
3.65169e+06
3.6946e+06
3.73603e+06
3.77576e+06
3.81357e+06
3.84928e+06
3.88272e+06
3.91374e+06
3.94225e+06
3.96815e+06
3.9914e+06
4.01199e+06
4.02996e+06
4.04539e+06
4.0584e+06
4.06914e+06
4.07779e+06
4.08456e+06
4.08966e+06
4.09337e+06
4.09599e+06
3.47078e+06
3.51682e+06
3.56252e+06
3.60757e+06
3.65169e+06
3.6946e+06
3.73603e+06
3.77576e+06
3.81357e+06
3.84928e+06
3.88272e+06
3.91374e+06
3.94225e+06
3.96815e+06
3.9914e+06
4.01199e+06
4.02996e+06
4.04539e+06
4.0584e+06
4.06914e+06
4.07779e+06
4.08455e+06
4.08965e+06
4.09337e+06
4.09599e+06
3.47078e+06
3.51682e+06
3.56252e+06
3.60757e+06
3.65169e+06
3.6946e+06
3.73603e+06
3.77576e+06
3.81357e+06
3.84928e+06
3.88272e+06
3.91374e+06
3.94225e+06
3.96815e+06
3.9914e+06
4.01199e+06
4.02996e+06
4.04539e+06
4.0584e+06
4.06914e+06
4.07779e+06
4.08455e+06
4.08965e+06
4.09337e+06
4.09599e+06
3.47078e+06
3.51682e+06
3.56252e+06
3.60757e+06
3.65169e+06
3.6946e+06
3.73603e+06
3.77576e+06
3.81357e+06
3.84928e+06
3.88272e+06
3.91374e+06
3.94225e+06
3.96815e+06
3.9914e+06
4.01199e+06
4.02996e+06
4.04539e+06
4.0584e+06
4.06914e+06
4.07779e+06
4.08456e+06
4.08966e+06
4.09337e+06
4.09599e+06
)
;

boundaryField
{
    outletCentralUnloaded
    {
        type            fixedValue;
        value           uniform 3.44728e+06;
    }
    inletCentralUnloaded
    {
        type            zeroGradient;
    }
    outletFuelElement
    {
        type            fixedValue;
        value           uniform 3.44728e+06;
    }
    inletFuelElement
    {
        type            zeroGradient;
    }
    defaultFaces
    {
        type            zeroGradient;
    }
    baffle_master
    {
        type            zeroGradient;
    }
    baffle_slave
    {
        type            zeroGradient;
    }
}


// ************************************************************************* //
