/*--------------------------------*- C++ -*----------------------------------*\
| =========                 |                                                 |
| \\      /  F ield         | OpenFOAM: The Open Source CFD Toolbox           |
|  \\    /   O peration     | Version:  2212                                  |
|   \\  /    A nd           | Website:  www.openfoam.com                      |
|    \\/     M anipulation  |                                                 |
\*---------------------------------------------------------------------------*/
FoamFile
{
    version     2.0;
    format      ascii;
    arch        "LSB;label=32;scalar=64";
    class       volScalarField;
    location    "23/fluidRegion";
    object      Re;
}
// * * * * * * * * * * * * * * * * * * * * * * * * * * * * * * * * * * * * * //

dimensions      [0 0 0 0 0 0 0];

internalField   nonuniform List<scalar> 
350
(
173958
173958
173958
173958
173958
173958
173958
173958
173958
173958
173958
173958
173958
173958
173958
173958
173958
173958
173958
173958
173958
173958
173958
173958
174356
173958
173958
173958
173958
173958
173958
173958
173958
173958
173958
173958
173958
173958
173958
173958
173958
173958
173958
173958
173958
173958
173958
173958
173958
174356
54437.7
54354
54355.9
54356.8
54356.4
54354.6
54351.3
54346.3
54339.4
54330.6
54319.7
54306.7
54291.7
54274.5
54254.7
54231.2
54202.7
54167.8
54127.1
54087.4
54068.8
54126.6
54383.1
55035.9
55342.2
53975.5
53884.2
53881.4
53877.6
53872.8
53867
53859.9
53851.6
53841.7
53830.3
53817.6
53804.1
53790.2
53777
53764.7
53753.1
53741.2
53728
53713.8
53706.3
53727.2
53834.9
54156.3
54893.1
55296.4
54515.1
54431.3
54433.9
54435.1
54435
54433.5
54430.4
54425.5
54418.8
54409.9
54398.9
54385.5
54369.6
54351.2
54329.4
54303.4
54271.4
54232.2
54186.2
54140.3
54114.1
54162.5
54407.3
55046.7
55343.8
54078.9
53989.7
53988.2
53985.6
53982
53977.3
53971.3
53963.8
53954.9
53944.2
53932.1
53918.9
53905
53891
53877.2
53863.1
53847.5
53829.5
53809.3
53794.7
53806.7
53903.1
54209.8
54927.5
55307.7
54078.9
53989.7
53988.2
53985.6
53982
53977.3
53971.3
53963.8
53954.9
53944.2
53932.1
53918.9
53905
53891
53877.2
53863.1
53847.5
53829.5
53809.3
53794.7
53806.7
53903.1
54209.8
54927.5
55307.7
54515.1
54431.3
54433.8
54435.1
54435
54433.5
54430.4
54425.5
54418.8
54409.9
54398.8
54385.4
54369.6
54351.1
54329.4
54303.3
54271.3
54232.2
54186.2
54140.2
54114
54162.4
54407.1
55046.6
55343.8
53975.5
53884.2
53881.4
53877.6
53872.8
53867
53859.9
53851.6
53841.7
53830.3
53817.7
53804.1
53790.2
53777
53764.7
53753.1
53741.2
53728
53713.8
53706.3
53727.2
53834.8
54156.3
54893.1
55296.4
54437.7
54354
54355.9
54356.8
54356.4
54354.6
54351.3
54346.3
54339.4
54330.6
54319.7
54306.7
54291.7
54274.5
54254.7
54231.2
54202.7
54167.8
54127.1
54087.4
54068.8
54126.6
54383.1
55035.9
55342.2
54078.9
53989.7
53988.2
53985.6
53982
53977.3
53971.3
53963.8
53954.9
53944.2
53932.1
53918.9
53905
53891
53877.2
53863.1
53847.5
53829.5
53809.3
53794.7
53806.7
53903.1
54209.8
54927.5
55307.7
54515.1
54431.3
54433.9
54435.1
54435
54433.5
54430.4
54425.6
54418.8
54410
54398.9
54385.5
54369.6
54351.2
54329.4
54303.4
54271.4
54232.2
54186.2
54140.3
54114.1
54162.5
54407.3
55046.7
55343.8
54515.1
54431.3
54433.8
54435.1
54435
54433.5
54430.4
54425.5
54418.8
54409.9
54398.8
54385.4
54369.6
54351.1
54329.4
54303.3
54271.3
54232.2
54186.2
54140.2
54114
54162.4
54407.1
55046.6
55343.8
54078.9
53989.7
53988.2
53985.6
53982
53977.3
53971.3
53963.8
53954.9
53944.2
53932.1
53918.9
53905
53891
53877.2
53863.1
53847.5
53829.5
53809.3
53794.7
53806.7
53903.1
54209.8
54927.5
55307.7
)
;

boundaryField
{
    outletCentralUnloaded
    {
        type            zeroGradient;
    }
    inletCentralUnloaded
    {
        type            zeroGradient;
    }
    outletFuelElement
    {
        type            zeroGradient;
    }
    inletFuelElement
    {
        type            zeroGradient;
    }
    defaultFaces
    {
        type            zeroGradient;
    }
    baffle_master
    {
        type            zeroGradient;
    }
    baffle_slave
    {
        type            zeroGradient;
    }
}


// ************************************************************************* //
