/*--------------------------------*- C++ -*----------------------------------*\
| =========                 |                                                 |
| \\      /  F ield         | OpenFOAM: The Open Source CFD Toolbox           |
|  \\    /   O peration     | Version:  2212                                  |
|   \\  /    A nd           | Website:  www.openfoam.com                      |
|    \\/     M anipulation  |                                                 |
\*---------------------------------------------------------------------------*/
FoamFile
{
    version     2.0;
    format      ascii;
    arch        "LSB;label=32;scalar=64";
    class       volScalarField;
    location    "23/fluidRegion";
    object      Tci.nuclearFuelPin;
}
// * * * * * * * * * * * * * * * * * * * * * * * * * * * * * * * * * * * * * //

dimensions      [0 0 0 1 0 0 0];

internalField   nonuniform List<scalar> 
350
(
0
0
0
0
0
0
0
0
0
0
0
0
0
0
0
0
0
0
0
0
0
0
0
0
0
0
0
0
0
0
0
0
0
0
0
0
0
0
0
0
0
0
0
0
0
0
0
0
0
0
1685.72
1738.52
1778.62
1805.84
1820.14
1821.6
1810.48
1787.18
1752.27
1706.44
1650.55
1585.6
1512.72
1433.17
1348.33
1259.56
1168.16
1075.08
980.633
884.009
782.547
670.799
540.122
381.824
198.503
1710.5
1764.12
1804.83
1832.44
1846.9
1848.3
1836.91
1813.13
1777.54
1730.83
1673.89
1607.72
1533.48
1452.44
1365.99
1275.57
1182.48
1087.75
991.725
893.63
790.791
677.678
545.466
385.246
199.662
1681.68
1734.37
1774.39
1801.56
1815.85
1817.33
1806.27
1783.07
1748.28
1702.6
1646.89
1582.14
1509.48
1430.18
1345.58
1257.08
1165.95
1073.13
978.93
882.538
781.293
669.763
539.326
381.318
198.326
1704.93
1758.35
1798.91
1826.41
1840.82
1842.22
1830.88
1807.21
1771.76
1725.25
1668.54
1602.64
1528.7
1448
1361.92
1271.88
1179.18
1084.82
989.162
891.407
788.885
676.087
544.229
384.453
199.394
1704.93
1758.35
1798.91
1826.41
1840.82
1842.22
1830.88
1807.21
1771.76
1725.25
1668.54
1602.64
1528.7
1448
1361.92
1271.88
1179.18
1084.82
989.162
891.407
788.885
676.087
544.229
384.453
199.394
1681.68
1734.37
1774.39
1801.57
1815.85
1817.33
1806.27
1783.07
1748.28
1702.6
1646.89
1582.14
1509.48
1430.18
1345.59
1257.09
1165.95
1073.13
978.931
882.539
781.294
669.763
539.327
381.318
198.327
1710.5
1764.12
1804.83
1832.44
1846.9
1848.3
1836.91
1813.13
1777.54
1730.83
1673.89
1607.72
1533.48
1452.44
1365.99
1275.57
1182.48
1087.75
991.725
893.63
790.791
677.678
545.467
385.246
199.662
1685.72
1738.52
1778.62
1805.84
1820.14
1821.6
1810.48
1787.18
1752.27
1706.44
1650.55
1585.6
1512.72
1433.17
1348.33
1259.56
1168.16
1075.08
980.633
884.009
782.547
670.799
540.122
381.824
198.503
1704.93
1758.35
1798.91
1826.41
1840.82
1842.22
1830.88
1807.21
1771.76
1725.25
1668.54
1602.64
1528.7
1448
1361.92
1271.88
1179.18
1084.82
989.162
891.407
788.885
676.087
544.229
384.453
199.394
1681.68
1734.37
1774.39
1801.56
1815.85
1817.33
1806.27
1783.07
1748.28
1702.6
1646.89
1582.14
1509.48
1430.18
1345.58
1257.08
1165.95
1073.13
978.93
882.538
781.293
669.763
539.326
381.318
198.326
1681.68
1734.37
1774.39
1801.57
1815.85
1817.33
1806.27
1783.07
1748.28
1702.6
1646.89
1582.14
1509.48
1430.18
1345.59
1257.09
1165.95
1073.13
978.931
882.539
781.294
669.763
539.327
381.318
198.327
1704.93
1758.35
1798.91
1826.41
1840.82
1842.22
1830.88
1807.21
1771.76
1725.25
1668.54
1602.64
1528.7
1448
1361.92
1271.88
1179.18
1084.82
989.162
891.407
788.885
676.087
544.229
384.453
199.394
)
;

boundaryField
{
    outletCentralUnloaded
    {
        type            zeroGradient;
    }
    inletCentralUnloaded
    {
        type            zeroGradient;
    }
    outletFuelElement
    {
        type            zeroGradient;
    }
    inletFuelElement
    {
        type            zeroGradient;
    }
    defaultFaces
    {
        type            zeroGradient;
    }
    baffle_master
    {
        type            zeroGradient;
    }
    baffle_slave
    {
        type            zeroGradient;
    }
}


// ************************************************************************* //
