/*--------------------------------*- C++ -*----------------------------------*\
| =========                 |                                                 |
| \\      /  F ield         | OpenFOAM: The Open Source CFD Toolbox           |
|  \\    /   O peration     | Version:  2212                                  |
|   \\  /    A nd           | Website:  www.openfoam.com                      |
|    \\/     M anipulation  |                                                 |
\*---------------------------------------------------------------------------*/
FoamFile
{
    version     2.0;
    format      ascii;
    arch        "LSB;label=32;scalar=64";
    class       volScalarField;
    location    "23/fluidRegion";
    object      Tco.nuclearFuelPin;
}
// * * * * * * * * * * * * * * * * * * * * * * * * * * * * * * * * * * * * * //

dimensions      [0 0 0 1 0 0 0];

internalField   nonuniform List<scalar> 
350
(
0
0
0
0
0
0
0
0
0
0
0
0
0
0
0
0
0
0
0
0
0
0
0
0
0
0
0
0
0
0
0
0
0
0
0
0
0
0
0
0
0
0
0
0
0
0
0
0
0
0
1682.34
1713.38
1732.18
1738.9
1733.81
1717.31
1689.95
1652.37
1605.37
1549.84
1486.77
1417.29
1342.59
1263.98
1182.8
1100.37
1017.88
936.149
855.304
774.312
690.242
597.325
486.539
348.772
186.286
1707.16
1738.77
1757.94
1764.81
1759.66
1742.9
1715.07
1676.85
1629.02
1572.5
1508.3
1437.54
1361.46
1281.36
1198.62
1114.6
1030.52
947.258
864.989
782.702
697.452
603.385
491.292
351.837
187.325
1678.29
1709.26
1728.02
1734.73
1729.66
1713.23
1685.95
1648.49
1601.63
1546.27
1483.39
1414.12
1339.66
1261.29
1180.35
1098.18
1015.94
934.447
853.826
773.037
689.154
596.42
485.837
348.323
186.128
1701.58
1733.05
1752.12
1758.94
1753.79
1737.08
1709.35
1671.26
1623.62
1567.31
1503.36
1432.89
1357.12
1277.36
1194.97
1111.31
1027.6
944.691
862.75
780.762
695.784
601.983
490.19
351.126
187.085
1701.58
1733.05
1752.12
1758.94
1753.79
1737.08
1709.35
1671.26
1623.62
1567.31
1503.36
1432.89
1357.12
1277.36
1194.97
1111.31
1027.6
944.691
862.75
780.762
695.784
601.983
490.19
351.126
187.085
1678.29
1709.26
1728.02
1734.73
1729.67
1713.23
1685.95
1648.49
1601.64
1546.27
1483.4
1414.12
1339.66
1261.29
1180.35
1098.18
1015.94
934.448
853.827
773.038
689.154
596.421
485.838
348.323
186.128
1707.16
1738.77
1757.94
1764.81
1759.66
1742.9
1715.07
1676.85
1629.02
1572.5
1508.3
1437.54
1361.46
1281.36
1198.62
1114.6
1030.52
947.258
864.989
782.702
697.452
603.386
491.292
351.837
187.325
1682.34
1713.38
1732.18
1738.9
1733.81
1717.31
1689.95
1652.37
1605.37
1549.84
1486.77
1417.29
1342.59
1263.98
1182.8
1100.37
1017.88
936.148
855.304
774.312
690.242
597.326
486.539
348.772
186.286
1701.58
1733.05
1752.12
1758.94
1753.79
1737.08
1709.35
1671.26
1623.62
1567.31
1503.36
1432.89
1357.12
1277.36
1194.97
1111.31
1027.6
944.691
862.75
780.762
695.784
601.983
490.19
351.126
187.085
1678.29
1709.26
1728.02
1734.73
1729.66
1713.23
1685.95
1648.49
1601.63
1546.27
1483.39
1414.12
1339.66
1261.29
1180.35
1098.18
1015.94
934.447
853.826
773.037
689.154
596.42
485.838
348.323
186.128
1678.29
1709.26
1728.02
1734.73
1729.67
1713.23
1685.95
1648.49
1601.64
1546.27
1483.4
1414.12
1339.66
1261.29
1180.35
1098.18
1015.94
934.448
853.827
773.038
689.154
596.421
485.838
348.324
186.128
1701.58
1733.05
1752.12
1758.94
1753.79
1737.08
1709.35
1671.26
1623.62
1567.31
1503.36
1432.89
1357.12
1277.36
1194.97
1111.31
1027.6
944.691
862.75
780.762
695.784
601.983
490.19
351.126
187.085
)
;

boundaryField
{
    outletCentralUnloaded
    {
        type            zeroGradient;
    }
    inletCentralUnloaded
    {
        type            zeroGradient;
    }
    outletFuelElement
    {
        type            zeroGradient;
    }
    inletFuelElement
    {
        type            zeroGradient;
    }
    defaultFaces
    {
        type            zeroGradient;
    }
    baffle_master
    {
        type            zeroGradient;
    }
    baffle_slave
    {
        type            zeroGradient;
    }
}


// ************************************************************************* //
