/*--------------------------------*- C++ -*----------------------------------*\
| =========                 |                                                 |
| \\      /  F ield         | OpenFOAM: The Open Source CFD Toolbox           |
|  \\    /   O peration     | Version:  2212                                  |
|   \\  /    A nd           | Website:  www.openfoam.com                      |
|    \\/     M anipulation  |                                                 |
\*---------------------------------------------------------------------------*/
FoamFile
{
    version     2.0;
    format      ascii;
    arch        "LSB;label=32;scalar=64";
    class       volScalarField;
    location    "23/fluidRegion";
    object      Tfi.nuclearFuelPin;
}
// * * * * * * * * * * * * * * * * * * * * * * * * * * * * * * * * * * * * * //

dimensions      [0 0 0 1 0 0 0];

internalField   nonuniform List<scalar> 
350
(
0
0
0
0
0
0
0
0
0
0
0
0
0
0
0
0
0
0
0
0
0
0
0
0
0
0
0
0
0
0
0
0
0
0
0
0
0
0
0
0
0
0
0
0
0
0
0
0
0
0
1830.16
2919.44
3974.48
4979
5917.49
6775.41
7539.5
8197.92
8740.48
9158.79
9446.4
9598.92
9614.06
9491.71
9233.86
8844.57
8329.8
7697.19
6955.7
6115.34
5186.32
4178.73
3102.09
1967.52
793.57
1852.62
2954.57
4021.85
5037.97
5987.25
6855
7627.79
8293.64
8842.25
9265.14
9555.79
9709.76
9724.73
9600.6
9339.4
8945.24
8424.18
7783.97
7033.7
6183.52
5243.73
4224.55
3135.54
1987.91
800.41
1826.51
2913.79
3966.89
4969.57
5906.35
6762.72
7525.43
8182.68
8724.28
9141.87
9429
9581.3
9596.48
9474.41
9217.1
8828.58
8314.81
7683.41
6943.31
6104.52
5177.21
4171.47
3096.79
1964.3
792.485
1847.54
2946.57
4011.02
5024.46
5971.25
6836.73
7607.5
8271.64
8818.85
9240.68
9530.62
9684.25
9699.26
9575.54
9315.1
8922.07
8402.45
7763.99
7015.74
6167.82
5230.51
4213.99
3127.83
1983.21
798.834
1847.54
2946.57
4011.02
5024.46
5971.25
6836.73
7607.5
8271.64
8818.85
9240.68
9530.62
9684.25
9699.26
9575.54
9315.1
8922.07
8402.45
7763.99
7015.74
6167.82
5230.51
4214
3127.84
1983.21
798.834
1826.51
2913.79
3966.89
4969.57
5906.35
6762.72
7525.43
8182.68
8724.28
9141.87
9429
9581.3
9596.48
9474.41
9217.1
8828.58
8314.81
7683.41
6943.32
6104.52
5177.21
4171.47
3096.79
1964.3
792.485
1852.62
2954.57
4021.85
5037.98
5987.25
6855
7627.79
8293.64
8842.25
9265.14
9555.79
9709.75
9724.73
9600.6
9339.4
8945.24
8424.18
7783.97
7033.7
6183.52
5243.73
4224.55
3135.54
1987.91
800.41
1830.16
2919.44
3974.48
4979.01
5917.49
6775.41
7539.5
8197.92
8740.48
9158.79
9446.4
9598.92
9614.06
9491.71
9233.86
8844.57
8329.8
7697.19
6955.7
6115.34
5186.32
4178.73
3102.09
1967.52
793.57
1847.54
2946.57
4011.02
5024.46
5971.25
6836.73
7607.5
8271.64
8818.85
9240.68
9530.62
9684.25
9699.26
9575.54
9315.1
8922.07
8402.45
7763.99
7015.74
6167.82
5230.51
4214
3127.84
1983.21
798.834
1826.51
2913.79
3966.89
4969.57
5906.35
6762.72
7525.43
8182.68
8724.28
9141.87
9429
9581.3
9596.48
9474.41
9217.1
8828.58
8314.81
7683.41
6943.31
6104.52
5177.21
4171.47
3096.79
1964.3
792.485
1826.51
2913.79
3966.89
4969.57
5906.35
6762.72
7525.43
8182.68
8724.28
9141.87
9429
9581.3
9596.48
9474.41
9217.1
8828.58
8314.81
7683.41
6943.32
6104.52
5177.21
4171.47
3096.79
1964.3
792.485
1847.54
2946.57
4011.02
5024.46
5971.25
6836.73
7607.5
8271.64
8818.85
9240.68
9530.62
9684.25
9699.26
9575.54
9315.1
8922.06
8402.45
7763.99
7015.74
6167.82
5230.51
4213.99
3127.84
1983.21
798.834
)
;

boundaryField
{
    outletCentralUnloaded
    {
        type            zeroGradient;
    }
    inletCentralUnloaded
    {
        type            zeroGradient;
    }
    outletFuelElement
    {
        type            zeroGradient;
    }
    inletFuelElement
    {
        type            zeroGradient;
    }
    defaultFaces
    {
        type            zeroGradient;
    }
    baffle_master
    {
        type            zeroGradient;
    }
    baffle_slave
    {
        type            zeroGradient;
    }
}


// ************************************************************************* //
