/*--------------------------------*- C++ -*----------------------------------*\
| =========                 |                                                 |
| \\      /  F ield         | OpenFOAM: The Open Source CFD Toolbox           |
|  \\    /   O peration     | Version:  2212                                  |
|   \\  /    A nd           | Website:  www.openfoam.com                      |
|    \\/     M anipulation  |                                                 |
\*---------------------------------------------------------------------------*/
FoamFile
{
    version     2.0;
    format      ascii;
    arch        "LSB;label=32;scalar=64";
    class       volScalarField;
    location    "23/fluidRegion";
    object      Tfo.nuclearFuelPin;
}
// * * * * * * * * * * * * * * * * * * * * * * * * * * * * * * * * * * * * * //

dimensions      [0 0 0 1 0 0 0];

internalField   nonuniform List<scalar> 
350
(
0
0
0
0
0
0
0
0
0
0
0
0
0
0
0
0
0
0
0
0
0
0
0
0
0
0
0
0
0
0
0
0
0
0
0
0
0
0
0
0
0
0
0
0
0
0
0
0
0
0
1740.72
2108.01
2455.93
2779.43
3073.78
3334.65
3558.2
3741.13
3880.75
3975.01
4022.57
4022.81
3975.83
3882.51
3744.4
3563.71
3343.17
3085.76
2794.41
2471.58
2118.47
1734.26
1315.73
860.125
374.905
1765.05
2136.76
2488.82
2816.11
3113.85
3377.65
3603.64
3788.48
3929.45
4024.48
4072.22
4072.03
4024.04
3929.11
3788.86
3605.53
3381.89
3121.01
2825.89
2499.04
2141.69
1753.01
1329.64
868.72
377.796
1736.75
2103.35
2450.63
2773.55
3067.37
3327.79
3550.96
3733.6
3873.02
3967.17
4014.71
4015.02
3968.21
3875.15
3737.38
3557.12
3337.07
3080.21
2789.46
2467.27
2114.82
1731.33
1313.57
858.791
374.451
1759.57
2130.25
2481.34
2807.75
3104.7
3367.82
3593.24
3777.63
3918.27
4013.12
4060.81
4060.71
4012.95
3918.39
3778.62
3595.9
3372.97
3112.88
2818.63
2492.71
2136.34
1748.68
1326.44
866.737
377.129
1759.57
2130.25
2481.34
2807.75
3104.7
3367.82
3593.24
3777.63
3918.27
4013.12
4060.81
4060.71
4012.95
3918.38
3778.62
3595.9
3372.97
3112.88
2818.63
2492.71
2136.34
1748.68
1326.44
866.736
377.129
1736.76
2103.35
2450.63
2773.55
3067.37
3327.79
3550.97
3733.6
3873.02
3967.17
4014.71
4015.02
3968.22
3875.15
3737.38
3557.12
3337.07
3080.21
2789.46
2467.27
2114.82
1731.33
1313.57
858.792
374.451
1765.05
2136.76
2488.82
2816.11
3113.85
3377.65
3603.64
3788.48
3929.45
4024.48
4072.22
4072.03
4024.04
3929.11
3788.86
3605.53
3381.89
3121.01
2825.89
2499.04
2141.69
1753.01
1329.65
868.72
377.796
1740.72
2108.01
2455.93
2779.43
3073.78
3334.65
3558.2
3741.13
3880.75
3975.01
4022.57
4022.81
3975.83
3882.51
3744.4
3563.71
3343.17
3085.76
2794.41
2471.58
2118.47
1734.26
1315.73
860.125
374.905
1759.57
2130.25
2481.34
2807.75
3104.7
3367.82
3593.24
3777.63
3918.27
4013.12
4060.81
4060.71
4012.95
3918.38
3778.62
3595.9
3372.97
3112.88
2818.63
2492.71
2136.34
1748.68
1326.44
866.737
377.129
1736.75
2103.35
2450.63
2773.55
3067.37
3327.79
3550.96
3733.6
3873.02
3967.17
4014.71
4015.02
3968.21
3875.14
3737.38
3557.12
3337.07
3080.21
2789.46
2467.27
2114.82
1731.33
1313.57
858.791
374.451
1736.76
2103.35
2450.63
2773.55
3067.37
3327.79
3550.97
3733.6
3873.02
3967.17
4014.71
4015.02
3968.22
3875.15
3737.38
3557.12
3337.07
3080.21
2789.46
2467.27
2114.82
1731.33
1313.57
858.792
374.451
1759.57
2130.25
2481.34
2807.75
3104.7
3367.82
3593.24
3777.63
3918.27
4013.12
4060.81
4060.71
4012.95
3918.38
3778.62
3595.9
3372.97
3112.88
2818.63
2492.71
2136.34
1748.68
1326.44
866.736
377.129
)
;

boundaryField
{
    outletCentralUnloaded
    {
        type            zeroGradient;
    }
    inletCentralUnloaded
    {
        type            zeroGradient;
    }
    outletFuelElement
    {
        type            zeroGradient;
    }
    inletFuelElement
    {
        type            zeroGradient;
    }
    defaultFaces
    {
        type            zeroGradient;
    }
    baffle_master
    {
        type            zeroGradient;
    }
    baffle_slave
    {
        type            zeroGradient;
    }
}


// ************************************************************************* //
