/*--------------------------------*- C++ -*----------------------------------*\
| =========                 |                                                 |
| \\      /  F ield         | OpenFOAM: The Open Source CFD Toolbox           |
|  \\    /   O peration     | Version:  2212                                  |
|   \\  /    A nd           | Website:  www.openfoam.com                      |
|    \\/     M anipulation  |                                                 |
\*---------------------------------------------------------------------------*/
FoamFile
{
    version     2.0;
    format      ascii;
    arch        "LSB;label=32;scalar=64";
    class       scalarFieldField;
    location    "23/fluidRegion";
    object      Trad.nuclearFuelPin;
}
// * * * * * * * * * * * * * * * * * * * * * * * * * * * * * * * * * * * * * //


350
(
0()
0()
0()
0()
0()
0()
0()
0()
0()
0()
0()
0()
0()
0()
0()
0()
0()
0()
0()
0()
0()
0()
0()
0()
0()
0()
0()
0()
0()
0()
0()
0()
0()
0()
0()
0()
0()
0()
0()
0()
0()
0()
0()
0()
0()
0()
0()
0()
0()
0()

20
(
1830.16
1829.94
1829.28
1828.14
1826.47
1824.22
1821.28
1817.56
1812.93
1807.25
1800.35
1792.05
1782.16
1770.46
1756.73
1740.72
1685.72
1684.55
1683.42
1682.34
)


20
(
2919.44
2916.11
2906.1
2889.36
2865.82
2835.37
2797.88
2753.18
2701.09
2641.37
2573.79
2498.09
2413.98
2321.14
2219.27
2108.01
1738.52
1729.85
1721.48
1713.38
)


20
(
3974.48
3968.1
3948.93
3916.9
3871.93
3813.85
3742.5
3657.65
3559.05
3446.4
3319.4
3177.68
3020.88
2848.6
2660.43
2455.93
1778.62
1762.62
1747.15
1732.18
)


20
(
4979
4969.68
4941.68
4894.92
4829.29
4744.6
4640.62
4517.08
4373.68
4210.05
4025.8
3820.5
3593.71
3344.93
3073.68
2779.43
1805.84
1782.78
1760.48
1738.9
)


20
(
5917.49
5905.38
5869.02
5808.33
5723.14
5613.25
5478.4
5318.26
5132.47
4920.6
4682.2
4416.77
4123.78
3802.67
3452.87
3073.78
1820.14
1790.4
1761.64
1733.81
)


20
(
6775.41
6760.72
6716.61
6642.99
6539.67
6406.42
6242.93
6048.85
5823.75
5567.16
5278.56
4957.38
4603.05
4214.91
3792.34
3334.65
1821.6
1785.68
1750.94
1717.31
)


20
(
7539.5
7522.47
7471.34
7385.99
7266.24
7111.82
6922.4
6697.57
6436.87
6139.78
5805.72
5434.08
5024.21
4575.42
4086.99
3558.2
1810.48
1768.97
1728.82
1689.95
)


20
(
8197.92
8178.83
8121.51
8025.85
7891.63
7718.57
7506.32
7254.42
6962.39
6629.66
6255.61
5839.58
5380.87
4878.73
4332.41
3741.13
1787.18
1740.76
1695.85
1652.37
)


20
(
8740.48
8719.64
8657.07
8552.66
8406.16
8217.29
7985.66
7710.81
7392.21
7029.26
6621.32
6167.67
5667.58
5120.27
4524.93
3880.75
1752.27
1701.68
1652.75
1605.37
)


20
(
9158.79
9136.54
9069.74
8958.27
8801.89
8600.28
8353.05
8059.72
7719.73
7332.46
6897.25
6413.35
5879.99
5296.37
4661.66
3975.01
1706.44
1652.51
1600.34
1549.84
)


20
(
9446.4
9423.1
9353.17
9236.45
9072.72
8861.65
8602.84
8295.78
7939.92
7534.62
7079.19
6572.88
6014.9
5404.42
4740.6
4022.57
1650.55
1594.15
1539.59
1486.77
)


20
(
9598.92
9574.95
9503.01
9382.94
9214.52
8997.42
8731.22
8415.42
8049.46
7632.69
7164.42
6643.89
6070.3
5442.83
4760.62
4022.81
1585.6
1527.64
1471.57
1417.29
)


20
(
9614.06
9589.82
9517.03
9395.57
9225.19
9005.57
8736.29
8416.87
8046.74
7625.25
7151.71
6625.38
6045.46
5411.13
4721.54
3975.83
1512.72
1454.13
1397.46
1342.59
)


20
(
9491.71
9467.58
9395.13
9274.24
9104.66
8886.09
8618.1
8300.23
7931.91
7512.52
7041.38
6517.76
5940.87
5309.93
4624.08
3882.51
1433.17
1374.91
1318.55
1263.98
)


20
(
9233.86
9210.23
9139.3
9020.94
8854.92
8640.93
8378.58
8067.41
7706.88
7296.38
6835.26
6322.81
5758.29
5140.91
4469.88
3744.4
1348.33
1291.33
1236.19
1182.8
)


20
(
8844.57
8821.83
8753.57
8639.66
8479.89
8273.96
8021.51
7722.09
7375.19
6980.24
6536.61
6043.64
5500.6
4906.78
4261.41
3563.71
1259.56
1204.74
1151.72
1100.37
)


20
(
8329.8
8308.32
8243.84
8136.23
7985.31
7790.8
7552.35
7269.54
6941.91
6568.92
6149.98
5684.47
5171.73
4611.07
4001.79
3343.17
1168.16
1116.41
1066.35
1017.88
)


20
(
7697.19
7677.31
7617.66
7518.12
7378.51
7198.57
6978
6716.42
6413.38
6068.41
5680.97
5250.48
4776.36
4257.96
3694.64
3085.76
1075.08
1027.24
980.96
936.149
)


20
(
6955.7
6937.76
6883.91
6794.05
6668.02
6505.6
6306.5
6070.39
5796.89
5485.55
5135.91
4747.45
4319.63
3851.9
3343.69
2794.41
980.633
937.476
895.729
855.304
)


20
(
6115.34
6099.63
6052.45
5973.73
5863.33
5721.06
5546.67
5339.87
5100.32
4827.67
4521.48
4181.34
3806.76
3397.27
2952.38
2471.58
884.009
846.235
809.695
774.312
)


20
(
5186.32
5173.08
5133.33
5067.02
4974.01
4854.16
4707.27
4533.09
4331.35
4101.74
3843.92
3557.54
3242.2
2897.52
2523.08
2118.47
782.547
750.762
720.015
690.242
)


20
(
4178.73
4168.16
4136.46
4083.56
4009.39
3913.8
3796.67
3657.79
3496.96
3313.94
3108.48
2880.29
2629.09
2354.56
2056.39
1734.26
670.799
645.498
621.024
597.325
)


20
(
3102.09
3094.35
3071.13
3032.39
2978.07
2908.09
2822.35
2720.73
2603.07
2469.23
2319.03
2152.28
1968.78
1768.34
1550.72
1315.73
540.122
521.67
503.821
486.539
)


20
(
1967.52
1962.7
1948.22
1924.07
1890.22
1846.63
1793.25
1730.03
1656.89
1573.76
1480.56
1377.19
1263.56
1139.58
1005.13
860.125
381.824
370.443
359.433
348.772
)


20
(
793.57
791.696
786.075
776.709
763.602
746.759
726.187
701.893
673.888
642.18
606.783
567.708
524.968
478.578
428.552
374.905
198.503
194.297
190.228
186.286
)


20
(
1852.62
1852.41
1851.78
1850.7
1849.12
1846.97
1844.15
1840.57
1836.09
1830.57
1823.84
1815.72
1806
1794.48
1780.91
1765.05
1710.5
1709.34
1708.22
1707.16
)


20
(
2954.57
2951.22
2941.13
2924.28
2900.57
2869.9
2832.14
2787.11
2734.62
2674.45
2606.35
2530.06
2445.27
2351.68
2248.96
2136.76
1764.12
1755.38
1746.94
1738.77
)


20
(
4021.85
4015.4
3996.06
3963.74
3918.35
3859.74
3787.73
3702.09
3602.56
3488.86
3360.65
3217.58
3059.27
2885.33
2695.32
2488.82
1804.83
1788.67
1773.05
1757.94
)


20
(
5037.97
5028.56
5000.28
4953.06
4886.78
4801.24
4696.23
4571.46
4426.62
4261.34
4075.23
3867.86
3638.75
3387.43
3113.4
2816.11
1832.44
1809.14
1786.61
1764.81
)


20
(
5987.25
5975.02
5938.29
5876.97
5790.91
5679.89
5543.65
5381.86
5194.14
4980.07
4739.19
4470.98
4174.92
3850.44
3496.95
3113.85
1846.9
1816.85
1787.79
1759.66
)


20
(
6855
6840.16
6795.59
6721.19
6616.78
6482.13
6316.92
6120.8
5893.32
5634.01
5342.35
5017.76
4659.65
4267.36
3840.26
3377.65
1848.3
1812
1776.89
1742.9
)


20
(
7627.79
7610.57
7558.9
7472.65
7351.62
7195.55
7004.11
6776.88
6513.39
6213.11
5875.47
5499.83
5085.54
4631.89
4138.17
3603.64
1836.91
1794.95
1754.36
1715.07
)


20
(
8293.64
8274.34
8216.41
8119.72
7984.06
7809.14
7594.59
7339.98
7044.79
6708.46
6330.36
5909.82
5446.12
4938.52
4386.23
3788.48
1813.13
1766.2
1720.8
1676.85
)


20
(
8842.25
8821.19
8757.95
8652.4
8504.32
8313.4
8079.26
7801.42
7479.35
7112.46
6700.06
6241.46
5735.9
5182.59
4580.71
3929.45
1777.54
1726.39
1676.92
1629.02
)


20
(
9265.14
9242.65
9175.13
9062.44
8904.36
8700.56
8450.63
8154.09
7810.38
7418.88
6978.89
6489.68
5950.47
5360.43
4718.72
4024.48
1730.83
1676.31
1623.57
1572.5
)


20
(
9555.79
9532.24
9461.54
9343.55
9178.03
8964.65
8703
8392.57
8032.81
7623.06
7162.61
6650.73
6086.59
5469.37
4798.2
4072.22
1673.89
1616.87
1561.71
1508.3
)


20
(
9709.76
9685.53
9612.79
9491.41
9321.14
9101.65
8832.52
8513.25
8143.26
7721.9
7248.46
6722.18
6142.24
5507.82
4818.04
4072.03
1607.72
1549.12
1492.43
1437.54
)


20
(
9724.73
9700.22
9626.63
9503.83
9331.58
9109.54
8837.29
8514.34
8140.12
7713.97
7235.2
6703.03
6116.68
5475.31
4778.05
4024.04
1533.48
1474.24
1416.94
1361.46
)


20
(
9600.6
9576.2
9502.96
9380.73
9209.28
8988.29
8717.34
8395.95
8023.56
7599.52
7123.15
6593.72
6010.42
5372.45
4678.96
3929.11
1452.44
1393.53
1336.54
1281.36
)


20
(
9339.4
9315.51
9243.79
9124.12
8956.26
8739.9
8474.65
8160.03
7795.49
7380.44
6914.2
6396.05
5825.23
5200.97
4522.45
3788.86
1365.99
1308.36
1252.6
1198.62
)


20
(
8945.24
8922.25
8853.23
8738.06
8576.52
8368.3
8113.05
7810.3
7459.55
7060.2
6611.63
6113.16
5564.07
4963.62
4311.03
3605.53
1275.57
1220.14
1166.52
1114.6
)


20
(
8424.18
8402.46
8337.27
8228.47
8075.87
7879.19
7638.09
7352.14
7020.86
6643.71
6220.09
5749.39
5230.92
4663.99
4047.89
3381.89
1182.48
1130.15
1079.53
1030.52
)


20
(
7783.97
7763.88
7703.56
7602.91
7461.75
7279.81
7056.78
6792.28
6485.87
6137.05
5745.28
5309.99
4830.55
4306.35
3736.72
3121.01
1087.75
1039.37
992.573
947.258
)


20
(
7033.7
7015.56
6961.11
6870.25
6742.82
6578.59
6377.28
6138.54
5861.98
5547.17
5193.62
4800.81
4368.21
3895.24
3381.33
2825.89
991.725
948.084
905.868
864.989
)


20
(
6183.52
6167.63
6119.93
6040.33
5928.7
5784.85
5608.51
5399.41
5157.2
4881.5
4571.9
4227.95
3849.19
3435.11
2985.23
2499.04
893.63
855.432
818.482
782.702
)


20
(
5243.73
5230.35
5190.16
5123.11
5029.07
4907.9
4759.37
4583.26
4379.27
4147.11
3886.42
3596.85
3278
2929.46
2550.83
2141.69
790.791
758.65
727.558
697.452
)


20
(
4224.55
4213.87
4181.82
4128.34
4053.35
3956.71
3838.28
3697.88
3535.27
3350.23
3142.5
2911.78
2657.79
2380.21
2078.72
1753.01
677.678
652.095
627.348
603.385
)


20
(
3135.54
3127.72
3104.25
3065.09
3010.18
2939.45
2852.78
2750.05
2631.11
2495.81
2343.97
2175.39
1989.89
1787.24
1567.23
1329.64
545.466
526.811
508.765
491.292
)


20
(
1987.91
1983.03
1968.4
1944
1909.79
1865.75
1811.81
1747.92
1674.01
1590
1495.81
1391.34
1276.5
1151.18
1015.29
868.72
385.246
373.742
362.614
351.837
)


20
(
800.41
798.519
792.847
783.396
770.171
753.174
732.414
707.898
679.634
647.632
611.903
572.459
529.312
482.477
431.967
377.796
199.662
195.414
191.305
187.325
)


20
(
1826.51
1826.29
1825.62
1824.47
1822.79
1820.52
1817.57
1813.82
1809.17
1803.45
1796.52
1788.2
1778.28
1766.55
1752.79
1736.75
1681.68
1680.5
1679.37
1678.29
)


20
(
2913.79
2910.46
2900.46
2883.74
2860.22
2829.81
2792.36
2747.72
2695.68
2636.03
2568.54
2492.93
2408.92
2316.21
2214.46
2103.35
1734.37
1725.71
1717.34
1709.26
)


20
(
3966.89
3960.51
3941.37
3909.39
3864.48
3806.49
3735.25
3650.52
3552.06
3439.59
3312.77
3171.27
3014.71
2842.69
2654.81
2450.63
1774.39
1758.41
1742.96
1728.02
)


20
(
4969.57
4960.26
4932.3
4885.62
4820.09
4735.53
4631.72
4508.38
4365.21
4201.84
4017.88
3812.92
3586.49
3338.12
3067.31
2773.55
1801.56
1778.54
1756.28
1734.73
)


20
(
5906.35
5894.26
5857.96
5797.36
5712.32
5602.61
5467.98
5308.11
5122.62
4911.1
4673.09
4408.1
4115.6
3795.04
3445.82
3067.37
1815.85
1786.16
1757.45
1729.66
)


20
(
6762.72
6748.05
6704.02
6630.51
6527.37
6394.34
6231.13
6037.37
5812.65
5556.49
5268.38
4947.75
4594.01
4206.54
3784.69
3327.79
1817.33
1781.48
1746.8
1713.23
)


20
(
7525.43
7508.43
7457.39
7372.19
7252.64
7098.48
6909.38
6684.93
6424.67
6128.09
5794.61
5423.61
5014.44
4566.42
4078.84
3550.96
1806.27
1764.83
1724.75
1685.95
)


20
(
8182.68
8163.62
8106.4
8010.9
7876.92
7704.16
7492.26
7240.8
6949.27
6617.11
6243.71
5828.4
5370.48
4869.22
4323.85
3733.6
1783.07
1736.72
1691.89
1648.49
)


20
(
8724.28
8703.48
8641.02
8536.78
8390.54
8202
7970.77
7696.4
7378.35
7016.03
6608.79
6155.94
5656.72
5110.36
4516.07
3873.02
1748.28
1697.78
1648.93
1601.63
)


20
(
9141.87
9119.66
9052.98
8941.7
8785.59
8584.34
8337.54
8044.71
7705.31
7318.73
6884.27
6401.22
5868.8
5286.2
4652.61
3967.17
1702.6
1648.76
1596.69
1546.27
)


20
(
9429
9405.75
9335.93
9219.42
9055.98
8845.28
8586.92
8280.4
7925.16
7520.57
7065.94
6560.52
6003.52
5394.12
4731.47
4014.71
1646.89
1590.59
1536.12
1483.39
)


20
(
9581.3
9557.37
9485.56
9365.71
9197.58
8980.86
8715.12
8399.88
8034.56
7618.53
7151.08
6631.47
6058.89
5432.53
4751.53
4015.02
1582.14
1524.28
1468.31
1414.12
)


20
(
9596.48
9572.27
9499.62
9378.37
9208.29
8989.05
8720.25
8401.39
8031.91
7611.16
7138.46
6613.06
6034.17
5400.96
4712.6
3968.21
1509.48
1451
1394.43
1339.66
)


20
(
9474.41
9450.32
9378
9257.32
9088.05
8869.85
8602.34
8285.03
7917.36
7498.72
7028.41
6505.72
5929.85
5300.03
4615.4
3875.15
1430.18
1372.02
1315.76
1261.29
)


20
(
9217.1
9193.51
9122.71
9004.55
8838.82
8625.21
8363.33
8052.71
7692.81
7283.05
6822.74
6311.21
5747.69
5131.41
4461.57
3737.38
1345.58
1288.69
1233.65
1180.35
)


20
(
8828.58
8805.88
8737.74
8624.03
8464.55
8258.98
8006.98
7708.09
7361.81
6967.56
6524.72
6032.62
5490.55
4897.79
4253.56
3557.12
1257.08
1202.37
1149.43
1098.18
)


20
(
8314.81
8293.37
8229
8121.59
7970.94
7776.77
7538.74
7256.44
6929.39
6557.06
6138.86
5674.18
5162.36
4602.7
3994.51
3337.07
1165.95
1114.29
1064.32
1015.94
)


20
(
7683.41
7663.57
7604.02
7504.66
7365.29
7185.68
6965.5
6704.38
6401.88
6057.53
5670.77
5241.06
4767.78
4250.31
3688
3080.21
1073.13
1025.37
979.179
934.447
)


20
(
6943.31
6925.41
6871.65
6781.95
6656.15
6494.01
6295.27
6059.59
5786.57
5475.78
5126.76
4739
4311.95
3845.06
3337.75
2789.46
978.93
935.851
894.178
853.826
)


20
(
6104.52
6088.84
6041.74
5963.17
5852.96
5710.94
5536.86
5330.43
5091.31
4819.14
4513.5
4173.96
3800.05
3391.3
2947.2
2467.27
882.538
844.832
808.356
773.037
)


20
(
5177.21
5164
5124.32
5058.12
4965.28
4845.65
4699.01
4525.14
4323.76
4094.55
3837.2
3551.32
3236.55
2892.48
2518.71
2114.82
781.293
749.565
718.873
689.154
)


20
(
4171.47
4160.92
4129.28
4076.47
4002.42
3907.01
3790.08
3651.45
3490.9
3308.21
3103.11
2875.32
2624.56
2350.52
2052.88
1731.33
669.763
644.507
620.076
596.42
)


20
(
3096.79
3089.07
3065.89
3027.22
2972.99
2903.14
2817.54
2716.1
2598.65
2465.04
2315.1
2148.64
1965.47
1765.37
1548.14
1313.57
539.326
520.907
503.09
485.837
)


20
(
1964.3
1959.48
1945.03
1920.92
1887.13
1843.61
1790.32
1727.21
1654.19
1571.2
1478.16
1374.97
1261.53
1137.76
1003.55
858.791
381.318
369.956
358.966
348.323
)


20
(
792.485
790.614
785.001
775.649
762.561
745.742
725.2
700.942
672.978
641.318
605.973
566.957
524.282
477.963
428.014
374.451
198.326
194.127
190.064
186.128
)


20
(
1847.54
1847.33
1846.69
1845.6
1844
1841.82
1838.98
1835.37
1830.86
1825.3
1818.54
1810.38
1800.63
1789.06
1775.46
1759.57
1704.93
1703.76
1702.65
1701.58
)


20
(
2946.57
2943.22
2933.15
2916.32
2892.65
2862.04
2824.34
2779.39
2726.99
2666.93
2598.95
2522.8
2438.17
2344.75
2242.23
2130.25
1758.35
1749.63
1741.2
1733.05
)


20
(
4011.02
4004.59
3985.28
3953.03
3907.74
3849.25
3777.39
3691.94
3592.63
3479.17
3351.24
3208.48
3050.53
2876.97
2687.38
2481.34
1798.91
1782.78
1767.2
1752.12
)


20
(
5024.46
5015.07
4986.85
4939.74
4873.61
4788.27
4683.5
4559.01
4414.5
4249.61
4063.93
3857.03
3628.46
3377.73
3104.34
2807.75
1826.41
1803.17
1780.69
1758.94
)


20
(
5971.25
5959.05
5922.4
5861.23
5775.37
5664.61
5528.69
5367.28
5180
4966.44
4726.13
4458.57
4163.22
3839.52
3486.88
3104.7
1840.82
1810.84
1781.85
1753.79
)


20
(
6836.73
6821.92
6777.46
6703.23
6599.08
6464.75
6299.94
6104.28
5877.35
5618.67
5327.72
5003.92
4646.68
4255.35
3829.29
3367.82
1842.22
1806.01
1770.98
1737.08
)


20
(
7607.5
7590.33
7538.78
7452.74
7332.01
7176.32
6985.34
6758.66
6495.82
6196.27
5859.46
5484.75
5071.47
4618.94
4126.44
3593.24
1830.88
1789.03
1748.54
1709.35
)


20
(
8271.64
8252.39
8194.6
8098.14
7962.82
7788.33
7574.31
7320.32
7025.86
6690.36
6313.19
5893.69
5431.14
4924.79
4373.88
3777.63
1807.21
1760.39
1715.11
1671.26
)


20
(
8818.85
8797.84
8734.75
8629.46
8481.75
8291.3
8057.74
7780.59
7459.32
7093.33
6681.96
6224.51
5720.2
5168.27
4567.91
3918.27
1771.76
1720.74
1671.39
1623.62
)


20
(
9240.68
9218.24
9150.89
9038.48
8880.79
8677.49
8428.19
8132.39
7789.54
7399.01
6960.12
6472.13
5934.27
5345.7
4705.61
4013.12
1725.25
1670.86
1618.25
1567.31
)


20
(
9530.62
9507.13
9436.61
9318.91
9153.8
8940.95
8679.95
8370.31
8011.44
7602.71
7143.43
6632.82
6070.1
5454.43
4784.96
4060.81
1668.54
1611.66
1556.63
1503.36
)


20
(
9684.25
9660.08
9587.53
9466.45
9296.61
9077.67
8809.21
8490.74
8121.68
7701.37
7229.12
6704.16
6125.69
5492.87
4804.84
4060.71
1602.64
1544.18
1487.64
1432.89
)


20
(
9699.26
9674.81
9601.41
9478.92
9307.09
9085.61
8814.05
8491.91
8118.63
7693.55
7215.98
6685.16
6100.29
5460.54
4765.04
4012.95
1528.7
1469.62
1412.46
1357.12
)


20
(
9575.54
9551.2
9478.14
9356.22
9185.2
8964.76
8694.5
8373.92
8002.46
7579.49
7104.33
6576.23
5994.41
5358.06
4666.33
3918.39
1448
1389.24
1332.4
1277.36
)


20
(
9315.1
9291.27
9219.74
9100.37
8932.93
8717.12
8452.53
8138.7
7775.09
7361.09
6896.02
6379.18
5809.82
5187.14
4510.35
3778.62
1361.92
1304.43
1248.82
1194.97
)


20
(
8922.07
8899.13
8830.29
8715.4
8554.27
8346.58
8091.97
7789.99
7440.12
7041.79
6594.36
6097.15
5549.46
4950.53
4299.6
3595.9
1271.88
1216.59
1163.1
1111.31
)


20
(
8402.45
8380.79
8315.75
8207.23
8055.02
7858.84
7618.35
7333.12
7002.68
6626.48
6203.95
5734.44
5217.29
4651.8
4037.27
3372.97
1179.18
1126.98
1076.49
1027.6
)


20
(
7763.99
7743.95
7683.78
7583.39
7442.58
7261.1
7038.64
6774.81
6469.18
6121.24
5730.47
5296.28
4818.07
4295.2
3727.03
3112.88
1084.82
1036.57
989.89
944.691
)


20
(
7015.74
6997.65
6943.33
6852.7
6725.6
6561.78
6360.98
6122.85
5846.99
5532.98
5180.33
4788.52
4357.02
3885.26
3372.66
2818.63
989.162
945.633
903.524
862.75
)


20
(
6167.82
6151.97
6104.39
6025
5913.65
5770.16
5594.27
5385.7
5144.1
4869.1
4560.29
4217.21
3839.41
3426.4
2977.66
2492.71
891.407
853.307
816.45
780.762
)


20
(
5230.51
5217.16
5177.07
5110.19
5016.39
4895.52
4747.37
4571.7
4368.23
4136.66
3876.63
3587.79
3269.75
2922.1
2544.44
2136.34
788.885
756.826
725.814
695.784
)


20
(
4213.99
4203.34
4171.37
4118.03
4043.22
3946.83
3828.7
3688.64
3526.45
3341.88
3134.66
2904.53
2651.18
2374.3
2073.57
1748.68
676.087
650.569
625.884
601.983
)


20
(
3127.83
3120.03
3096.62
3057.56
3002.79
2932.23
2845.77
2743.29
2624.65
2489.69
2338.22
2170.07
1985.02
1782.88
1563.42
1326.44
544.229
525.621
507.62
490.19
)


20
(
1983.21
1978.35
1963.75
1939.41
1905.28
1861.34
1807.53
1743.8
1670.07
1586.26
1492.29
1388.08
1273.52
1148.51
1012.95
866.737
384.453
372.977
361.876
351.126
)


20
(
798.834
796.947
791.287
781.856
768.658
751.697
730.98
706.515
678.31
646.376
610.723
571.364
528.311
481.579
431.18
377.129
199.394
195.156
191.056
187.085
)


20
(
1847.54
1847.33
1846.69
1845.6
1844
1841.82
1838.98
1835.37
1830.86
1825.3
1818.54
1810.38
1800.63
1789.06
1775.46
1759.57
1704.93
1703.76
1702.65
1701.58
)


20
(
2946.57
2943.22
2933.15
2916.32
2892.65
2862.04
2824.34
2779.39
2726.99
2666.93
2598.95
2522.8
2438.17
2344.75
2242.23
2130.25
1758.35
1749.63
1741.2
1733.05
)


20
(
4011.02
4004.59
3985.28
3953.03
3907.74
3849.25
3777.39
3691.94
3592.63
3479.17
3351.24
3208.48
3050.53
2876.97
2687.38
2481.34
1798.91
1782.78
1767.2
1752.12
)


20
(
5024.46
5015.07
4986.85
4939.74
4873.61
4788.27
4683.5
4559.01
4414.5
4249.61
4063.93
3857.03
3628.46
3377.73
3104.34
2807.75
1826.41
1803.17
1780.69
1758.94
)


20
(
5971.25
5959.04
5922.4
5861.23
5775.37
5664.61
5528.69
5367.28
5180
4966.44
4726.13
4458.57
4163.22
3839.52
3486.88
3104.7
1840.82
1810.84
1781.85
1753.79
)


20
(
6836.73
6821.92
6777.46
6703.23
6599.08
6464.75
6299.94
6104.28
5877.35
5618.67
5327.72
5003.92
4646.68
4255.35
3829.29
3367.82
1842.22
1806.01
1770.98
1737.08
)


20
(
7607.5
7590.33
7538.78
7452.74
7332.01
7176.32
6985.34
6758.66
6495.82
6196.27
5859.46
5484.75
5071.47
4618.94
4126.44
3593.24
1830.88
1789.03
1748.54
1709.35
)


20
(
8271.64
8252.39
8194.6
8098.14
7962.82
7788.32
7574.31
7320.32
7025.86
6690.36
6313.19
5893.69
5431.14
4924.79
4373.88
3777.63
1807.21
1760.39
1715.11
1671.26
)


20
(
8818.85
8797.84
8734.75
8629.46
8481.75
8291.3
8057.74
7780.59
7459.32
7093.33
6681.96
6224.51
5720.2
5168.27
4567.91
3918.27
1771.76
1720.74
1671.39
1623.62
)


20
(
9240.68
9218.24
9150.89
9038.48
8880.79
8677.49
8428.19
8132.39
7789.54
7399.01
6960.12
6472.13
5934.27
5345.7
4705.61
4013.12
1725.25
1670.86
1618.25
1567.31
)


20
(
9530.62
9507.13
9436.61
9318.91
9153.8
8940.95
8679.95
8370.31
8011.44
7602.71
7143.43
6632.82
6070.1
5454.43
4784.96
4060.81
1668.54
1611.66
1556.63
1503.36
)


20
(
9684.25
9660.08
9587.53
9466.45
9296.61
9077.67
8809.21
8490.74
8121.68
7701.37
7229.12
6704.16
6125.69
5492.87
4804.84
4060.71
1602.64
1544.18
1487.64
1432.89
)


20
(
9699.26
9674.81
9601.41
9478.91
9307.09
9085.61
8814.05
8491.91
8118.63
7693.55
7215.98
6685.16
6100.29
5460.54
4765.04
4012.95
1528.7
1469.62
1412.46
1357.12
)


20
(
9575.54
9551.2
9478.14
9356.22
9185.2
8964.76
8694.5
8373.92
8002.46
7579.49
7104.33
6576.23
5994.41
5358.06
4666.33
3918.38
1448
1389.24
1332.4
1277.36
)


20
(
9315.1
9291.27
9219.74
9100.37
8932.93
8717.12
8452.53
8138.7
7775.09
7361.09
6896.02
6379.18
5809.82
5187.14
4510.35
3778.62
1361.92
1304.43
1248.82
1194.97
)


20
(
8922.07
8899.13
8830.29
8715.4
8554.27
8346.58
8091.97
7789.99
7440.12
7041.79
6594.36
6097.15
5549.46
4950.53
4299.6
3595.9
1271.88
1216.59
1163.1
1111.31
)


20
(
8402.45
8380.79
8315.75
8207.23
8055.02
7858.84
7618.35
7333.12
7002.68
6626.48
6203.95
5734.44
5217.29
4651.8
4037.27
3372.97
1179.18
1126.98
1076.49
1027.6
)


20
(
7763.99
7743.95
7683.78
7583.39
7442.58
7261.1
7038.64
6774.81
6469.18
6121.24
5730.47
5296.28
4818.07
4295.2
3727.03
3112.88
1084.82
1036.57
989.89
944.691
)


20
(
7015.74
6997.65
6943.33
6852.7
6725.6
6561.78
6360.98
6122.85
5846.99
5532.98
5180.33
4788.52
4357.02
3885.26
3372.66
2818.63
989.162
945.633
903.524
862.75
)


20
(
6167.82
6151.97
6104.39
6025
5913.65
5770.16
5594.27
5385.7
5144.1
4869.1
4560.29
4217.21
3839.41
3426.4
2977.66
2492.71
891.407
853.306
816.45
780.762
)


20
(
5230.51
5217.16
5177.07
5110.19
5016.39
4895.52
4747.37
4571.7
4368.23
4136.66
3876.63
3587.79
3269.75
2922.1
2544.44
2136.34
788.885
756.826
725.813
695.784
)


20
(
4214
4203.34
4171.37
4118.03
4043.22
3946.83
3828.7
3688.64
3526.45
3341.88
3134.66
2904.53
2651.18
2374.3
2073.57
1748.68
676.087
650.569
625.885
601.983
)


20
(
3127.84
3120.03
3096.62
3057.56
3002.79
2932.23
2845.77
2743.29
2624.65
2489.69
2338.22
2170.07
1985.02
1782.88
1563.42
1326.44
544.229
525.621
507.62
490.19
)


20
(
1983.21
1978.35
1963.75
1939.41
1905.28
1861.34
1807.53
1743.8
1670.07
1586.26
1492.29
1388.08
1273.52
1148.51
1012.95
866.736
384.453
372.977
361.876
351.126
)


20
(
798.834
796.948
791.287
781.856
768.658
751.697
730.98
706.515
678.31
646.376
610.723
571.364
528.311
481.579
431.18
377.129
199.394
195.156
191.056
187.085
)


20
(
1826.51
1826.29
1825.62
1824.47
1822.79
1820.52
1817.57
1813.82
1809.17
1803.45
1796.52
1788.2
1778.28
1766.55
1752.79
1736.76
1681.68
1680.5
1679.37
1678.29
)


20
(
2913.79
2910.46
2900.46
2883.74
2860.22
2829.81
2792.36
2747.72
2695.68
2636.03
2568.54
2492.93
2408.92
2316.21
2214.46
2103.35
1734.37
1725.71
1717.35
1709.26
)


20
(
3966.89
3960.51
3941.37
3909.39
3864.48
3806.49
3735.25
3650.52
3552.07
3439.59
3312.77
3171.27
3014.71
2842.69
2654.81
2450.63
1774.39
1758.41
1742.96
1728.02
)


20
(
4969.57
4960.26
4932.31
4885.63
4820.09
4735.54
4631.72
4508.38
4365.21
4201.84
4017.88
3812.92
3586.49
3338.12
3067.31
2773.55
1801.57
1778.54
1756.28
1734.73
)


20
(
5906.35
5894.26
5857.96
5797.36
5712.32
5602.61
5467.98
5308.11
5122.62
4911.1
4673.09
4408.1
4115.6
3795.04
3445.82
3067.37
1815.85
1786.16
1757.45
1729.67
)


20
(
6762.72
6748.05
6704.02
6630.51
6527.37
6394.34
6231.13
6037.37
5812.65
5556.49
5268.38
4947.75
4594.02
4206.54
3784.69
3327.79
1817.33
1781.48
1746.8
1713.23
)


20
(
7525.43
7508.43
7457.39
7372.19
7252.64
7098.48
6909.38
6684.93
6424.68
6128.09
5794.61
5423.61
5014.44
4566.42
4078.84
3550.97
1806.27
1764.83
1724.75
1685.95
)


20
(
8182.68
8163.62
8106.4
8010.9
7876.92
7704.16
7492.26
7240.8
6949.27
6617.11
6243.71
5828.4
5370.48
4869.22
4323.85
3733.6
1783.07
1736.72
1691.89
1648.49
)


20
(
8724.28
8703.48
8641.02
8536.78
8390.55
8202
7970.77
7696.4
7378.35
7016.03
6608.79
6155.94
5656.72
5110.36
4516.07
3873.02
1748.28
1697.78
1648.93
1601.64
)


20
(
9141.87
9119.66
9052.98
8941.7
8785.59
8584.34
8337.54
8044.71
7705.32
7318.73
6884.27
6401.22
5868.8
5286.2
4652.61
3967.17
1702.6
1648.76
1596.69
1546.27
)


20
(
9429
9405.75
9335.93
9219.42
9055.98
8845.28
8586.92
8280.4
7925.16
7520.57
7065.94
6560.52
6003.52
5394.12
4731.47
4014.71
1646.89
1590.59
1536.13
1483.4
)


20
(
9581.3
9557.37
9485.56
9365.71
9197.58
8980.86
8715.12
8399.88
8034.56
7618.53
7151.08
6631.47
6058.89
5432.53
4751.53
4015.02
1582.14
1524.28
1468.31
1414.12
)


20
(
9596.48
9572.27
9499.62
9378.37
9208.29
8989.05
8720.25
8401.39
8031.91
7611.16
7138.46
6613.06
6034.17
5400.96
4712.6
3968.22
1509.48
1451
1394.43
1339.66
)


20
(
9474.41
9450.32
9378
9257.32
9088.05
8869.85
8602.34
8285.03
7917.36
7498.72
7028.41
6505.72
5929.85
5300.03
4615.4
3875.15
1430.18
1372.02
1315.76
1261.29
)


20
(
9217.1
9193.51
9122.71
9004.55
8838.82
8625.21
8363.33
8052.71
7692.82
7283.05
6822.75
6311.21
5747.69
5131.41
4461.57
3737.38
1345.59
1288.69
1233.65
1180.35
)


20
(
8828.58
8805.88
8737.74
8624.04
8464.55
8258.99
8006.98
7708.09
7361.81
6967.56
6524.72
6032.62
5490.55
4897.79
4253.57
3557.12
1257.09
1202.37
1149.43
1098.18
)


20
(
8314.81
8293.37
8229
8121.59
7970.94
7776.77
7538.74
7256.44
6929.39
6557.06
6138.86
5674.18
5162.36
4602.7
3994.51
3337.07
1165.95
1114.29
1064.33
1015.94
)


20
(
7683.41
7663.57
7604.02
7504.66
7365.29
7185.68
6965.5
6704.38
6401.88
6057.53
5670.78
5241.06
4767.78
4250.31
3688
3080.21
1073.13
1025.38
979.18
934.448
)


20
(
6943.32
6925.41
6871.65
6781.95
6656.15
6494.01
6295.27
6059.59
5786.57
5475.79
5126.76
4739
4311.95
3845.06
3337.75
2789.46
978.931
935.852
894.179
853.827
)


20
(
6104.52
6088.84
6041.74
5963.17
5852.96
5710.94
5536.86
5330.43
5091.31
4819.14
4513.5
4173.96
3800.05
3391.3
2947.2
2467.27
882.539
844.832
808.357
773.038
)


20
(
5177.21
5164
5124.32
5058.12
4965.28
4845.64
4699.01
4525.14
4323.76
4094.55
3837.2
3551.32
3236.55
2892.48
2518.71
2114.82
781.294
749.566
718.874
689.154
)


20
(
4171.47
4160.92
4129.28
4076.47
4002.42
3907.01
3790.08
3651.45
3490.9
3308.21
3103.11
2875.33
2624.57
2350.52
2052.88
1731.33
669.763
644.508
620.077
596.421
)


20
(
3096.79
3089.07
3065.89
3027.22
2972.99
2903.14
2817.55
2716.1
2598.65
2465.04
2315.1
2148.64
1965.47
1765.37
1548.14
1313.57
539.327
520.908
503.091
485.838
)


20
(
1964.3
1959.48
1945.03
1920.92
1887.13
1843.61
1790.32
1727.21
1654.19
1571.2
1478.16
1374.97
1261.53
1137.76
1003.55
858.792
381.318
369.957
358.966
348.323
)


20
(
792.485
790.614
785.001
775.649
762.561
745.743
725.2
700.943
672.978
641.318
605.974
566.957
524.282
477.963
428.014
374.451
198.327
194.127
190.064
186.128
)


20
(
1852.62
1852.41
1851.78
1850.7
1849.12
1846.97
1844.15
1840.57
1836.09
1830.57
1823.84
1815.72
1806
1794.48
1780.91
1765.05
1710.5
1709.34
1708.22
1707.16
)


20
(
2954.57
2951.22
2941.13
2924.28
2900.57
2869.9
2832.14
2787.11
2734.62
2674.45
2606.35
2530.06
2445.27
2351.68
2248.96
2136.76
1764.12
1755.38
1746.94
1738.77
)


20
(
4021.85
4015.41
3996.06
3963.74
3918.35
3859.74
3787.73
3702.09
3602.56
3488.86
3360.65
3217.58
3059.27
2885.33
2695.32
2488.82
1804.83
1788.67
1773.05
1757.94
)


20
(
5037.98
5028.56
5000.28
4953.06
4886.78
4801.24
4696.23
4571.46
4426.62
4261.34
4075.23
3867.86
3638.75
3387.44
3113.4
2816.11
1832.44
1809.14
1786.61
1764.81
)


20
(
5987.25
5975.02
5938.29
5876.97
5790.91
5679.89
5543.65
5381.86
5194.14
4980.07
4739.19
4470.98
4174.92
3850.44
3496.95
3113.85
1846.9
1816.85
1787.79
1759.66
)


20
(
6855
6840.16
6795.59
6721.19
6616.78
6482.13
6316.92
6120.8
5893.32
5634.01
5342.35
5017.76
4659.65
4267.36
3840.26
3377.65
1848.3
1812
1776.89
1742.9
)


20
(
7627.79
7610.57
7558.9
7472.65
7351.62
7195.55
7004.11
6776.88
6513.39
6213.11
5875.47
5499.83
5085.54
4631.89
4138.17
3603.64
1836.91
1794.95
1754.36
1715.07
)


20
(
8293.64
8274.34
8216.41
8119.72
7984.06
7809.14
7594.59
7339.98
7044.79
6708.46
6330.36
5909.82
5446.12
4938.52
4386.23
3788.48
1813.13
1766.2
1720.8
1676.85
)


20
(
8842.25
8821.19
8757.95
8652.4
8504.32
8313.4
8079.26
7801.42
7479.35
7112.46
6700.06
6241.46
5735.9
5182.59
4580.71
3929.45
1777.54
1726.39
1676.92
1629.02
)


20
(
9265.14
9242.65
9175.13
9062.44
8904.36
8700.56
8450.63
8154.09
7810.38
7418.88
6978.89
6489.68
5950.47
5360.43
4718.72
4024.48
1730.83
1676.31
1623.57
1572.5
)


20
(
9555.79
9532.24
9461.54
9343.55
9178.03
8964.65
8703
8392.57
8032.81
7623.06
7162.61
6650.72
6086.59
5469.37
4798.2
4072.22
1673.89
1616.87
1561.71
1508.3
)


20
(
9709.75
9685.52
9612.79
9491.41
9321.14
9101.65
8832.52
8513.25
8143.26
7721.9
7248.46
6722.17
6142.24
5507.82
4818.04
4072.03
1607.72
1549.12
1492.43
1437.54
)


20
(
9724.73
9700.22
9626.63
9503.83
9331.58
9109.53
8837.29
8514.34
8140.12
7713.97
7235.19
6703.03
6116.68
5475.3
4778.05
4024.04
1533.48
1474.24
1416.94
1361.46
)


20
(
9600.6
9576.2
9502.96
9380.73
9209.28
8988.29
8717.34
8395.95
8023.55
7599.52
7123.15
6593.72
6010.42
5372.45
4678.96
3929.11
1452.44
1393.53
1336.54
1281.36
)


20
(
9339.4
9315.51
9243.79
9124.12
8956.26
8739.9
8474.65
8160.03
7795.49
7380.44
6914.19
6396.05
5825.23
5200.97
4522.45
3788.86
1365.99
1308.36
1252.6
1198.62
)


20
(
8945.24
8922.25
8853.23
8738.06
8576.52
8368.3
8113.05
7810.3
7459.55
7060.2
6611.63
6113.16
5564.07
4963.62
4311.03
3605.53
1275.57
1220.14
1166.52
1114.6
)


20
(
8424.18
8402.46
8337.27
8228.47
8075.87
7879.19
7638.09
7352.14
7020.86
6643.71
6220.09
5749.39
5230.92
4663.99
4047.89
3381.89
1182.48
1130.15
1079.53
1030.52
)


20
(
7783.97
7763.88
7703.56
7602.91
7461.75
7279.81
7056.78
6792.28
6485.87
6137.05
5745.28
5309.99
4830.55
4306.35
3736.72
3121.01
1087.75
1039.37
992.573
947.258
)


20
(
7033.7
7015.56
6961.11
6870.25
6742.82
6578.59
6377.28
6138.54
5861.98
5547.17
5193.62
4800.81
4368.21
3895.24
3381.33
2825.89
991.725
948.084
905.868
864.989
)


20
(
6183.52
6167.63
6119.93
6040.33
5928.7
5784.85
5608.51
5399.41
5157.2
4881.5
4571.9
4227.95
3849.19
3435.11
2985.23
2499.04
893.63
855.432
818.482
782.702
)


20
(
5243.73
5230.35
5190.16
5123.11
5029.07
4907.9
4759.37
4583.26
4379.27
4147.11
3886.42
3596.85
3278
2929.46
2550.83
2141.69
790.791
758.65
727.558
697.452
)


20
(
4224.55
4213.87
4181.82
4128.34
4053.35
3956.71
3838.29
3697.88
3535.27
3350.24
3142.5
2911.78
2657.79
2380.21
2078.72
1753.01
677.678
652.095
627.348
603.386
)


20
(
3135.54
3127.72
3104.25
3065.09
3010.18
2939.45
2852.78
2750.05
2631.11
2495.81
2343.97
2175.4
1989.89
1787.24
1567.23
1329.65
545.467
526.811
508.765
491.292
)


20
(
1987.91
1983.03
1968.4
1944
1909.79
1865.75
1811.81
1747.92
1674.01
1590
1495.81
1391.34
1276.5
1151.18
1015.29
868.72