/*--------------------------------*- C++ -*----------------------------------*\
| =========                 |                                                 |
| \\      /  F ield         | OpenFOAM: The Open Source CFD Toolbox           |
|  \\    /   O peration     | Version:  2212                                  |
|   \\  /    A nd           | Website:  www.openfoam.com                      |
|    \\/     M anipulation  |                                                 |
\*---------------------------------------------------------------------------*/
FoamFile
{
    version     2.0;
    format      ascii;
    arch        "LSB;label=32;scalar=64";
    class       volScalarField;
    location    "26/fluidRegion";
    object      alphat;
}
// * * * * * * * * * * * * * * * * * * * * * * * * * * * * * * * * * * * * * //

dimensions      [1 -1 -1 0 0 0 0];

internalField   nonuniform List<scalar> 
350
(
0.0025851
0.0025851
0.00258511
0.00258511
0.00258511
0.00258511
0.00258512
0.00258512
0.00258513
0.00258515
0.00258517
0.00258521
0.00258527
0.00258536
0.00258549
0.00258569
0.00258601
0.00258648
0.00258721
0.00258833
0.00259003
0.00259263
0.0025966
0.00260268
0.00261196
0.0025851
0.0025851
0.00258511
0.00258511
0.00258511
0.00258511
0.00258512
0.00258512
0.00258513
0.00258515
0.00258517
0.00258521
0.00258527
0.00258536
0.00258549
0.00258569
0.00258601
0.00258648
0.00258721
0.00258833
0.00259003
0.00259263
0.0025966
0.00260268
0.00261196
0.000891018
0.000878991
0.000867325
0.000855536
0.000843519
0.000831166
0.000818376
0.000805054
0.000791122
0.000776521
0.000761225
0.000745243
0.000728615
0.000711404
0.000693681
0.000675543
0.000657186
0.000639109
0.000622559
0.000610435
0.000609113
0.000631597
0.000699312
0.000827987
0.000992534
0.000883421
0.000871401
0.000859761
0.000848007
0.000836032
0.00082373
0.000810997
0.00079774
0.000783876
0.00076935
0.000754137
0.000738251
0.000721741
0.00070468
0.000687152
0.000669259
0.000651194
0.000633445
0.000617237
0.000605447
0.000604442
0.00062727
0.000695573
0.000825478
0.000991864
0.000892233
0.000880195
0.00086852
0.000856722
0.000844692
0.000832327
0.000819523
0.000806187
0.000792239
0.000777621
0.000762307
0.000746304
0.000729652
0.00071241
0.000694649
0.000676466
0.000658056
0.00063992
0.000623307
0.00061112
0.000609737
0.000632158
0.000699789
0.000828312
0.000992654
0.000885166
0.000873148
0.000861505
0.000849746
0.000837763
0.000825451
0.000812707
0.000799436
0.000785557
0.000771014
0.000755782
0.000739874
0.000723336
0.000706239
0.000688666
0.000670716
0.000652584
0.000634759
0.000618471
0.000606603
0.000605525
0.000628274
0.000696442
0.000826063
0.00099202
0.000885166
0.000873148
0.000861505
0.000849746
0.000837763
0.000825451
0.000812707
0.000799436
0.000785557
0.000771014
0.000755782
0.000739874
0.000723336
0.000706239
0.000688666
0.000670716
0.000652583
0.000634759
0.000618471
0.000606603
0.000605525
0.000628274
0.000696442
0.000826063
0.000992021
0.000892233
0.000880195
0.00086852
0.000856721
0.000844692
0.000832326
0.000819522
0.000806186
0.000792238
0.000777621
0.000762307
0.000746304
0.000729651
0.000712409
0.000694649
0.000676465
0.000658055
0.000639919
0.000623306
0.000611118
0.000609735
0.000632156
0.000699787
0.00082831
0.000992654
0.000883421
0.000871401
0.000859761
0.000848007
0.000836032
0.00082373
0.000810997
0.00079774
0.000783876
0.00076935
0.000754137
0.000738251
0.000721741
0.00070468
0.000687152
0.000669259
0.000651194
0.000633445
0.000617237
0.000605447
0.000604442
0.00062727
0.000695573
0.000825478
0.000991864
0.000891018
0.000878991
0.000867325
0.000855537
0.000843519
0.000831166
0.000818376
0.000805054
0.000791122
0.000776521
0.000761226
0.000745244
0.000728616
0.000711404
0.000693681
0.000675543
0.000657186
0.000639109
0.000622558
0.000610434
0.000609111
0.000631594
0.000699307
0.00082798
0.000992524
0.000885166
0.000873148
0.000861505
0.000849746
0.000837763
0.000825451
0.000812707
0.000799436
0.000785557
0.000771014
0.000755782
0.000739874
0.000723336
0.000706239
0.000688665
0.000670716
0.000652583
0.000634759
0.000618471
0.000606603
0.000605525
0.000628274
0.000696441
0.000826061
0.000992018
0.000892233
0.000880195
0.00086852
0.000856722
0.000844692
0.000832327
0.000819523
0.000806187
0.000792239
0.000777621
0.000762307
0.000746305
0.000729652
0.00071241
0.000694649
0.000676466
0.000658056
0.000639921
0.000623307
0.000611121
0.000609739
0.000632161
0.000699794
0.00082832
0.000992665
0.000892233
0.000880195
0.00086852
0.000856721
0.000844692
0.000832326
0.000819523
0.000806186
0.000792238
0.000777621
0.000762307
0.000746304
0.000729651
0.000712409
0.000694649
0.000676465
0.000658055
0.000639919
0.000623305
0.000611118
0.000609735
0.000632156
0.000699786
0.000828309
0.000992654
0.000885166
0.000873148
0.000861505
0.000849746
0.000837763
0.000825451
0.000812707
0.000799436
0.000785557
0.000771015
0.000755782
0.000739874
0.000723336
0.000706239
0.000688665
0.000670715
0.000652583
0.000634758
0.00061847
0.000606602
0.000605523
0.00062827
0.000696435
0.000826052
0.000992007
)
;

boundaryField
{
    outletCentralUnloaded
    {
        type            zeroGradient;
    }
    inletCentralUnloaded
    {
        type            zeroGradient;
    }
    outletFuelElement
    {
        type            zeroGradient;
    }
    inletFuelElement
    {
        type            zeroGradient;
    }
    defaultFaces
    {
        type            zeroGradient;
    }
    baffle_master
    {
        type            calculated;
        value           nonuniform List<scalar> 
150
(
0.0025851
0.0025851
0.0025851
0.0025851
0.0025851
0.0025851
0.00258511
0.00258511
0.00258511
0.00258511
0.00258511
0.00258511
0.00258511
0.00258511
0.00258511
0.00258511
0.00258511
0.00258511
0.00258512
0.00258512
0.00258512
0.00258512
0.00258512
0.00258512
0.00258513
0.00258513
0.00258513
0.00258515
0.00258515
0.00258515
0.00258517
0.00258517
0.00258517
0.00258521
0.00258521
0.00258521
0.00258527
0.00258527
0.00258527
0.00258536
0.00258536
0.00258536
0.00258549
0.00258549
0.00258549
0.00258569
0.00258569
0.00258569
0.00258601
0.00258601
0.00258601
0.00258648
0.00258648
0.00258648
0.00258721
0.00258721
0.00258721
0.00258833
0.00258833
0.00258833
0.00259003
0.00259003
0.00259003
0.00259263
0.00259263
0.00259263
0.0025966
0.0025966
0.0025966
0.00260268
0.00260268
0.00260268
0.00261196
0.00261196
0.00261196
0.0025851
0.0025851
0.0025851
0.0025851
0.0025851
0.0025851
0.00258511
0.00258511
0.00258511
0.00258511
0.00258511
0.00258511
0.00258511
0.00258511
0.00258511
0.00258511
0.00258511
0.00258511
0.00258512
0.00258512
0.00258512
0.00258512
0.00258512
0.00258512
0.00258513
0.00258513
0.00258513
0.00258515
0.00258515
0.00258515
0.00258517
0.00258517
0.00258517
0.00258521
0.00258521
0.00258521
0.00258527
0.00258527
0.00258527
0.00258536
0.00258536
0.00258536
0.00258549
0.00258549
0.00258549
0.00258569
0.00258569
0.00258569
0.00258601
0.00258601
0.00258601
0.00258648
0.00258648
0.00258648
0.00258721
0.00258721
0.00258721
0.00258833
0.00258833
0.00258833
0.00259003
0.00259003
0.00259003
0.00259263
0.00259263
0.00259263
0.0025966
0.0025966
0.0025966
0.00260268
0.00260268
0.00260268
0.00261196
0.00261196
0.00261196
)
;
    }
    baffle_slave
    {
        type            calculated;
        value           nonuniform List<scalar> 
150
(
0.000883421
0.000885166
0.000885166
0.000871401
0.000873148
0.000873148
0.000859761
0.000861505
0.000861505
0.000848007
0.000849746
0.000849746
0.000836032
0.000837763
0.000837763
0.00082373
0.000825451
0.000825451
0.000810997
0.000812707
0.000812707
0.00079774
0.000799436
0.000799436
0.000783876
0.000785557
0.000785557
0.00076935
0.000771014
0.000771015
0.000754137
0.000755782
0.000755782
0.000738251
0.000739874
0.000739874
0.000721741
0.000723336
0.000723336
0.00070468
0.000706239
0.000706239
0.000687152
0.000688666
0.000688665
0.000669259
0.000670716
0.000670715
0.000651194
0.000652584
0.000652583
0.000633445
0.000634759
0.000634758
0.000617237
0.000618471
0.00061847
0.000605447
0.000606603
0.000606602
0.000604442
0.000605525
0.000605523
0.00062727
0.000628274
0.00062827
0.000695573
0.000696442
0.000696435
0.000825478
0.000826063
0.000826052
0.000991864
0.00099202
0.000992007
0.000885166
0.000883421
0.000885166
0.000873148
0.000871401
0.000873148
0.000861505
0.000859761
0.000861505
0.000849746
0.000848007
0.000849746
0.000837763
0.000836032
0.000837763
0.000825451
0.00082373
0.000825451
0.000812707
0.000810997
0.000812707
0.000799436
0.00079774
0.000799436
0.000785557
0.000783876
0.000785557
0.000771014
0.00076935
0.000771014
0.000755782
0.000754137
0.000755782
0.000739874
0.000738251
0.000739874
0.000723336
0.000721741
0.000723336
0.000706239
0.00070468
0.000706239
0.000688666
0.000687152
0.000688665
0.000670716
0.000669259
0.000670716
0.000652583
0.000651194
0.000652583
0.000634759
0.000633445
0.000634759
0.000618471
0.000617237
0.000618471
0.000606603
0.000605447
0.000606603
0.000605525
0.000604442
0.000605525
0.000628274
0.00062727
0.000628274
0.000696442
0.000695573
0.000696441
0.000826063
0.000825478
0.000826061
0.000992021
0.000991864
0.000992018
)
;
    }
}


// ************************************************************************* //
