/*--------------------------------*- C++ -*----------------------------------*\
| =========                 |                                                 |
| \\      /  F ield         | OpenFOAM: The Open Source CFD Toolbox           |
|  \\    /   O peration     | Version:  2212                                  |
|   \\  /    A nd           | Website:  www.openfoam.com                      |
|    \\/     M anipulation  |                                                 |
\*---------------------------------------------------------------------------*/
FoamFile
{
    version     2.0;
    format      ascii;
    arch        "LSB;label=32;scalar=64";
    class       volScalarField;
    location    "26/fluidRegion";
    object      epsilon;
}
// * * * * * * * * * * * * * * * * * * * * * * * * * * * * * * * * * * * * * //

dimensions      [0 2 -3 0 0 0 0];

internalField   nonuniform List<scalar> 
350
(
66.9408
66.9242
66.9077
66.8912
66.8747
66.8583
66.8419
66.8256
66.8095
66.7935
66.7779
66.7627
66.7483
66.735
66.7233
66.7142
66.709
66.7098
66.7196
66.7435
66.7886
66.8663
66.9937
67.1971
67.5165
66.9408
66.9242
66.9077
66.8912
66.8747
66.8583
66.8419
66.8256
66.8095
66.7935
66.7779
66.7627
66.7483
66.735
66.7233
66.7142
66.709
66.7098
66.7196
66.7435
66.7886
66.8663
66.9937
67.1971
67.5165
6.49109e+06
6.00941e+06
5.4651e+06
4.87352e+06
4.25932e+06
3.64555e+06
3.05263e+06
2.49751e+06
1.99325e+06
1.54879e+06
1.16895e+06
854720
603636
410412
267664
166781
98840.7
55429.8
29254.4
14465.2
6708.57
2975.92
1352.84
733.151
550.085
6.62802e+06
6.13756e+06
5.58315e+06
4.98003e+06
4.35342e+06
3.72691e+06
3.12137e+06
2.5542e+06
2.03879e+06
1.58431e+06
1.19579e+06
874268
617312
419554
273470
170264
100800
56453.3
29744.8
14676.7
6788.57
3001.46
1359.39
734.498
550.494
6.46861e+06
5.98834e+06
5.44578e+06
4.85616e+06
4.24404e+06
3.63239e+06
3.04154e+06
2.4884e+06
1.98597e+06
1.54313e+06
1.16469e+06
851621
601474
408970
266748
166231
98531
55267.1
29175.6
14430.5
6694.86
2971.12
1351.33
732.695
549.926
6.59771e+06
6.10913e+06
5.55689e+06
4.95628e+06
4.33239e+06
3.70868e+06
3.10594e+06
2.54145e+06
2.02852e+06
1.57629e+06
1.18971e+06
869833
614203
417472
272145
169468
100352
56219.2
29632.6
14628.4
6770.34
2995.68
1357.94
734.218
550.415
6.59771e+06
6.10913e+06
5.55689e+06
4.95628e+06
4.33239e+06
3.70868e+06
3.10594e+06
2.54145e+06
2.02852e+06
1.57629e+06
1.18971e+06
869833
614203
417472
272145
169468
100352
56219.2
29632.6
14628.4
6770.34
2995.68
1357.94
734.218
550.416
6.46862e+06
5.98835e+06
5.44579e+06
4.85617e+06
4.24404e+06
3.6324e+06
3.04155e+06
2.48841e+06
1.98597e+06
1.54313e+06
1.16469e+06
851622
601475
408970
266748
166232
98531.1
55267.2
29175.6
14430.4
6694.85
2971.11
1351.33
732.691
549.924
6.62802e+06
6.13756e+06
5.58315e+06
4.98003e+06
4.35342e+06
3.72691e+06
3.12137e+06
2.5542e+06
2.03879e+06
1.58431e+06
1.19579e+06
874268
617312
419554
273470
170264
100800
56453.3
29744.8
14676.7
6788.57
3001.46
1359.39
734.498
550.495
6.49109e+06
6.00941e+06
5.4651e+06
4.87352e+06
4.25932e+06
3.64555e+06
3.05263e+06
2.49751e+06
1.99325e+06
1.54879e+06
1.16895e+06
854720
603636
410412
267664
166781
98840.7
55429.8
29254.4
14465.2
6708.56
2975.91
1352.83
733.144
550.079
6.59771e+06
6.10913e+06
5.55689e+06
4.95628e+06
4.33239e+06
3.70868e+06
3.10594e+06
2.54145e+06
2.02852e+06
1.57629e+06
1.18971e+06
869833
614203
417472
272145
169468
100352
56219.2
29632.6
14628.4
6770.34
2995.68
1357.94
734.216
550.414
6.46861e+06
5.98834e+06
5.44578e+06
4.85616e+06
4.24404e+06
3.63239e+06
3.04154e+06
2.4884e+06
1.98597e+06
1.54313e+06
1.16469e+06
851621
601474
408970
266748
166231
98531.1
55267.2
29175.6
14430.5
6694.87
2971.13
1351.34
732.703
549.934
6.46862e+06
5.98835e+06
5.44579e+06
4.85617e+06
4.24404e+06
3.6324e+06
3.04155e+06
2.48841e+06
1.98597e+06
1.54313e+06
1.16469e+06
851622
601475
408970
266748
166232
98531.1
55267.1
29175.6
14430.4
6694.84
2971.11
1351.33
732.691
549.924
6.59771e+06
6.10913e+06
5.55689e+06
4.95628e+06
4.33239e+06
3.70869e+06
3.10594e+06
2.54145e+06
2.02852e+06
1.57629e+06
1.18971e+06
869833
614203
417472
272145
169468
100352
56219.2
29632.6
14628.3
6770.32
2995.66
1357.93
734.208
550.406
)
;

boundaryField
{
    outletCentralUnloaded
    {
        type            zeroGradient;
    }
    inletCentralUnloaded
    {
        type            zeroGradient;
    }
    outletFuelElement
    {
        type            zeroGradient;
    }
    inletFuelElement
    {
        type            zeroGradient;
    }
    defaultFaces
    {
        type            zeroGradient;
    }
    baffle_master
    {
        type            zeroGradient;
    }
    baffle_slave
    {
        type            zeroGradient;
    }
}


// ************************************************************************* //
