/*--------------------------------*- C++ -*----------------------------------*\
| =========                 |                                                 |
| \\      /  F ield         | OpenFOAM: The Open Source CFD Toolbox           |
|  \\    /   O peration     | Version:  2212                                  |
|   \\  /    A nd           | Website:  www.openfoam.com                      |
|    \\/     M anipulation  |                                                 |
\*---------------------------------------------------------------------------*/
FoamFile
{
    version     2.0;
    format      ascii;
    arch        "LSB;label=32;scalar=64";
    class       volScalarField;
    location    "26/fluidRegion";
    object      heatFlux.structure;
}
// * * * * * * * * * * * * * * * * * * * * * * * * * * * * * * * * * * * * * //

dimensions      [1 0 -3 0 0 0 0];

internalField   nonuniform List<scalar> 
350
(
-258258
-258261
-258264
-258267
-258269
-258272
-258275
-258278
-258281
-258284
-258287
-258290
-258293
-258296
-258298
-258301
-258304
-258307
-258310
-258313
-258316
-258318
-258321
-258324
-258781
-258258
-258261
-258264
-258267
-258269
-258272
-258275
-258278
-258281
-258284
-258287
-258290
-258293
-258296
-258298
-258301
-258304
-258307
-258310
-258313
-258316
-258318
-258321
-258324
-258781
220663
1.07954e+06
1.91946e+06
2.72716e+06
3.4899e+06
4.19566e+06
4.83332e+06
5.39284e+06
5.86543e+06
6.24364e+06
6.52157e+06
6.69485e+06
6.76079e+06
6.71836e+06
6.56825e+06
6.31279e+06
5.95597e+06
5.50339e+06
4.96218e+06
4.34117e+06
3.65061e+06
2.90272e+06
2.11163e+06
1.29305e+06
460458
220991
1.08971e+06
1.93927e+06
2.75625e+06
3.52777e+06
4.24166e+06
4.88669e+06
5.45269e+06
5.93077e+06
6.3134e+06
6.5946e+06
6.76996e+06
6.83676e+06
6.79396e+06
6.64224e+06
6.38399e+06
6.02322e+06
5.56558e+06
5.0183e+06
4.39027e+06
3.69186e+06
2.93543e+06
2.13527e+06
1.30733e+06
465242
220617
1.07792e+06
1.9163e+06
2.72252e+06
3.48386e+06
4.18833e+06
4.82481e+06
5.3833e+06
5.85501e+06
6.23252e+06
6.50992e+06
6.68287e+06
6.74867e+06
6.70631e+06
6.55645e+06
6.30143e+06
5.94525e+06
5.49347e+06
4.95323e+06
4.33334e+06
3.64403e+06
2.8975e+06
2.10786e+06
1.29076e+06
459694
220891
1.08735e+06
1.93469e+06
2.74953e+06
3.51904e+06
4.23106e+06
4.8744e+06
5.43891e+06
5.91572e+06
6.29734e+06
6.57779e+06
6.75267e+06
6.81927e+06
6.77656e+06
6.62521e+06
6.3676e+06
6.00774e+06
5.55127e+06
5.00539e+06
4.37897e+06
3.68237e+06
2.9279e+06
2.12983e+06
1.30404e+06
464141
220891
1.08735e+06
1.93469e+06
2.74953e+06
3.51904e+06
4.23106e+06
4.8744e+06
5.43891e+06
5.91572e+06
6.29734e+06
6.57778e+06
6.75267e+06
6.81927e+06
6.77656e+06
6.62521e+06
6.3676e+06
6.00774e+06
5.55127e+06
5.00539e+06
4.37897e+06
3.68237e+06
2.9279e+06
2.12983e+06
1.30404e+06
464141
220617
1.07792e+06
1.9163e+06
2.72252e+06
3.48386e+06
4.18833e+06
4.82481e+06
5.3833e+06
5.85501e+06
6.23252e+06
6.50992e+06
6.68287e+06
6.74867e+06
6.70631e+06
6.55645e+06
6.30143e+06
5.94525e+06
5.49347e+06
4.95323e+06
4.33333e+06
3.64403e+06
2.8975e+06
2.10786e+06
1.29076e+06
459695
220991
1.08971e+06
1.93927e+06
2.75625e+06
3.52777e+06
4.24166e+06
4.88669e+06
5.45269e+06
5.93077e+06
6.3134e+06
6.5946e+06
6.76996e+06
6.83676e+06
6.79396e+06
6.64224e+06
6.38399e+06
6.02322e+06
5.56558e+06
5.0183e+06
4.39027e+06
3.69186e+06
2.93543e+06
2.13527e+06
1.30733e+06
465242
220663
1.07954e+06
1.91946e+06
2.72716e+06
3.4899e+06
4.19566e+06
4.83332e+06
5.39284e+06
5.86543e+06
6.24364e+06
6.52157e+06
6.69485e+06
6.76079e+06
6.71836e+06
6.56825e+06
6.31279e+06
5.95597e+06
5.50339e+06
4.96219e+06
4.34117e+06
3.65061e+06
2.90272e+06
2.11163e+06
1.29305e+06
460458
220891
1.08735e+06
1.93469e+06
2.74953e+06
3.51904e+06
4.23106e+06
4.8744e+06
5.43891e+06
5.91572e+06
6.29734e+06
6.57778e+06
6.75267e+06
6.81927e+06
6.77656e+06
6.62521e+06
6.3676e+06
6.00774e+06
5.55127e+06
5.00539e+06
4.37897e+06
3.68237e+06
2.9279e+06
2.12983e+06
1.30404e+06
464141
220617
1.07792e+06
1.9163e+06
2.72252e+06
3.48386e+06
4.18833e+06
4.82481e+06
5.3833e+06
5.85501e+06
6.23252e+06
6.50992e+06
6.68287e+06
6.74867e+06
6.70631e+06
6.55645e+06
6.30143e+06
5.94525e+06
5.49347e+06
4.95323e+06
4.33334e+06
3.64403e+06
2.8975e+06
2.10786e+06
1.29076e+06
459695
220617
1.07792e+06
1.9163e+06
2.72252e+06
3.48386e+06
4.18833e+06
4.82481e+06
5.3833e+06
5.85501e+06
6.23252e+06
6.50992e+06
6.68287e+06
6.74867e+06
6.70631e+06
6.55645e+06
6.30143e+06
5.94525e+06
5.49347e+06
4.95323e+06
4.33333e+06
3.64403e+06
2.8975e+06
2.10786e+06
1.29076e+06
459694
220891
1.08735e+06
1.93469e+06
2.74953e+06
3.51904e+06
4.23106e+06
4.87439e+06
5.43891e+06
5.91572e+06
6.29734e+06
6.57778e+06
6.75267e+06
6.81927e+06
6.77656e+06
6.62521e+06
6.3676e+06
6.00774e+06
5.55127e+06
5.00539e+06
4.37897e+06
3.68237e+06
2.9279e+06
2.12983e+06
1.30404e+06
464141
)
;

boundaryField
{
    outletCentralUnloaded
    {
        type            zeroGradient;
    }
    inletCentralUnloaded
    {
        type            zeroGradient;
    }
    outletFuelElement
    {
        type            zeroGradient;
    }
    inletFuelElement
    {
        type            zeroGradient;
    }
    defaultFaces
    {
        type            zeroGradient;
    }
    baffle_master
    {
        type            zeroGradient;
    }
    baffle_slave
    {
        type            zeroGradient;
    }
}


// ************************************************************************* //
