/*--------------------------------*- C++ -*----------------------------------*\
| =========                 |                                                 |
| \\      /  F ield         | OpenFOAM: The Open Source CFD Toolbox           |
|  \\    /   O peration     | Version:  2212                                  |
|   \\  /    A nd           | Website:  www.openfoam.com                      |
|    \\/     M anipulation  |                                                 |
\*---------------------------------------------------------------------------*/
FoamFile
{
    version     2.0;
    format      ascii;
    arch        "LSB;label=32;scalar=64";
    class       volScalarField;
    location    "26/fluidRegion";
    object      nut;
}
// * * * * * * * * * * * * * * * * * * * * * * * * * * * * * * * * * * * * * //

dimensions      [0 2 -1 0 0 0 0];

internalField   nonuniform List<scalar> 
350
(
0.000537482
0.000537437
0.000537393
0.000537349
0.000537305
0.000537261
0.000537217
0.000537173
0.00053713
0.000537087
0.000537045
0.000537004
0.000536965
0.000536929
0.000536897
0.000536872
0.000536856
0.000536856
0.000536878
0.000536937
0.000537049
0.000537244
0.000537565
0.00053808
0.000539547
0.000537482
0.000537437
0.000537393
0.000537349
0.000537305
0.000537261
0.000537217
0.000537173
0.00053713
0.000537087
0.000537045
0.000537004
0.000536965
0.000536929
0.000536897
0.000536872
0.000536856
0.000536856
0.000536878
0.000536937
0.000537049
0.000537244
0.000537565
0.00053808
0.000539547
0.00983119
0.00964461
0.00940913
0.00911747
0.00877436
0.00838482
0.00795408
0.00748754
0.00699079
0.00646967
0.00593035
0.00537941
0.00482397
0.00427172
0.00373075
0.00320928
0.00271514
0.00225541
0.00183612
0.00146238
0.00113878
0.000869712
0.000659236
0.000509616
0.000416439
0.00989306
0.00970568
0.00946953
0.00917668
0.00883197
0.00844044
0.00800734
0.00753809
0.00703831
0.00651387
0.00597094
0.00541616
0.00485668
0.00430026
0.00375508
0.00322947
0.00273139
0.00226802
0.00184547
0.00146892
0.00114298
0.000872094
0.000660341
0.000509971
0.000416503
0.00982113
0.00963455
0.00939925
0.00910781
0.00876499
0.00837581
0.00794548
0.0074794
0.00698316
0.0064626
0.00592387
0.00537355
0.00481877
0.00426719
0.00372689
0.00320607
0.00271255
0.00225339
0.0018346
0.00146129
0.00113804
0.000869252
0.000658971
0.000509476
0.000416394
0.00987937
0.00969217
0.00945612
0.00916351
0.00881913
0.00842802
0.00799542
0.00752675
0.00702763
0.00650391
0.00596178
0.00540785
0.00484927
0.00429378
0.00374955
0.00322487
0.00272769
0.00226515
0.00184334
0.00146743
0.00114203
0.000871558
0.000660098
0.0005099
0.000416494
0.00987937
0.00969217
0.00945612
0.00916351
0.00881913
0.00842802
0.00799542
0.00752675
0.00702763
0.00650391
0.00596178
0.00540785
0.00484927
0.00429378
0.00374955
0.00322487
0.00272769
0.00226515
0.00184334
0.00146743
0.00114203
0.000871558
0.000660098
0.0005099
0.000416494
0.00982114
0.00963456
0.00939925
0.00910781
0.00876499
0.00837581
0.00794548
0.0074794
0.00698316
0.0064626
0.00592387
0.00537356
0.00481878
0.00426719
0.00372689
0.00320607
0.00271255
0.00225339
0.0018346
0.00146129
0.00113804
0.000869251
0.00065897
0.000509475
0.000416393
0.00989306
0.00970568
0.00946953
0.00917668
0.00883197
0.00844044
0.00800734
0.00753809
0.00703831
0.00651387
0.00597094
0.00541616
0.00485668
0.00430026
0.00375508
0.00322947
0.00273139
0.00226802
0.00184547
0.00146892
0.00114298
0.000872094
0.000660341
0.000509971
0.000416503
0.00983119
0.00964461
0.00940913
0.00911747
0.00877436
0.00838482
0.00795408
0.00748754
0.00699079
0.00646967
0.00593035
0.00537941
0.00482397
0.00427172
0.00373075
0.00320928
0.00271514
0.00225541
0.00183612
0.00146238
0.00113878
0.000869712
0.000659235
0.000509615
0.000416438
0.00987937
0.00969217
0.00945612
0.00916351
0.00881913
0.00842802
0.00799542
0.00752675
0.00702763
0.00650391
0.00596178
0.00540785
0.00484927
0.00429378
0.00374955
0.00322487
0.00272769
0.00226515
0.00184334
0.00146743
0.00114203
0.000871558
0.000660098
0.0005099
0.000416494
0.00982113
0.00963455
0.00939925
0.00910781
0.00876499
0.00837581
0.00794548
0.0074794
0.00698316
0.0064626
0.00592387
0.00537356
0.00481878
0.00426719
0.00372689
0.00320607
0.00271255
0.00225339
0.0018346
0.00146129
0.00113804
0.000869252
0.000658972
0.000509477
0.000416395
0.00982114
0.00963456
0.00939925
0.00910781
0.00876499
0.00837581
0.00794548
0.0074794
0.00698316
0.0064626
0.00592387
0.00537356
0.00481878
0.00426719
0.00372689
0.00320607
0.00271255
0.00225339
0.0018346
0.00146129
0.00113804
0.000869251
0.000658969
0.000509475
0.000416393
0.00987937
0.00969217
0.00945612
0.00916351
0.00881913
0.00842802
0.00799542
0.00752675
0.00702763
0.00650391
0.00596178
0.00540785
0.00484927
0.00429378
0.00374955
0.00322487
0.00272769
0.00226515
0.00184334
0.00146743
0.00114203
0.000871557
0.000660097
0.000509899
0.000416493
)
;

boundaryField
{
    outletCentralUnloaded
    {
        type            zeroGradient;
    }
    inletCentralUnloaded
    {
        type            zeroGradient;
    }
    outletFuelElement
    {
        type            zeroGradient;
    }
    inletFuelElement
    {
        type            zeroGradient;
    }
    defaultFaces
    {
        type            zeroGradient;
    }
    baffle_master
    {
        type            calculated;
        value           nonuniform List<scalar> 
150
(
0.000537482
0.000537482
0.000537482
0.000537437
0.000537437
0.000537437
0.000537393
0.000537393
0.000537393
0.000537349
0.000537349
0.000537349
0.000537305
0.000537305
0.000537305
0.000537261
0.000537261
0.000537261
0.000537217
0.000537217
0.000537217
0.000537173
0.000537173
0.000537173
0.00053713
0.00053713
0.00053713
0.000537087
0.000537087
0.000537087
0.000537045
0.000537045
0.000537045
0.000537004
0.000537004
0.000537004
0.000536965
0.000536965
0.000536965
0.000536929
0.000536929
0.000536929
0.000536897
0.000536897
0.000536897
0.000536872
0.000536872
0.000536872
0.000536856
0.000536856
0.000536856
0.000536856
0.000536856
0.000536856
0.000536878
0.000536878
0.000536878
0.000536937
0.000536937
0.000536937
0.000537049
0.000537049
0.000537049
0.000537244
0.000537244
0.000537244
0.000537565
0.000537565
0.000537565
0.00053808
0.00053808
0.00053808
0.000539547
0.000539547
0.000539547
0.000537482
0.000537482
0.000537482
0.000537437
0.000537437
0.000537437
0.000537393
0.000537393
0.000537393
0.000537349
0.000537349
0.000537349
0.000537305
0.000537305
0.000537305
0.000537261
0.000537261
0.000537261
0.000537217
0.000537217
0.000537217
0.000537173
0.000537173
0.000537173
0.00053713
0.00053713
0.00053713
0.000537087
0.000537087
0.000537087
0.000537045
0.000537045
0.000537045
0.000537004
0.000537004
0.000537004
0.000536965
0.000536965
0.000536965
0.000536929
0.000536929
0.000536929
0.000536897
0.000536897
0.000536897
0.000536872
0.000536872
0.000536872
0.000536856
0.000536856
0.000536856
0.000536856
0.000536856
0.000536856
0.000536878
0.000536878
0.000536878
0.000536937
0.000536937
0.000536937
0.000537049
0.000537049
0.000537049
0.000537244
0.000537244
0.000537244
0.000537565
0.000537565
0.000537565
0.00053808
0.00053808
0.00053808
0.000539547
0.000539547
0.000539547
)
;
    }
    baffle_slave
    {
        type            calculated;
        value           nonuniform List<scalar> 
150
(
0.00989306
0.00987937
0.00987937
0.00970568
0.00969217
0.00969217
0.00946953
0.00945612
0.00945612
0.00917668
0.00916351
0.00916351
0.00883197
0.00881913
0.00881913
0.00844044
0.00842802
0.00842802
0.00800734
0.00799542
0.00799542
0.00753809
0.00752675
0.00752675
0.00703831
0.00702763
0.00702763
0.00651387
0.00650391
0.00650391
0.00597094
0.00596178
0.00596178
0.00541616
0.00540785
0.00540785
0.00485668
0.00484927
0.00484927
0.00430026
0.00429378
0.00429378
0.00375508
0.00374955
0.00374955
0.00322947
0.00322487
0.00322487
0.00273139
0.00272769
0.00272769
0.00226802
0.00226515
0.00226515
0.00184547
0.00184334
0.00184334
0.00146892
0.00146743
0.00146743
0.00114298
0.00114203
0.00114203
0.000872094
0.000871558
0.000871557
0.000660341
0.000660098
0.000660097
0.000509971
0.0005099
0.000509899
0.000416503
0.000416494
0.000416493
0.00987937
0.00989306
0.00987937
0.00969217
0.00970568
0.00969217
0.00945612
0.00946953
0.00945612
0.00916351
0.00917668
0.00916351
0.00881913
0.00883197
0.00881913
0.00842802
0.00844044
0.00842802
0.00799542
0.00800734
0.00799542
0.00752675
0.00753809
0.00752675
0.00702763
0.00703831
0.00702763
0.00650391
0.00651387
0.00650391
0.00596178
0.00597094
0.00596178
0.00540785
0.00541616
0.00540785
0.00484927
0.00485668
0.00484927
0.00429378
0.00430026
0.00429378
0.00374955
0.00375508
0.00374955
0.00322487
0.00322947
0.00322487
0.00272769
0.00273139
0.00272769
0.00226515
0.00226802
0.00226515
0.00184334
0.00184547
0.00184334
0.00146743
0.00146892
0.00146743
0.00114203
0.00114298
0.00114203
0.000871558
0.000872094
0.000871558
0.000660098
0.000660341
0.000660098
0.0005099
0.000509971
0.0005099
0.000416494
0.000416503
0.000416494
)
;
    }
}


// ************************************************************************* //
