/*--------------------------------*- C++ -*----------------------------------*\
| =========                 |                                                 |
| \\      /  F ield         | OpenFOAM: The Open Source CFD Toolbox           |
|  \\    /   O peration     | Version:  2212                                  |
|   \\  /    A nd           | Website:  www.openfoam.com                      |
|    \\/     M anipulation  |                                                 |
\*---------------------------------------------------------------------------*/
FoamFile
{
    version     2.0;
    format      ascii;
    arch        "LSB;label=32;scalar=64";
    class       volScalarField;
    location    "26/fluidRegion";
    object      T;
}
// * * * * * * * * * * * * * * * * * * * * * * * * * * * * * * * * * * * * * //

dimensions      [0 0 0 1 0 0 0];

internalField   nonuniform List<scalar> 
350
(
83.2886
83.2891
83.2896
83.2901
83.2906
83.291
83.2915
83.292
83.2925
83.293
83.2935
83.2939
83.2944
83.2949
83.2954
83.2959
83.2963
83.2968
83.2973
83.2977
83.2982
83.2987
83.2992
83.2996
83.3
83.2886
83.2891
83.2896
83.2901
83.2906
83.291
83.2915
83.292
83.2925
83.293
83.2935
83.2939
83.2944
83.2949
83.2954
83.2959
83.2963
83.2968
83.2973
83.2977
83.2982
83.2987
83.2992
83.2996
83.3
1735.74
1732.65
1717.39
1690.16
1651.31
1601.3
1540.73
1470.33
1390.95
1303.6
1209.39
1109.65
1005.88
899.807
793.323
688.449
587.189
491.407
402.734
322.561
252.127
192.599
145.157
110.871
90.312
1761.91
1759.1
1743.9
1716.53
1677.33
1626.76
1565.43
1494.09
1413.58
1324.93
1229.26
1127.9
1022.38
914.431
805.999
699.153
595.965
498.363
408.031
326.4
254.729
194.199
146.002
111.211
90.3846
1731.48
1728.36
1713.1
1685.92
1647.14
1597.24
1536.8
1466.57
1387.39
1300.25
1206.29
1106.81
1003.33
897.558
791.384
686.82
585.862
490.362
401.944
321.994
251.746
192.367
145.035
110.821
90.3004
1756.03
1753.14
1737.91
1710.56
1671.43
1620.97
1559.81
1488.67
1408.42
1320.05
1224.71
1123.71
1018.59
911.065
803.078
696.683
593.938
496.754
406.805
325.511
254.126
193.828
145.806
111.132
90.3679
1756.03
1753.14
1737.91
1710.56
1671.43
1620.97
1559.81
1488.67
1408.42
1320.05
1224.71
1123.71
1018.59
911.065
803.078
696.683
593.938
496.754
406.805
325.511
254.126
193.828
145.806
111.132
90.368
1731.48
1728.36
1713.11
1685.92
1647.14
1597.24
1536.81
1466.57
1387.39
1300.25
1206.29
1106.82
1003.33
897.559
791.385
686.821
585.863
490.363
401.944
321.994
251.746
192.367
145.035
110.821
90.3004
1761.91
1759.1
1743.9
1716.53
1677.33
1626.76
1565.43
1494.09
1413.58
1324.93
1229.26
1127.9
1022.38
914.431
805.999
699.153
595.965
498.363
408.031
326.4
254.729
194.199
146.002
111.211
90.3846
1735.74
1732.65
1717.39
1690.16
1651.31
1601.3
1540.73
1470.33
1390.95
1303.6
1209.39
1109.65
1005.88
899.807
793.323
688.448
587.189
491.406
402.734
322.561
252.127
192.599
145.157
110.871
90.312
1756.03
1753.14
1737.91
1710.56
1671.43
1620.97
1559.81
1488.67
1408.42
1320.05
1224.71
1123.71
1018.59
911.065
803.078
696.683
593.938
496.754
406.805
325.511
254.126
193.828
145.806
111.132
90.368
1731.48
1728.36
1713.1
1685.92
1647.14
1597.24
1536.8
1466.57
1387.39
1300.25
1206.29
1106.81
1003.33
897.558
791.384
686.82
585.862
490.362
401.944
321.994
251.746
192.367
145.035
110.821
90.3004
1731.48
1728.36
1713.11
1685.92
1647.14
1597.24
1536.81
1466.57
1387.39
1300.25
1206.29
1106.82
1003.33
897.559
791.385
686.821
585.863
490.363
401.944
321.994
251.746
192.367
145.035
110.821
90.3004
1756.03
1753.14
1737.91
1710.56
1671.43
1620.97
1559.81
1488.67
1408.42
1320.05
1224.71
1123.71
1018.59
911.065
803.078
696.683
593.938
496.754
406.805
325.511
254.126
193.828
145.806
111.132
90.3679
)
;

boundaryField
{
    outletCentralUnloaded
    {
        type            zeroGradient;
    }
    inletCentralUnloaded
    {
        type            fixedValue;
        value           uniform 83.3;
    }
    outletFuelElement
    {
        type            zeroGradient;
    }
    inletFuelElement
    {
        type            fixedValue;
        value           uniform 83.3;
    }
    defaultFaces
    {
        type            zeroGradient;
    }
    baffle_master
    {
        type            zeroGradient;
    }
    baffle_slave
    {
        type            zeroGradient;
    }
}


// ************************************************************************* //
