/*--------------------------------*- C++ -*----------------------------------*\
| =========                 |                                                 |
| \\      /  F ield         | OpenFOAM: The Open Source CFD Toolbox           |
|  \\    /   O peration     | Version:  2212                                  |
|   \\  /    A nd           | Website:  www.openfoam.com                      |
|    \\/     M anipulation  |                                                 |
\*---------------------------------------------------------------------------*/
FoamFile
{
    version     2.0;
    format      ascii;
    arch        "LSB;label=32;scalar=64";
    class       volScalarField;
    location    "26/fluidRegion";
    object      T.fuelAvForNeutronics;
}
// * * * * * * * * * * * * * * * * * * * * * * * * * * * * * * * * * * * * * //

dimensions      [0 0 0 1 0 0 0];

internalField   nonuniform List<scalar> 
350
(
0
0
0
0
0
0
0
0
0
0
0
0
0
0
0
0
0
0
0
0
0
0
0
0
0
0
0
0
0
0
0
0
0
0
0
0
0
0
0
0
0
0
0
0
0
0
0
0
0
0
1934.21
2690.97
3419.25
4107.98
4746.66
5325.52
5835.68
6269.34
6619.84
6881.79
7051.21
7125.54
7103.72
6986.2
6774.92
6473.26
6085.83
5618.26
5076.82
4467.97
3797.43
3069.49
2286.29
1450.74
576.259
1960.71
2726.35
3463.12
4159.82
4805.82
5391.25
5907.14
6345.58
6699.84
6964.48
7135.47
7210.23
7187.68
7068.29
6854.03
6548.34
6155.9
5682.45
5134.37
4518.23
3839.83
3103.47
2311.26
1466.04
581.397
1929.9
2685.26
3412.21
4099.69
4737.21
5315.03
5824.31
6257.22
6607.12
6868.66
7037.84
7112.11
7090.4
6973.19
6762.39
6461.37
6074.73
5608.1
5067.71
4460.02
3790.74
3064.13
2282.36
1448.34
575.448
1954.73
2718.32
3453.12
4147.97
4792.28
5376.18
5890.75
6328.07
6681.46
6945.47
7116.09
7190.74
7168.36
7049.39
6835.82
6531.05
6139.76
5667.67
5121.12
4506.65
3830.06
3095.64
2305.51
1462.52
580.214
1954.73
2718.32
3453.12
4147.97
4792.28
5376.18
5890.75
6328.07
6681.46
6945.47
7116.09
7190.74
7168.35
7049.39
6835.82
6531.05
6139.76
5667.67
5121.12
4506.65
3830.06
3095.64
2305.51
1462.52
580.214
1929.9
2685.27
3412.21
4099.69
4737.21
5315.03
5824.31
6257.22
6607.12
6868.66
7037.84
7112.11
7090.41
6973.19
6762.39
6461.37
6074.73
5608.1
5067.71
4460.02
3790.74
3064.14
2282.36
1448.34
575.448
1960.71
2726.35
3463.12
4159.82
4805.82
5391.25
5907.14
6345.58
6699.84
6964.48
7135.47
7210.23
7187.68
7068.29
6854.03
6548.34
6155.9
5682.45
5134.37
4518.23
3839.83
3103.47
2311.26
1466.04
581.397
1934.21
2690.97
3419.25
4107.98
4746.66
5325.52
5835.68
6269.34
6619.84
6881.79
7051.21
7125.54
7103.72
6986.2
6774.92
6473.26
6085.83
5618.26
5076.82
4467.97
3797.43
3069.49
2286.29
1450.74
576.259
1954.73
2718.32
3453.12
4147.97
4792.28
5376.18
5890.75
6328.07
6681.46
6945.47
7116.09
7190.74
7168.35
7049.39
6835.82
6531.05
6139.76
5667.67
5121.12
4506.65
3830.06
3095.64
2305.51
1462.52
580.214
1929.9
2685.26
3412.21
4099.69
4737.21
5315.03
5824.31
6257.21
6607.12
6868.66
7037.84
7112.11
7090.4
6973.19
6762.39
6461.37
6074.73
5608.1
5067.71
4460.02
3790.74
3064.13
2282.36
1448.34
575.448
1929.9
2685.27
3412.21
4099.69
4737.21
5315.03
5824.31
6257.22
6607.12
6868.66
7037.84
7112.11
7090.41
6973.19
6762.39
6461.37
6074.73
5608.1
5067.71
4460.02
3790.74
3064.14
2282.36
1448.34
575.448
1954.73
2718.32
3453.12
4147.97
4792.28
5376.18
5890.75
6328.07
6681.46
6945.47
7116.09
7190.74
7168.35
7049.39
6835.82
6531.05
6139.76
5667.67
5121.12
4506.65
3830.06
3095.64
2305.51
1462.52
580.214
)
;

boundaryField
{
    outletCentralUnloaded
    {
        type            zeroGradient;
    }
    inletCentralUnloaded
    {
        type            zeroGradient;
    }
    outletFuelElement
    {
        type            zeroGradient;
    }
    inletFuelElement
    {
        type            zeroGradient;
    }
    defaultFaces
    {
        type            zeroGradient;
    }
    baffle_master
    {
        type            zeroGradient;
    }
    baffle_slave
    {
        type            zeroGradient;
    }
}


// ************************************************************************* //
