/*--------------------------------*- C++ -*----------------------------------*\
| =========                 |                                                 |
| \\      /  F ield         | OpenFOAM: The Open Source CFD Toolbox           |
|  \\    /   O peration     | Version:  2212                                  |
|   \\  /    A nd           | Website:  www.openfoam.com                      |
|    \\/     M anipulation  |                                                 |
\*---------------------------------------------------------------------------*/
FoamFile
{
    version     2.0;
    format      ascii;
    arch        "LSB;label=32;scalar=64";
    class       volScalarField;
    location    "26/fluidRegion";
    object      Tci.nuclearFuelPin;
}
// * * * * * * * * * * * * * * * * * * * * * * * * * * * * * * * * * * * * * //

dimensions      [0 0 0 1 0 0 0];

internalField   nonuniform List<scalar> 
350
(
0
0
0
0
0
0
0
0
0
0
0
0
0
0
0
0
0
0
0
0
0
0
0
0
0
0
0
0
0
0
0
0
0
0
0
0
0
0
0
0
0
0
0
0
0
0
0
0
0
0
1750.13
1802.52
1841.94
1868.2
1881.25
1881.19
1868.29
1842.96
1805.76
1757.43
1698.83
1630.98
1555.05
1472.32
1384.2
1292.13
1197.45
1101.21
1003.78
904.397
800.332
685.843
551.545
387.617
196.466
1776.29
1829.5
1869.5
1896.12
1909.3
1909.15
1895.93
1870.07
1832.13
1782.87
1723.16
1654.03
1576.67
1492.38
1402.59
1308.78
1212.34
1114.36
1015.29
914.37
808.877
692.985
557.114
391.197
197.677
1745.87
1798.15
1837.49
1863.71
1876.76
1876.73
1863.9
1838.66
1801.6
1753.43
1695.01
1627.38
1551.68
1469.2
1381.35
1289.55
1195.16
1099.18
1002.02
902.874
799.035
684.769
550.718
387.09
196.281
1770.41
1823.42
1863.27
1889.79
1902.93
1902.79
1889.63
1863.87
1826.1
1777.04
1717.58
1648.74
1571.69
1487.76
1398.35
1304.94
1208.9
1111.32
1012.63
912.065
806.901
691.333
555.825
390.367
197.397
1770.41
1823.42
1863.27
1889.79
1902.93
1902.79
1889.63
1863.87
1826.1
1777.04
1717.58
1648.74
1571.69
1487.76
1398.35
1304.94
1208.9
1111.32
1012.63
912.065
806.901
691.333
555.825
390.367
197.397
1745.87
1798.15
1837.49
1863.71
1876.76
1876.73
1863.9
1838.66
1801.6
1753.43
1695.01
1627.38
1551.68
1469.21
1381.35
1289.56
1195.16
1099.18
1002.02
902.875
799.035
684.77
550.719
387.09
196.281
1776.29
1829.5
1869.5
1896.12
1909.3
1909.15
1895.93
1870.07
1832.13
1782.87
1723.16
1654.03
1576.67
1492.38
1402.59
1308.78
1212.34
1114.36
1015.29
914.37
808.877
692.986
557.114
391.197
197.677
1750.13
1802.52
1841.94
1868.2
1881.25
1881.19
1868.29
1842.96
1805.76
1757.43
1698.83
1630.98
1555.05
1472.32
1384.2
1292.13
1197.45
1101.21
1003.78
904.397
800.332
685.843
551.545
387.617
196.466
1770.41
1823.42
1863.27
1889.79
1902.93
1902.79
1889.63
1863.87
1826.1
1777.04
1717.58
1648.74
1571.69
1487.76
1398.35
1304.94
1208.9
1111.32
1012.63
912.065
806.901
691.333
555.825
390.367
197.397
1745.87
1798.15
1837.49
1863.71
1876.76
1876.73
1863.9
1838.66
1801.6
1753.43
1695.01
1627.38
1551.68
1469.2
1381.35
1289.55
1195.16
1099.18
1002.02
902.874
799.035
684.769
550.718
387.09
196.281
1745.87
1798.15
1837.49
1863.71
1876.76
1876.73
1863.9
1838.66
1801.6
1753.43
1695.01
1627.38
1551.68
1469.21
1381.35
1289.56
1195.16
1099.18
1002.02
902.875
799.035
684.77
550.719
387.09
196.281
1770.41
1823.42
1863.27
1889.79
1902.93
1902.79
1889.63
1863.87
1826.1
1777.04
1717.58
1648.74
1571.69
1487.76
1398.35
1304.94
1208.9
1111.32
1012.63
912.065
806.901
691.333
555.825
390.367
197.397
)
;

boundaryField
{
    outletCentralUnloaded
    {
        type            zeroGradient;
    }
    inletCentralUnloaded
    {
        type            zeroGradient;
    }
    outletFuelElement
    {
        type            zeroGradient;
    }
    inletFuelElement
    {
        type            zeroGradient;
    }
    defaultFaces
    {
        type            zeroGradient;
    }
    baffle_master
    {
        type            zeroGradient;
    }
    baffle_slave
    {
        type            zeroGradient;
    }
}


// ************************************************************************* //
