/*--------------------------------*- C++ -*----------------------------------*\
| =========                 |                                                 |
| \\      /  F ield         | OpenFOAM: The Open Source CFD Toolbox           |
|  \\    /   O peration     | Version:  2212                                  |
|   \\  /    A nd           | Website:  www.openfoam.com                      |
|    \\/     M anipulation  |                                                 |
\*---------------------------------------------------------------------------*/
FoamFile
{
    version     2.0;
    format      ascii;
    arch        "LSB;label=32;scalar=64";
    class       volScalarField;
    location    "26/fluidRegion";
    object      Tco.nuclearFuelPin;
}
// * * * * * * * * * * * * * * * * * * * * * * * * * * * * * * * * * * * * * //

dimensions      [0 0 0 1 0 0 0];

internalField   nonuniform List<scalar> 
350
(
0
0
0
0
0
0
0
0
0
0
0
0
0
0
0
0
0
0
0
0
0
0
0
0
0
0
0
0
0
0
0
0
0
0
0
0
0
0
0
0
0
0
0
0
0
0
0
0
0
0
1744.18
1774.04
1791.43
1796.49
1789.53
1770.96
1741.33
1701.32
1651.73
1593.48
1527.6
1455.21
1377.55
1295.95
1211.77
1126.41
1041.1
956.743
873.524
790.442
704.502
609.643
496.11
353.675
184.388
1770.33
1800.75
1818.46
1823.65
1816.59
1797.71
1767.57
1726.86
1676.39
1617.09
1550.01
1476.29
1397.18
1314.02
1228.22
1141.19
1054.23
968.268
883.559
799.126
711.964
615.927
501.059
356.879
185.473
1739.92
1769.71
1787.06
1792.13
1785.2
1766.7
1737.16
1697.28
1647.84
1589.77
1524.09
1451.92
1374.5
1293.15
1209.24
1124.14
1039.09
954.981
871.995
789.125
703.378
608.707
495.383
353.207
184.223
1764.46
1794.73
1812.35
1817.5
1810.45
1791.63
1761.59
1721.03
1670.75
1611.68
1544.87
1471.45
1392.66
1309.86
1224.43
1137.78
1051.2
965.604
881.239
797.118
710.238
614.472
499.912
356.136
185.222
1764.46
1794.73
1812.35
1817.5
1810.45
1791.63
1761.59
1721.03
1670.75
1611.68
1544.87
1471.45
1392.66
1309.86
1224.43
1137.78
1051.2
965.604
881.239
797.118
710.238
614.472
499.912
356.136
185.222
1739.92
1769.71
1787.06
1792.13
1785.2
1766.7
1737.16
1697.28
1647.84
1589.77
1524.09
1451.92
1374.5
1293.15
1209.24
1124.14
1039.09
954.981
871.996
789.126
703.379
608.707
495.383
353.208
184.223
1770.33
1800.75
1818.46
1823.65
1816.59
1797.71
1767.57
1726.86
1676.39
1617.09
1550.01
1476.29
1397.18
1314.02
1228.22
1141.19
1054.23
968.268
883.559
799.126
711.964
615.927
501.059
356.879
185.473
1744.18
1774.04
1791.43
1796.49
1789.53
1770.96
1741.33
1701.32
1651.73
1593.48
1527.6
1455.21
1377.55
1295.95
1211.77
1126.41
1041.1
956.742
873.524
790.442
704.502
609.643
496.111
353.675
184.388
1764.46
1794.73
1812.35
1817.5
1810.45
1791.63
1761.59
1721.03
1670.75
1611.68
1544.87
1471.45
1392.66
1309.86
1224.43
1137.78
1051.2
965.604
881.239
797.118
710.238
614.472
499.912
356.136
185.222
1739.92
1769.71
1787.06
1792.13
1785.2
1766.7
1737.16
1697.28
1647.84
1589.77
1524.09
1451.92
1374.5
1293.15
1209.24
1124.14
1039.09
954.981
871.995
789.125
703.378
608.707
495.383
353.207
184.223
1739.92
1769.71
1787.06
1792.13
1785.2
1766.7
1737.16
1697.28
1647.84
1589.77
1524.09
1451.92
1374.5
1293.15
1209.24
1124.14
1039.09
954.981
871.996
789.126
703.379
608.707
495.383
353.208
184.223
1764.46
1794.73
1812.35
1817.5
1810.45
1791.63
1761.59
1721.03
1670.75
1611.68
1544.87
1471.45
1392.66
1309.86
1224.43
1137.78
1051.2
965.604
881.239
797.118
710.238
614.472
499.912
356.136
185.222
)
;

boundaryField
{
    outletCentralUnloaded
    {
        type            zeroGradient;
    }
    inletCentralUnloaded
    {
        type            zeroGradient;
    }
    outletFuelElement
    {
        type            zeroGradient;
    }
    inletFuelElement
    {
        type            zeroGradient;
    }
    defaultFaces
    {
        type            zeroGradient;
    }
    baffle_master
    {
        type            zeroGradient;
    }
    baffle_slave
    {
        type            zeroGradient;
    }
}


// ************************************************************************* //
