/*--------------------------------*- C++ -*----------------------------------*\
| =========                 |                                                 |
| \\      /  F ield         | OpenFOAM: The Open Source CFD Toolbox           |
|  \\    /   O peration     | Version:  2212                                  |
|   \\  /    A nd           | Website:  www.openfoam.com                      |
|    \\/     M anipulation  |                                                 |
\*---------------------------------------------------------------------------*/
FoamFile
{
    version     2.0;
    format      ascii;
    arch        "LSB;label=32;scalar=64";
    class       volScalarField;
    location    "26/fluidRegion";
    object      Tfo.nuclearFuelPin;
}
// * * * * * * * * * * * * * * * * * * * * * * * * * * * * * * * * * * * * * //

dimensions      [0 0 0 1 0 0 0];

internalField   nonuniform List<scalar> 
350
(
0
0
0
0
0
0
0
0
0
0
0
0
0
0
0
0
0
0
0
0
0
0
0
0
0
0
0
0
0
0
0
0
0
0
0
0
0
0
0
0
0
0
0
0
0
0
0
0
0
0
1839.81
2217.89
2575.77
2908.25
3210.45
3477.9
3706.66
3893.33
4035.15
4130.03
4176.58
4174.18
4122.98
4023.87
3878.51
3689.25
3458.95
3190.77
2887.82
2552.67
2186.47
1788.1
1353.46
878.564
370.923
1866.23
2248.85
2610.97
2947.33
3252.98
3523.42
3754.66
3943.25
4086.41
4182.02
4228.7
4225.8
4173.48
4072.67
3925.03
3732.97
3499.4
3227.57
2920.65
2581.3
2210.69
1807.67
1368.01
887.574
373.953
1835.51
2212.88
2570.1
2901.98
3203.65
3470.64
3699.02
3885.4
4027.02
4121.79
4168.33
4166.02
4115
4016.17
3871.18
3682.37
3452.58
3184.98
2882.66
2548.17
2182.68
1785.04
1351.19
877.168
370.448
1860.28
2241.84
2602.97
2938.42
3243.27
3513.01
3743.66
3931.8
4074.64
4170.08
4216.72
4213.93
4161.86
4061.43
3914.32
3722.9
3490.08
3219.09
2913.09
2574.7
2205.11
1803.16
1364.66
885.494
373.255
1860.28
2241.84
2602.97
2938.42
3243.27
3513.01
3743.66
3931.8
4074.64
4170.08
4216.72
4213.93
4161.86
4061.43
3914.32
3722.9
3490.08
3219.09
2913.09
2574.7
2205.11
1803.16
1364.66
885.494
373.255
1835.51
2212.88
2570.11
2901.98
3203.65
3470.64
3699.02
3885.4
4027.02
4121.79
4168.33
4166.02
4115
4016.17
3871.18
3682.37
3452.58
3184.98
2882.66
2548.17
2182.68
1785.05
1351.2
877.169
370.448
1866.23
2248.85
2610.97
2947.33
3252.98
3523.42
3754.66
3943.25
4086.41
4182.02
4228.7
4225.8
4173.48
4072.67
3925.03
3732.97
3499.4
3227.57
2920.65
2581.3
2210.69
1807.67
1368.01
887.574
373.953
1839.81
2217.89
2575.77
2908.25
3210.45
3477.9
3706.66
3893.33
4035.15
4130.03
4176.58
4174.18
4122.97
4023.87
3878.51
3689.25
3458.95
3190.77
2887.82
2552.67
2186.47
1788.1
1353.46
878.564
370.923
1860.28
2241.84
2602.97
2938.42
3243.27
3513.01
3743.66
3931.8
4074.64
4170.08
4216.72
4213.93
4161.86
4061.43
3914.32
3722.9
3490.08
3219.09
2913.09
2574.7
2205.11
1803.16
1364.66
885.494
373.255
1835.51
2212.88
2570.1
2901.98
3203.65
3470.64
3699.02
3885.4
4027.02
4121.79
4168.33
4166.02
4115
4016.17
3871.18
3682.37
3452.58
3184.98
2882.66
2548.17
2182.68
1785.04
1351.19
877.168
370.448
1835.51
2212.88
2570.1
2901.98
3203.65
3470.64
3699.02
3885.4
4027.02
4121.79
4168.33
4166.02
4115
4016.17
3871.18
3682.37
3452.58
3184.98
2882.66
2548.17
2182.68
1785.05
1351.2
877.169
370.448
1860.28
2241.84
2602.97
2938.42
3243.27
3513.01
3743.66
3931.8
4074.64
4170.08
4216.72
4213.93
4161.86
4061.43
3914.32
3722.9
3490.08
3219.09
2913.09
2574.7
2205.11
1803.16
1364.66
885.494
373.255
)
;

boundaryField
{
    outletCentralUnloaded
    {
        type            zeroGradient;
    }
    inletCentralUnloaded
    {
        type            zeroGradient;
    }
    outletFuelElement
    {
        type            zeroGradient;
    }
    inletFuelElement
    {
        type            zeroGradient;
    }
    defaultFaces
    {
        type            zeroGradient;
    }
    baffle_master
    {
        type            zeroGradient;
    }
    baffle_slave
    {
        type            zeroGradient;
    }
}


// ************************************************************************* //
