/*--------------------------------*- C++ -*----------------------------------*\
| =========                 |                                                 |
| \\      /  F ield         | OpenFOAM: The Open Source CFD Toolbox           |
|  \\    /   O peration     | Version:  2212                                  |
|   \\  /    A nd           | Website:  www.openfoam.com                      |
|    \\/     M anipulation  |                                                 |
\*---------------------------------------------------------------------------*/
FoamFile
{
    version     2.0;
    format      ascii;
    arch        "LSB;label=32;scalar=64";
    class       volScalarField;
    location    "47/fluidRegion";
    object      htc;
}
// * * * * * * * * * * * * * * * * * * * * * * * * * * * * * * * * * * * * * //

dimensions      [1 0 -3 -1 0 0 0];

internalField   nonuniform List<scalar> 
350
(
3101.31
3101.35
3101.41
3101.48
3101.55
3101.6
3101.63
3101.63
3101.61
3101.57
3101.51
3101.46
3101.42
3101.4
3101.39
3101.42
3101.46
3101.51
3101.57
3101.62
3101.67
3101.71
3101.73
3101.75
3106.92
3101.31
3101.35
3101.41
3101.48
3101.55
3101.6
3101.63
3101.63
3101.61
3101.57
3101.51
3101.46
3101.42
3101.4
3101.39
3101.42
3101.46
3101.51
3101.57
3101.62
3101.67
3101.71
3101.73
3101.75
3106.92
27226.7
27146.2
26960.2
26649.2
26214.5
25658.4
24983.7
24194.2
23295.3
22293.9
21199.7
20025.1
18785.3
17497
16176.8
14838.6
13492.6
12146.9
10810.8
9500.27
8243.52
7087.06
6102
5381.97
4942.86
27315.5
27234.6
27049.3
26738.3
26303.2
25746
25069.7
24277.9
23375.7
22369.9
21270
20088.5
18840.6
17543.7
16215
14869
13516.6
12165.5
10824.8
9509.82
8248.49
7087.56
6098.96
5377.73
4940.9
27212.7
27131.7
26945.8
26634.8
26200.2
25644.3
24969.9
24180.8
23282.4
22281.8
21188.5
20015
18776.5
17489.6
16170.7
14833.6
13488.5
12143.6
10808.1
9498.26
8242.12
7086.22
6101.58
5381.71
4942.72
27295.8
27215
27029.5
26718.4
26283.4
25726.4
25050.4
24259.1
23357.6
22352.8
21254.2
20074.1
18828.1
17533.1
16206.3
14862.1
13511.2
12161.4
10821.7
9507.73
8247.45
7087.54
6099.77
5378.83
4941.42
27295.8
27215
27029.5
26718.4
26283.4
25726.4
25050.4
24259.1
23357.6
22352.8
21254.2
20074.1
18828.1
17533.1
16206.3
14862.1
13511.2
12161.4
10821.7
9507.73
8247.45
7087.54
6099.77
5378.83
4941.42
27212.7
27131.7
26945.8
26634.8
26200.2
25644.3
24969.9
24180.8
23282.4
22281.8
21188.5
20015
18776.5
17489.6
16170.7
14833.6
13488.5
12143.6
10808.1
9498.25
8242.11
7086.22
6101.57
5381.7
4942.71
27315.5
27234.6
27049.3
26738.3
26303.2
25746
25069.7
24277.9
23375.7
22369.9
21270
20088.5
18840.6
17543.7
16215
14869
13516.6
12165.5
10824.8
9509.82
8248.49
7087.56
6098.96
5377.73
4940.9
27226.7
27146.2
26960.2
26649.2
26214.5
25658.4
24983.7
24194.2
23295.3
22293.9
21199.7
20025.1
18785.3
17497
16176.8
14838.6
13492.6
12146.9
10810.8
9500.27
8243.52
7087.06
6102
5381.97
4942.86
27295.8
27215
27029.5
26718.4
26283.4
25726.4
25050.4
24259.1
23357.6
22352.8
21254.2
20074.1
18828.1
17533.1
16206.3
14862.1
13511.2
12161.4
10821.7
9507.73
8247.45
7087.54
6099.77
5378.83
4941.42
27212.7
27131.7
26945.8
26634.8
26200.2
25644.3
24969.9
24180.8
23282.4
22281.8
21188.5
20015
18776.5
17489.6
16170.7
14833.6
13488.5
12143.6
10808.1
9498.26
8242.12
7086.22
6101.58
5381.71
4942.72
27212.7
27131.7
26945.8
26634.8
26200.2
25644.3
24969.9
24180.8
23282.4
22281.8
21188.5
20015
18776.5
17489.6
16170.7
14833.6
13488.5
12143.6
10808.1
9498.26
8242.11
7086.22
6101.57
5381.7
4942.71
27295.8
27215
27029.5
26718.4
26283.4
25726.4
25050.4
24259.1
23357.6
22352.8
21254.2
20074.1
18828.1
17533.1
16206.3
14862.1
13511.2
12161.4
10821.7
9507.73
8247.45
7087.54
6099.77
5378.83
4941.42
)
;

boundaryField
{
    outletCentralUnloaded
    {
        type            zeroGradient;
    }
    inletCentralUnloaded
    {
        type            zeroGradient;
    }
    outletFuelElement
    {
        type            zeroGradient;
    }
    inletFuelElement
    {
        type            zeroGradient;
    }
    defaultFaces
    {
        type            zeroGradient;
    }
    baffle_master
    {
        type            zeroGradient;
    }
    baffle_slave
    {
        type            zeroGradient;
    }
}


// ************************************************************************* //
