/*--------------------------------*- C++ -*----------------------------------*\
| =========                 |                                                 |
| \\      /  F ield         | OpenFOAM: The Open Source CFD Toolbox           |
|  \\    /   O peration     | Version:  2212                                  |
|   \\  /    A nd           | Website:  www.openfoam.com                      |
|    \\/     M anipulation  |                                                 |
\*---------------------------------------------------------------------------*/
FoamFile
{
    version     2.0;
    format      ascii;
    arch        "LSB;label=32;scalar=64";
    class       volTensorField;
    location    "47/fluidRegion";
    object      Kd;
}
// * * * * * * * * * * * * * * * * * * * * * * * * * * * * * * * * * * * * * //

dimensions      [1 -3 -1 0 0 0 0];

internalField   nonuniform List<tensor> 
350
(
(84.7404 0 0 0 84.7404 0 0 0 84.7404)
(84.741 0 0 0 84.741 0 0 0 84.741)
(84.742 0 0 0 84.742 0 0 0 84.742)
(84.7434 0 0 0 84.7434 0 0 0 84.7434)
(84.7446 0 0 0 84.7446 0 0 0 84.7446)
(84.7455 0 0 0 84.7455 0 0 0 84.7455)
(84.7458 0 0 0 84.7458 0 0 0 84.7458)
(84.7455 0 0 0 84.7455 0 0 0 84.7455)
(84.7445 0 0 0 84.7445 0 0 0 84.7445)
(84.743 0 0 0 84.743 0 0 0 84.743)
(84.7413 0 0 0 84.7413 0 0 0 84.7413)
(84.7395 0 0 0 84.7395 0 0 0 84.7395)
(84.738 0 0 0 84.738 0 0 0 84.738)
(84.7369 0 0 0 84.7369 0 0 0 84.7369)
(84.7365 0 0 0 84.7365 0 0 0 84.7365)
(84.7366 0 0 0 84.7366 0 0 0 84.7366)
(84.7372 0 0 0 84.7372 0 0 0 84.7372)
(84.7381 0 0 0 84.7381 0 0 0 84.7381)
(84.7392 0 0 0 84.7392 0 0 0 84.7392)
(84.7402 0 0 0 84.7402 0 0 0 84.7402)
(84.7411 0 0 0 84.7411 0 0 0 84.7411)
(84.7416 0 0 0 84.7416 0 0 0 84.7416)
(84.7418 0 0 0 84.7418 0 0 0 84.7418)
(84.7418 0 0 0 84.7418 0 0 0 84.7418)
(84.8738 0 0 0 84.8738 0 0 0 84.8738)
(84.7404 0 0 0 84.7404 0 0 0 84.7404)
(84.741 0 0 0 84.741 0 0 0 84.741)
(84.742 0 0 0 84.742 0 0 0 84.742)
(84.7434 0 0 0 84.7434 0 0 0 84.7434)
(84.7446 0 0 0 84.7446 0 0 0 84.7446)
(84.7455 0 0 0 84.7455 0 0 0 84.7455)
(84.7458 0 0 0 84.7458 0 0 0 84.7458)
(84.7455 0 0 0 84.7455 0 0 0 84.7455)
(84.7445 0 0 0 84.7445 0 0 0 84.7445)
(84.743 0 0 0 84.743 0 0 0 84.743)
(84.7413 0 0 0 84.7413 0 0 0 84.7413)
(84.7395 0 0 0 84.7395 0 0 0 84.7395)
(84.738 0 0 0 84.738 0 0 0 84.738)
(84.7369 0 0 0 84.7369 0 0 0 84.7369)
(84.7365 0 0 0 84.7365 0 0 0 84.7365)
(84.7366 0 0 0 84.7366 0 0 0 84.7366)
(84.7372 0 0 0 84.7372 0 0 0 84.7372)
(84.7381 0 0 0 84.7381 0 0 0 84.7381)
(84.7392 0 0 0 84.7392 0 0 0 84.7392)
(84.7402 0 0 0 84.7402 0 0 0 84.7402)
(84.7411 0 0 0 84.7411 0 0 0 84.7411)
(84.7416 0 0 0 84.7416 0 0 0 84.7416)
(84.7418 0 0 0 84.7418 0 0 0 84.7418)
(84.7418 0 0 0 84.7418 0 0 0 84.7418)
(84.8738 0 0 0 84.8738 0 0 0 84.8738)
(682.514 0 0 0 682.514 0 0 0 682.514)
(682.05 0 0 0 682.05 0 0 0 682.05)
(682.061 0 0 0 682.061 0 0 0 682.061)
(682.064 0 0 0 682.064 0 0 0 682.064)
(682.054 0 0 0 682.054 0 0 0 682.054)
(682.032 0 0 0 682.032 0 0 0 682.032)
(681.997 0 0 0 681.997 0 0 0 681.997)
(681.945 0 0 0 681.945 0 0 0 681.945)
(681.876 0 0 0 681.876 0 0 0 681.876)
(681.787 0 0 0 681.787 0 0 0 681.787)
(681.677 0 0 0 681.677 0 0 0 681.677)
(681.546 0 0 0 681.546 0 0 0 681.546)
(681.393 0 0 0 681.393 0 0 0 681.393)
(681.221 0 0 0 681.221 0 0 0 681.221)
(681.024 0 0 0 681.024 0 0 0 681.024)
(680.795 0 0 0 680.795 0 0 0 680.795)
(680.516 0 0 0 680.516 0 0 0 680.516)
(680.169 0 0 0 680.169 0 0 0 680.169)
(679.747 0 0 0 679.747 0 0 0 679.747)
(679.306 0 0 0 679.306 0 0 0 679.306)
(679.024 0 0 0 679.024 0 0 0 679.024)
(679.453 0 0 0 679.453 0 0 0 679.453)
(681.922 0 0 0 681.922 0 0 0 681.922)
(688.791 0 0 0 688.791 0 0 0 688.791)
(693.272 0 0 0 693.272 0 0 0 693.272)
(677.979 0 0 0 677.979 0 0 0 677.979)
(677.443 0 0 0 677.443 0 0 0 677.443)
(677.416 0 0 0 677.416 0 0 0 677.416)
(677.38 0 0 0 677.38 0 0 0 677.38)
(677.335 0 0 0 677.335 0 0 0 677.335)
(677.28 0 0 0 677.28 0 0 0 677.28)
(677.213 0 0 0 677.213 0 0 0 677.213)
(677.132 0 0 0 677.132 0 0 0 677.132)
(677.036 0 0 0 677.036 0 0 0 677.036)
(676.923 0 0 0 676.923 0 0 0 676.923)
(676.793 0 0 0 676.793 0 0 0 676.793)
(676.65 0 0 0 676.65 0 0 0 676.65)
(676.5 0 0 0 676.5 0 0 0 676.5)
(676.354 0 0 0 676.354 0 0 0 676.354)
(676.217 0 0 0 676.217 0 0 0 676.217)
(676.09 0 0 0 676.09 0 0 0 676.09)
(675.962 0 0 0 675.962 0 0 0 675.962)
(675.815 0 0 0 675.815 0 0 0 675.815)
(675.644 0 0 0 675.644 0 0 0 675.644)
(675.507 0 0 0 675.507 0 0 0 675.507)
(675.597 0 0 0 675.597 0 0 0 675.597)
(676.498 0 0 0 676.498 0 0 0 676.498)
(679.596 0 0 0 679.596 0 0 0 679.596)
(687.304 0 0 0 687.304 0 0 0 687.304)
(692.788 0 0 0 692.788 0 0 0 692.788)
(683.271 0 0 0 683.271 0 0 0 683.271)
(682.804 0 0 0 682.804 0 0 0 682.804)
(682.819 0 0 0 682.819 0 0 0 682.819)
(682.824 0 0 0 682.824 0 0 0 682.824)
(682.817 0 0 0 682.817 0 0 0 682.817)
(682.797 0 0 0 682.797 0 0 0 682.797)
(682.763 0 0 0 682.763 0 0 0 682.763)
(682.712 0 0 0 682.712 0 0 0 682.712)
(682.643 0 0 0 682.643 0 0 0 682.643)
(682.554 0 0 0 682.554 0 0 0 682.554)
(682.443 0 0 0 682.443 0 0 0 682.443)
(682.308 0 0 0 682.308 0 0 0 682.308)
(682.15 0 0 0 682.15 0 0 0 682.15)
(681.967 0 0 0 681.967 0 0 0 681.967)
(681.754 0 0 0 681.754 0 0 0 681.754)
(681.501 0 0 0 681.501 0 0 0 681.501)
(681.19 0 0 0 681.19 0 0 0 681.19)
(680.802 0 0 0 680.802 0 0 0 680.802)
(680.331 0 0 0 680.331 0 0 0 680.331)
(679.83 0 0 0 679.83 0 0 0 679.83)
(679.476 0 0 0 679.476 0 0 0 679.476)
(679.814 0 0 0 679.814 0 0 0 679.814)
(682.169 0 0 0 682.169 0 0 0 682.169)
(688.903 0 0 0 688.903 0 0 0 688.903)
(693.289 0 0 0 693.289 0 0 0 693.289)
(678.994 0 0 0 678.994 0 0 0 678.994)
(678.479 0 0 0 678.479 0 0 0 678.479)
(678.462 0 0 0 678.462 0 0 0 678.462)
(678.436 0 0 0 678.436 0 0 0 678.436)
(678.401 0 0 0 678.401 0 0 0 678.401)
(678.356 0 0 0 678.356 0 0 0 678.356)
(678.298 0 0 0 678.298 0 0 0 678.298)
(678.226 0 0 0 678.226 0 0 0 678.226)
(678.137 0 0 0 678.137 0 0 0 678.137)
(678.031 0 0 0 678.031 0 0 0 678.031)
(677.908 0 0 0 677.908 0 0 0 677.908)
(677.769 0 0 0 677.769 0 0 0 677.769)
(677.621 0 0 0 677.621 0 0 0 677.621)
(677.47 0 0 0 677.47 0 0 0 677.47)
(677.322 0 0 0 677.322 0 0 0 677.322)
(677.173 0 0 0 677.173 0 0 0 677.173)
(677.012 0 0 0 677.012 0 0 0 677.012)
(676.821 0 0 0 676.821 0 0 0 676.821)
(676.594 0 0 0 676.594 0 0 0 676.594)
(676.389 0 0 0 676.389 0 0 0 676.389)
(676.395 0 0 0 676.395 0 0 0 676.395)
(677.19 0 0 0 677.19 0 0 0 677.19)
(680.145 0 0 0 680.145 0 0 0 680.145)
(687.663 0 0 0 687.663 0 0 0 687.663)
(692.908 0 0 0 692.908 0 0 0 692.908)
(678.994 0 0 0 678.994 0 0 0 678.994)
(678.479 0 0 0 678.479 0 0 0 678.479)
(678.462 0 0 0 678.462 0 0 0 678.462)
(678.436 0 0 0 678.436 0 0 0 678.436)
(678.401 0 0 0 678.401 0 0 0 678.401)
(678.356 0 0 0 678.356 0 0 0 678.356)
(678.298 0 0 0 678.298 0 0 0 678.298)
(678.226 0 0 0 678.226 0 0 0 678.226)
(678.137 0 0 0 678.137 0 0 0 678.137)
(678.031 0 0 0 678.031 0 0 0 678.031)
(677.908 0 0 0 677.908 0 0 0 677.908)
(677.769 0 0 0 677.769 0 0 0 677.769)
(677.621 0 0 0 677.621 0 0 0 677.621)
(677.47 0 0 0 677.47 0 0 0 677.47)
(677.322 0 0 0 677.322 0 0 0 677.322)
(677.173 0 0 0 677.173 0 0 0 677.173)
(677.012 0 0 0 677.012 0 0 0 677.012)
(676.821 0 0 0 676.821 0 0 0 676.821)
(676.594 0 0 0 676.594 0 0 0 676.594)
(676.389 0 0 0 676.389 0 0 0 676.389)
(676.395 0 0 0 676.395 0 0 0 676.395)
(677.19 0 0 0 677.19 0 0 0 677.19)
(680.145 0 0 0 680.145 0 0 0 680.145)
(687.663 0 0 0 687.663 0 0 0 687.663)
(692.908 0 0 0 692.908 0 0 0 692.908)
(683.271 0 0 0 683.271 0 0 0 683.271)
(682.803 0 0 0 682.803 0 0 0 682.803)
(682.819 0 0 0 682.819 0 0 0 682.819)
(682.824 0 0 0 682.824 0 0 0 682.824)
(682.817 0 0 0 682.817 0 0 0 682.817)
(682.797 0 0 0 682.797 0 0 0 682.797)
(682.763 0 0 0 682.763 0 0 0 682.763)
(682.712 0 0 0 682.712 0 0 0 682.712)
(682.643 0 0 0 682.643 0 0 0 682.643)
(682.554 0 0 0 682.554 0 0 0 682.554)
(682.442 0 0 0 682.442 0 0 0 682.442)
(682.308 0 0 0 682.308 0 0 0 682.308)
(682.15 0 0 0 682.15 0 0 0 682.15)
(681.966 0 0 0 681.966 0 0 0 681.966)
(681.754 0 0 0 681.754 0 0 0 681.754)
(681.5 0 0 0 681.5 0 0 0 681.5)
(681.189 0 0 0 681.189 0 0 0 681.189)
(680.802 0 0 0 680.802 0 0 0 680.802)
(680.331 0 0 0 680.331 0 0 0 680.331)
(679.829 0 0 0 679.829 0 0 0 679.829)
(679.475 0 0 0 679.475 0 0 0 679.475)
(679.813 0 0 0 679.813 0 0 0 679.813)
(682.168 0 0 0 682.168 0 0 0 682.168)
(688.902 0 0 0 688.902 0 0 0 688.902)
(693.288 0 0 0 693.288 0 0 0 693.288)
(677.979 0 0 0 677.979 0 0 0 677.979)
(677.443 0 0 0 677.443 0 0 0 677.443)
(677.416 0 0 0 677.416 0 0 0 677.416)
(677.38 0 0 0 677.38 0 0 0 677.38)
(677.335 0 0 0 677.335 0 0 0 677.335)
(677.28 0 0 0 677.28 0 0 0 677.28)
(677.213 0 0 0 677.213 0 0 0 677.213)
(677.132 0 0 0 677.132 0 0 0 677.132)
(677.036 0 0 0 677.036 0 0 0 677.036)
(676.923 0 0 0 676.923 0 0 0 676.923)
(676.793 0 0 0 676.793 0 0 0 676.793)
(676.65 0 0 0 676.65 0 0 0 676.65)
(676.5 0 0 0 676.5 0 0 0 676.5)
(676.354 0 0 0 676.354 0 0 0 676.354)
(676.217 0 0 0 676.217 0 0 0 676.217)
(676.09 0 0 0 676.09 0 0 0 676.09)
(675.962 0 0 0 675.962 0 0 0 675.962)
(675.815 0 0 0 675.815 0 0 0 675.815)
(675.644 0 0 0 675.644 0 0 0 675.644)
(675.507 0 0 0 675.507 0 0 0 675.507)
(675.597 0 0 0 675.597 0 0 0 675.597)
(676.498 0 0 0 676.498 0 0 0 676.498)
(679.596 0 0 0 679.596 0 0 0 679.596)
(687.304 0 0 0 687.304 0 0 0 687.304)
(692.788 0 0 0 692.788 0 0 0 692.788)
(682.514 0 0 0 682.514 0 0 0 682.514)
(682.05 0 0 0 682.05 0 0 0 682.05)
(682.061 0 0 0 682.061 0 0 0 682.061)
(682.064 0 0 0 682.064 0 0 0 682.064)
(682.054 0 0 0 682.054 0 0 0 682.054)
(682.032 0 0 0 682.032 0 0 0 682.032)
(681.997 0 0 0 681.997 0 0 0 681.997)
(681.945 0 0 0 681.945 0 0 0 681.945)
(681.876 0 0 0 681.876 0 0 0 681.876)
(681.787 0 0 0 681.787 0 0 0 681.787)
(681.677 0 0 0 681.677 0 0 0 681.677)
(681.546 0 0 0 681.546 0 0 0 681.546)
(681.393 0 0 0 681.393 0 0 0 681.393)
(681.221 0 0 0 681.221 0 0 0 681.221)
(681.024 0 0 0 681.024 0 0 0 681.024)
(680.795 0 0 0 680.795 0 0 0 680.795)
(680.516 0 0 0 680.516 0 0 0 680.516)
(680.169 0 0 0 680.169 0 0 0 680.169)
(679.747 0 0 0 679.747 0 0 0 679.747)
(679.306 0 0 0 679.306 0 0 0 679.306)
(679.024 0 0 0 679.024 0 0 0 679.024)
(679.453 0 0 0 679.453 0 0 0 679.453)
(681.923 0 0 0 681.923 0 0 0 681.923)
(688.792 0 0 0 688.792 0 0 0 688.792)
(693.272 0 0 0 693.272 0 0 0 693.272)
(678.994 0 0 0 678.994 0 0 0 678.994)
(678.479 0 0 0 678.479 0 0 0 678.479)
(678.462 0 0 0 678.462 0 0 0 678.462)
(678.436 0 0 0 678.436 0 0 0 678.436)
(678.401 0 0 0 678.401 0 0 0 678.401)
(678.356 0 0 0 678.356 0 0 0 678.356)
(678.298 0 0 0 678.298 0 0 0 678.298)
(678.226 0 0 0 678.226 0 0 0 678.226)
(678.137 0 0 0 678.137 0 0 0 678.137)
(678.031 0 0 0 678.031 0 0 0 678.031)
(677.908 0 0 0 677.908 0 0 0 677.908)
(677.769 0 0 0 677.769 0 0 0 677.769)
(677.621 0 0 0 677.621 0 0 0 677.621)
(677.47 0 0 0 677.47 0 0 0 677.47)
(677.322 0 0 0 677.322 0 0 0 677.322)
(677.173 0 0 0 677.173 0 0 0 677.173)
(677.012 0 0 0 677.012 0 0 0 677.012)
(676.821 0 0 0 676.821 0 0 0 676.821)
(676.594 0 0 0 676.594 0 0 0 676.594)
(676.388 0 0 0 676.388 0 0 0 676.388)
(676.395 0 0 0 676.395 0 0 0 676.395)
(677.19 0 0 0 677.19 0 0 0 677.19)
(680.145 0 0 0 680.145 0 0 0 680.145)
(687.662 0 0 0 687.662 0 0 0 687.662)
(692.908 0 0 0 692.908 0 0 0 692.908)
(683.271 0 0 0 683.271 0 0 0 683.271)
(682.804 0 0 0 682.804 0 0 0 682.804)
(682.819 0 0 0 682.819 0 0 0 682.819)
(682.824 0 0 0 682.824 0 0 0 682.824)
(682.817 0 0 0 682.817 0 0 0 682.817)
(682.797 0 0 0 682.797 0 0 0 682.797)
(682.763 0 0 0 682.763 0 0 0 682.763)
(682.712 0 0 0 682.712 0 0 0 682.712)
(682.643 0 0 0 682.643 0 0 0 682.643)
(682.554 0 0 0 682.554 0 0 0 682.554)
(682.443 0 0 0 682.443 0 0 0 682.443)
(682.308 0 0 0 682.308 0 0 0 682.308)
(682.15 0 0 0 682.15 0 0 0 682.15)
(681.967 0 0 0 681.967 0 0 0 681.967)
(681.754 0 0 0 681.754 0 0 0 681.754)
(681.501 0 0 0 681.501 0 0 0 681.501)
(681.19 0 0 0 681.19 0 0 0 681.19)
(680.802 0 0 0 680.802 0 0 0 680.802)
(680.331 0 0 0 680.331 0 0 0 680.331)
(679.83 0 0 0 679.83 0 0 0 679.83)
(679.476 0 0 0 679.476 0 0 0 679.476)
(679.814 0 0 0 679.814 0 0 0 679.814)
(682.169 0 0 0 682.169 0 0 0 682.169)
(688.903 0 0 0 688.903 0 0 0 688.903)
(693.289 0 0 0 693.289 0 0 0 693.289)
(683.271 0 0 0 683.271 0 0 0 683.271)
(682.803 0 0 0 682.803 0 0 0 682.803)
(682.819 0 0 0 682.819 0 0 0 682.819)
(682.824 0 0 0 682.824 0 0 0 682.824)
(682.817 0 0 0 682.817 0 0 0 682.817)
(682.797 0 0 0 682.797 0 0 0 682.797)
(682.763 0 0 0 682.763 0 0 0 682.763)
(682.712 0 0 0 682.712 0 0 0 682.712)
(682.643 0 0 0 682.643 0 0 0 682.643)
(682.554 0 0 0 682.554 0 0 0 682.554)
(682.442 0 0 0 682.442 0 0 0 682.442)
(682.308 0 0 0 682.308 0 0 0 682.308)
(682.15 0 0 0 682.15 0 0 0 682.15)
(681.966 0 0 0 681.966 0 0 0 681.966)
(681.754 0 0 0 681.754 0 0 0 681.754)
(681.5 0 0 0 681.5 0 0 0 681.5)
(681.189 0 0 0 681.189 0 0 0 681.189)
(680.802 0 0 0 680.802 0 0 0 680.802)
(680.331 0 0 0 680.331 0 0 0 680.331)
(679.83 0 0 0 679.83 0 0 0 679.83)
(679.475 0 0 0 679.475 0 0 0 679.475)
(679.813 0 0 0 679.813 0 0 0 679.813)
(682.168 0 0 0 682.168 0 0 0 682.168)
(688.902 0 0 0 688.902 0 0 0 688.902)
(693.288 0 0 0 693.288 0 0 0 693.288)
(678.994 0 0 0 678.994 0 0 0 678.994)
(678.479 0 0 0 678.479 0 0 0 678.479)
(678.462 0 0 0 678.462 0 0 0 678.462)
(678.436 0 0 0 678.436 0 0 0 678.436)
(678.401 0 0 0 678.401 0 0 0 678.401)
(678.356 0 0 0 678.356 0 0 0 678.356)
(678.298 0 0 0 678.298 0 0 0 678.298)
(678.226 0 0 0 678.226 0 0 0 678.226)
(678.137 0 0 0 678.137 0 0 0 678.137)
(678.031 0 0 0 678.031 0 0 0 678.031)
(677.908 0 0 0 677.908 0 0 0 677.908)
(677.769 0 0 0 677.769 0 0 0 677.769)
(677.621 0 0 0 677.621 0 0 0 677.621)
(677.47 0 0 0 677.47 0 0 0 677.47)
(677.322 0 0 0 677.322 0 0 0 677.322)
(677.173 0 0 0 677.173 0 0 0 677.173)
(677.012 0 0 0 677.012 0 0 0 677.012)
(676.821 0 0 0 676.821 0 0 0 676.821)
(676.594 0 0 0 676.594 0 0 0 676.594)
(676.389 0 0 0 676.389 0 0 0 676.389)
(676.395 0 0 0 676.395 0 0 0 676.395)
(677.19 0 0 0 677.19 0 0 0 677.19)
(680.146 0 0 0 680.146 0 0 0 680.146)
(687.663 0 0 0 687.663 0 0 0 687.663)
(692.908 0 0 0 692.908 0 0 0 692.908)
)
;

boundaryField
{
    outletCentralUnloaded
    {
        type            zeroGradient;
    }
    inletCentralUnloaded
    {
        type            zeroGradient;
    }
    outletFuelElement
    {
        type            zeroGradient;
    }
    inletFuelElement
    {
        type            zeroGradient;
    }
    defaultFaces
    {
        type            zeroGradient;
    }
    baffle_master
    {
        type            zeroGradient;
    }
    baffle_slave
    {
        type            zeroGradient;
    }
}


// ************************************************************************* //
