/*--------------------------------*- C++ -*----------------------------------*\
| =========                 |                                                 |
| \\      /  F ield         | OpenFOAM: The Open Source CFD Toolbox           |
|  \\    /   O peration     | Version:  2212                                  |
|   \\  /    A nd           | Website:  www.openfoam.com                      |
|    \\/     M anipulation  |                                                 |
\*---------------------------------------------------------------------------*/
FoamFile
{
    version     2.0;
    format      ascii;
    arch        "LSB;label=32;scalar=64";
    class       volScalarField;
    location    "47/fluidRegion";
    object      p;
}
// * * * * * * * * * * * * * * * * * * * * * * * * * * * * * * * * * * * * * //

dimensions      [1 -1 -2 0 0 0 0];

internalField   nonuniform List<scalar> 
350
(
3.44743e+06
3.44773e+06
3.44802e+06
3.44832e+06
3.44861e+06
3.44891e+06
3.4492e+06
3.4495e+06
3.44979e+06
3.45009e+06
3.45038e+06
3.45068e+06
3.45097e+06
3.45127e+06
3.45157e+06
3.45186e+06
3.45216e+06
3.45245e+06
3.45275e+06
3.45304e+06
3.45334e+06
3.45363e+06
3.45393e+06
3.45422e+06
3.45451e+06
3.44743e+06
3.44773e+06
3.44802e+06
3.44832e+06
3.44861e+06
3.44891e+06
3.4492e+06
3.4495e+06
3.44979e+06
3.45009e+06
3.45038e+06
3.45068e+06
3.45097e+06
3.45127e+06
3.45157e+06
3.45186e+06
3.45216e+06
3.45245e+06
3.45275e+06
3.45304e+06
3.45334e+06
3.45363e+06
3.45393e+06
3.45422e+06
3.45451e+06
3.4738e+06
3.52554e+06
3.57668e+06
3.62691e+06
3.67592e+06
3.72343e+06
3.76918e+06
3.81293e+06
3.85447e+06
3.89362e+06
3.93022e+06
3.96412e+06
3.99522e+06
4.02344e+06
4.04873e+06
4.07109e+06
4.09057e+06
4.10725e+06
4.12127e+06
4.13281e+06
4.14206e+06
4.14926e+06
4.15463e+06
4.15849e+06
4.16116e+06
3.4738e+06
3.52554e+06
3.57668e+06
3.62691e+06
3.67592e+06
3.72343e+06
3.76918e+06
3.81293e+06
3.85447e+06
3.89362e+06
3.93022e+06
3.96412e+06
3.99522e+06
4.02344e+06
4.04873e+06
4.07109e+06
4.09057e+06
4.10725e+06
4.12127e+06
4.13281e+06
4.14206e+06
4.14926e+06
4.15463e+06
4.15849e+06
4.16116e+06
3.4738e+06
3.52554e+06
3.57668e+06
3.62691e+06
3.67592e+06
3.72343e+06
3.76918e+06
3.81293e+06
3.85447e+06
3.89362e+06
3.93022e+06
3.96412e+06
3.99522e+06
4.02344e+06
4.04873e+06
4.07109e+06
4.09057e+06
4.10725e+06
4.12127e+06
4.13281e+06
4.14206e+06
4.14926e+06
4.15463e+06
4.15849e+06
4.16116e+06
3.4738e+06
3.52554e+06
3.57668e+06
3.62691e+06
3.67592e+06
3.72343e+06
3.76918e+06
3.81293e+06
3.85447e+06
3.89362e+06
3.93022e+06
3.96412e+06
3.99522e+06
4.02344e+06
4.04873e+06
4.07109e+06
4.09057e+06
4.10725e+06
4.12127e+06
4.13281e+06
4.14206e+06
4.14926e+06
4.15463e+06
4.15849e+06
4.16116e+06
3.4738e+06
3.52554e+06
3.57668e+06
3.62691e+06
3.67592e+06
3.72343e+06
3.76918e+06
3.81293e+06
3.85447e+06
3.89362e+06
3.93022e+06
3.96412e+06
3.99522e+06
4.02344e+06
4.04873e+06
4.07109e+06
4.09057e+06
4.10725e+06
4.12127e+06
4.13281e+06
4.14206e+06
4.14926e+06
4.15463e+06
4.15849e+06
4.16116e+06
3.4738e+06
3.52554e+06
3.57668e+06
3.62691e+06
3.67592e+06
3.72343e+06
3.76918e+06
3.81293e+06
3.85447e+06
3.89362e+06
3.93022e+06
3.96412e+06
3.99522e+06
4.02344e+06
4.04873e+06
4.07109e+06
4.09057e+06
4.10725e+06
4.12127e+06
4.13281e+06
4.14206e+06
4.14926e+06
4.15463e+06
4.15849e+06
4.16116e+06
3.4738e+06
3.52554e+06
3.57668e+06
3.62691e+06
3.67592e+06
3.72343e+06
3.76918e+06
3.81293e+06
3.85447e+06
3.89362e+06
3.93022e+06
3.96412e+06
3.99522e+06
4.02344e+06
4.04873e+06
4.07109e+06
4.09057e+06
4.10725e+06
4.12127e+06
4.13281e+06
4.14206e+06
4.14926e+06
4.15463e+06
4.15849e+06
4.16116e+06
3.4738e+06
3.52554e+06
3.57668e+06
3.62691e+06
3.67592e+06
3.72343e+06
3.76918e+06
3.81293e+06
3.85447e+06
3.89362e+06
3.93022e+06
3.96412e+06
3.99522e+06
4.02344e+06
4.04873e+06
4.07109e+06
4.09057e+06
4.10725e+06
4.12127e+06
4.13281e+06
4.14206e+06
4.14926e+06
4.15463e+06
4.15849e+06
4.16116e+06
3.4738e+06
3.52554e+06
3.57668e+06
3.62691e+06
3.67592e+06
3.72343e+06
3.76918e+06
3.81293e+06
3.85447e+06
3.89362e+06
3.93022e+06
3.96412e+06
3.99522e+06
4.02344e+06
4.04873e+06
4.07109e+06
4.09057e+06
4.10725e+06
4.12127e+06
4.13281e+06
4.14206e+06
4.14926e+06
4.15463e+06
4.15849e+06
4.16116e+06
3.4738e+06
3.52554e+06
3.57668e+06
3.62691e+06
3.67592e+06
3.72343e+06
3.76918e+06
3.81293e+06
3.85447e+06
3.89362e+06
3.93022e+06
3.96412e+06
3.99522e+06
4.02344e+06
4.04873e+06
4.07109e+06
4.09057e+06
4.10725e+06
4.12127e+06
4.13281e+06
4.14206e+06
4.14926e+06
4.15463e+06
4.15849e+06
4.16116e+06
3.4738e+06
3.52554e+06
3.57668e+06
3.62691e+06
3.67592e+06
3.72343e+06
3.76918e+06
3.81293e+06
3.85447e+06
3.89362e+06
3.93022e+06
3.96412e+06
3.99522e+06
4.02344e+06
4.04873e+06
4.07109e+06
4.09057e+06
4.10725e+06
4.12127e+06
4.13281e+06
4.14206e+06
4.14926e+06
4.15463e+06
4.15849e+06
4.16116e+06
3.4738e+06
3.52554e+06
3.57668e+06
3.62691e+06
3.67592e+06
3.72343e+06
3.76918e+06
3.81293e+06
3.85447e+06
3.89362e+06
3.93022e+06
3.96412e+06
3.99522e+06
4.02344e+06
4.04873e+06
4.07109e+06
4.09057e+06
4.10725e+06
4.12127e+06
4.13281e+06
4.14206e+06
4.14926e+06
4.15463e+06
4.15849e+06
4.16116e+06
)
;

boundaryField
{
    outletCentralUnloaded
    {
        type            fixedValue;
        value           uniform 3.44728e+06;
    }
    inletCentralUnloaded
    {
        type            zeroGradient;
    }
    outletFuelElement
    {
        type            fixedValue;
        value           uniform 3.44728e+06;
    }
    inletFuelElement
    {
        type            zeroGradient;
    }
    defaultFaces
    {
        type            zeroGradient;
    }
    baffle_master
    {
        type            zeroGradient;
    }
    baffle_slave
    {
        type            zeroGradient;
    }
}


// ************************************************************************* //
