/*--------------------------------*- C++ -*----------------------------------*\
| =========                 |                                                 |
| \\      /  F ield         | OpenFOAM: The Open Source CFD Toolbox           |
|  \\    /   O peration     | Version:  2212                                  |
|   \\  /    A nd           | Website:  www.openfoam.com                      |
|    \\/     M anipulation  |                                                 |
\*---------------------------------------------------------------------------*/
FoamFile
{
    version     2.0;
    format      ascii;
    arch        "LSB;label=32;scalar=64";
    class       volScalarField;
    location    "47/fluidRegion";
    object      T.fuelAvForNeutronics;
}
// * * * * * * * * * * * * * * * * * * * * * * * * * * * * * * * * * * * * * //

dimensions      [0 0 0 1 0 0 0];

internalField   nonuniform List<scalar> 
350
(
0
0
0
0
0
0
0
0
0
0
0
0
0
0
0
0
0
0
0
0
0
0
0
0
0
0
0
0
0
0
0
0
0
0
0
0
0
0
0
0
0
0
0
0
0
0
0
0
0
0
2210.29
2997.22
3753.47
4467.53
5128.45
5726.08
6251.22
6695.76
7052.83
7316.89
7483.86
7551.16
7517.77
7384.29
7152.88
6827.25
6412.43
5914.56
5340.37
4696.66
3989.15
3221.26
2392.72
1502.83
564.859
2242.75
3038.88
3803.9
4526.16
5194.6
5798.94
6329.88
6779.23
7140.02
7406.69
7575.08
7642.6
7608.22
7472.55
7237.79
6907.69
6487.39
5983.12
5401.76
4750.24
4034.36
3257.57
2419.51
1519.31
570.392
2205.03
2990.51
3745.39
4458.16
5117.9
5714.48
6238.71
6682.5
7038.99
7302.65
7469.4
7536.67
7503.45
7370.32
7139.45
6814.53
6400.58
5903.72
5330.67
4688.2
3982.03
3215.55
2388.52
1500.25
563.986
2235.43
3029.42
3792.41
4512.77
5179.46
5782.24
6311.84
6760.06
7119.99
7386.05
7554.1
7621.56
7587.4
7452.23
7218.24
6889.16
6470.12
5967.33
5387.62
4737.9
4023.95
3249.2
2413.34
1515.51
569.117
2235.43
3029.42
3792.41
4512.77
5179.46
5782.24
6311.84
6760.06
7119.99
7386.05
7554.1
7621.56
7587.4
7452.23
7218.24
6889.16
6470.12
5967.33
5387.62
4737.9
4023.94
3249.2
2413.34
1515.51
569.117
2205.03
2990.51
3745.39
4458.16
5117.9
5714.48
6238.71
6682.5
7038.99
7302.65
7469.4
7536.67
7503.45
7370.32
7139.45
6814.53
6400.58
5903.72
5330.67
4688.2
3982.03
3215.55
2388.52
1500.25
563.986
2242.75
3038.88
3803.9
4526.16
5194.6
5798.94
6329.88
6779.22
7140.02
7406.69
7575.08
7642.6
7608.22
7472.55
7237.79
6907.69
6487.39
5983.12
5401.76
4750.24
4034.36
3257.57
2419.51
1519.31
570.393
2210.29
2997.22
3753.47
4467.53
5128.45
5726.08
6251.22
6695.76
7052.83
7316.89
7483.86
7551.15
7517.77
7384.28
7152.88
6827.25
6412.43
5914.56
5340.37
4696.66
3989.15
3221.26
2392.72
1502.83
564.859
2235.43
3029.42
3792.41
4512.77
5179.46
5782.24
6311.84
6760.06
7119.99
7386.05
7554.1
7621.56
7587.4
7452.23
7218.24
6889.16
6470.12
5967.33
5387.62
4737.9
4023.94
3249.2
2413.34
1515.51
569.117
2205.02
2990.51
3745.39
4458.16
5117.9
5714.48
6238.71
6682.5
7038.99
7302.65
7469.4
7536.67
7503.45
7370.32
7139.45
6814.53
6400.58
5903.72
5330.67
4688.2
3982.03
3215.55
2388.52
1500.25
563.986
2205.03
2990.51
3745.39
4458.16
5117.9
5714.48
6238.71
6682.5
7038.99
7302.65
7469.4
7536.67
7503.45
7370.32
7139.45
6814.53
6400.58
5903.72
5330.67
4688.21
3982.03
3215.55
2388.52
1500.25
563.986
2235.43
3029.42
3792.41
4512.77
5179.46
5782.24
6311.84
6760.06
7119.99
7386.05
7554.1
7621.56
7587.4
7452.23
7218.24
6889.16
6470.12
5967.33
5387.62
4737.9
4023.94
3249.2
2413.34
1515.51
569.117
)
;

boundaryField
{
    outletCentralUnloaded
    {
        type            zeroGradient;
    }
    inletCentralUnloaded
    {
        type            zeroGradient;
    }
    outletFuelElement
    {
        type            zeroGradient;
    }
    inletFuelElement
    {
        type            zeroGradient;
    }
    defaultFaces
    {
        type            zeroGradient;
    }
    baffle_master
    {
        type            zeroGradient;
    }
    baffle_slave
    {
        type            zeroGradient;
    }
}


// ************************************************************************* //
