/*--------------------------------*- C++ -*----------------------------------*\
| =========                 |                                                 |
| \\      /  F ield         | OpenFOAM: The Open Source CFD Toolbox           |
|  \\    /   O peration     | Version:  2212                                  |
|   \\  /    A nd           | Website:  www.openfoam.com                      |
|    \\/     M anipulation  |                                                 |
\*---------------------------------------------------------------------------*/
FoamFile
{
    version     2.0;
    format      ascii;
    arch        "LSB;label=32;scalar=64";
    class       volScalarField;
    location    "47/fluidRegion";
    object      Tcav.nuclearFuelPin;
}
// * * * * * * * * * * * * * * * * * * * * * * * * * * * * * * * * * * * * * //

dimensions      [0 0 0 1 0 0 0];

internalField   nonuniform List<scalar> 
350
(
0
0
0
0
0
0
0
0
0
0
0
0
0
0
0
0
0
0
0
0
0
0
0
0
0
0
0
0
0
0
0
0
0
0
0
0
0
0
0
0
0
0
0
0
0
0
0
0
0
0
1842.8
1881.05
1906.36
1918.71
1918.24
1905.22
1880.07
1843.36
1795.8
1738.24
1671.65
1597.14
1515.92
1429.34
1338.82
1245.85
1151.79
1057.71
964.011
869.864
772.351
665.184
537.647
377.711
187.025
1871.17
1910.04
1935.74
1948.26
1947.72
1934.41
1908.76
1871.33
1822.87
1764.21
1696.37
1620.45
1537.69
1449.45
1357.19
1262.4
1166.52
1070.67
975.304
879.629
780.728
672.231
543.206
381.323
188.245
1838.19
1876.36
1901.63
1913.98
1913.53
1900.57
1875.52
1838.94
1791.54
1734.16
1667.79
1593.51
1512.54
1426.23
1335.99
1243.3
1149.53
1055.73
962.291
868.382
771.088
664.133
536.83
377.185
186.839
1864.79
1903.51
1929.1
1941.56
1941.03
1927.77
1902.22
1864.94
1816.67
1758.26
1690.7
1615.09
1532.68
1444.82
1352.95
1258.58
1163.12
1067.68
972.693
877.37
778.79
670.6
541.918
380.484
187.963
1864.79
1903.51
1929.1
1941.56
1941.03
1927.77
1902.22
1864.94
1816.67
1758.26
1690.7
1615.09
1532.68
1444.82
1352.95
1258.58
1163.12
1067.68
972.693
877.37
778.79
670.6
541.918
380.484
187.963
1838.19
1876.37
1901.63
1913.98
1913.53
1900.58
1875.52
1838.94
1791.54
1734.17
1667.79
1593.51
1512.54
1426.23
1335.99
1243.3
1149.53
1055.73
962.291
868.383
771.089
664.134
536.83
377.185
186.839
1871.17
1910.04
1935.74
1948.26
1947.72
1934.41
1908.76
1871.33
1822.87
1764.21
1696.37
1620.45
1537.69
1449.45
1357.19
1262.4
1166.52
1070.67
975.304
879.629
780.728
672.231
543.206
381.322
188.245
1842.8
1881.05
1906.36
1918.71
1918.24
1905.22
1880.07
1843.36
1795.8
1738.24
1671.65
1597.14
1515.92
1429.34
1338.82
1245.85
1151.79
1057.71
964.011
869.864
772.351
665.184
537.648
377.711
187.025
1864.79
1903.51
1929.1
1941.56
1941.03
1927.77
1902.22
1864.94
1816.67
1758.26
1690.7
1615.09
1532.68
1444.82
1352.95
1258.58
1163.12
1067.68
972.693
877.37
778.79
670.6
541.918
380.484
187.963
1838.19
1876.36
1901.63
1913.98
1913.53
1900.57
1875.52
1838.94
1791.54
1734.16
1667.79
1593.51
1512.54
1426.23
1335.99
1243.3
1149.53
1055.73
962.291
868.382
771.088
664.133
536.83
377.185
186.839
1838.19
1876.37
1901.63
1913.98
1913.53
1900.58
1875.52
1838.94
1791.54
1734.17
1667.79
1593.51
1512.54
1426.23
1335.99
1243.3
1149.53
1055.73
962.291
868.383
771.089
664.133
536.83
377.185
186.839
1864.79
1903.51
1929.1
1941.56
1941.03
1927.77
1902.22
1864.94
1816.67
1758.26
1690.7
1615.09
1532.68
1444.82
1352.95
1258.58
1163.12
1067.68
972.693
877.37
778.79
670.6
541.918
380.484
187.963
)
;

boundaryField
{
    outletCentralUnloaded
    {
        type            zeroGradient;
    }
    inletCentralUnloaded
    {
        type            zeroGradient;
    }
    outletFuelElement
    {
        type            zeroGradient;
    }
    inletFuelElement
    {
        type            zeroGradient;
    }
    defaultFaces
    {
        type            zeroGradient;
    }
    baffle_master
    {
        type            zeroGradient;
    }
    baffle_slave
    {
        type            zeroGradient;
    }
}


// ************************************************************************* //
