/*--------------------------------*- C++ -*----------------------------------*\
| =========                 |                                                 |
| \\      /  F ield         | OpenFOAM: The Open Source CFD Toolbox           |
|  \\    /   O peration     | Version:  2212                                  |
|   \\  /    A nd           | Website:  www.openfoam.com                      |
|    \\/     M anipulation  |                                                 |
\*---------------------------------------------------------------------------*/
FoamFile
{
    version     2.0;
    format      ascii;
    arch        "LSB;label=32;scalar=64";
    class       volScalarField;
    location    "47/fluidRegion";
    object      Tci.nuclearFuelPin;
}
// * * * * * * * * * * * * * * * * * * * * * * * * * * * * * * * * * * * * * //

dimensions      [0 0 0 1 0 0 0];

internalField   nonuniform List<scalar> 
350
(
0
0
0
0
0
0
0
0
0
0
0
0
0
0
0
0
0
0
0
0
0
0
0
0
0
0
0
0
0
0
0
0
0
0
0
0
0
0
0
0
0
0
0
0
0
0
0
0
0
0
1848.76
1899.14
1936.28
1960
1970.25
1967.11
1950.88
1921.96
1880.96
1828.6
1765.8
1693.58
1613.14
1525.8
1433
1336.25
1237
1136.38
1034.9
931.849
824.456
706.587
567.695
395.935
193.144
1877.2
1928.34
1966.01
1990.02
2000.32
1997.01
1980.37
1950.83
1908.99
1855.61
1791.59
1717.99
1636.02
1547.01
1452.44
1353.84
1252.71
1150.24
1047
942.324
833.429
714.108
573.598
399.755
194.434
1844.14
1894.42
1931.5
1955.19
1965.44
1962.36
1946.2
1917.4
1876.54
1824.36
1761.76
1689.77
1609.58
1522.51
1430
1333.54
1234.58
1134.25
1033.05
930.254
823.098
705.46
566.823
395.376
192.947
1870.8
1921.75
1959.28
1983.22
1993.49
1990.21
1973.65
1944.24
1902.58
1849.42
1785.67
1712.38
1630.75
1542.12
1447.96
1349.78
1249.08
1147.04
1044.2
939.902
831.354
712.367
572.23
398.869
194.136
1870.8
1921.75
1959.29
1983.22
1993.49
1990.21
1973.65
1944.24
1902.58
1849.42
1785.67
1712.38
1630.75
1542.12
1447.96
1349.78
1249.08
1147.04
1044.2
939.902
831.354
712.367
572.23
398.869
194.136
1844.14
1894.42
1931.5
1955.19
1965.44
1962.36
1946.2
1917.4
1876.54
1824.37
1761.76
1689.77
1609.58
1522.51
1430
1333.54
1234.58
1134.26
1033.05
930.255
823.098
705.461
566.823
395.376
192.947
1877.2
1928.34
1966.01
1990.02
2000.32
1997.01
1980.37
1950.83
1908.99
1855.61
1791.59
1717.99
1636.02
1547.01
1452.44
1353.84
1252.71
1150.24
1047
942.324
833.429
714.108
573.598
399.755
194.434
1848.76
1899.14
1936.28
1960
1970.25
1967.11
1950.88
1921.96
1880.96
1828.6
1765.8
1693.58
1613.14
1525.8
1433
1336.25
1237
1136.38
1034.9
931.849
824.456
706.587
567.695
395.935
193.144
1870.8
1921.75
1959.28
1983.22
1993.49
1990.21
1973.65
1944.24
1902.58
1849.42
1785.67
1712.38
1630.75
1542.12
1447.96
1349.78
1249.08
1147.04
1044.2
939.902
831.354
712.367
572.23
398.869
194.136
1844.14
1894.42
1931.5
1955.19
1965.44
1962.36
1946.2
1917.4
1876.54
1824.36
1761.76
1689.77
1609.58
1522.51
1430
1333.54
1234.58
1134.25
1033.05
930.255
823.098
705.46
566.823
395.376
192.947
1844.14
1894.42
1931.5
1955.19
1965.44
1962.36
1946.2
1917.4
1876.54
1824.37
1761.76
1689.77
1609.58
1522.51
1430
1333.54
1234.58
1134.26
1033.05
930.255
823.098
705.46
566.823
395.376
192.947
1870.8
1921.75
1959.28
1983.22
1993.49
1990.21
1973.65
1944.24
1902.58
1849.42
1785.67
1712.38
1630.75
1542.12
1447.96
1349.78
1249.08
1147.04
1044.2
939.902
831.354
712.367
572.23
398.869
194.136
)
;

boundaryField
{
    outletCentralUnloaded
    {
        type            zeroGradient;
    }
    inletCentralUnloaded
    {
        type            zeroGradient;
    }
    outletFuelElement
    {
        type            zeroGradient;
    }
    inletFuelElement
    {
        type            zeroGradient;
    }
    defaultFaces
    {
        type            zeroGradient;
    }
    baffle_master
    {
        type            zeroGradient;
    }
    baffle_slave
    {
        type            zeroGradient;
    }
}


// ************************************************************************* //
