/*--------------------------------*- C++ -*----------------------------------*\
| =========                 |                                                 |
| \\      /  F ield         | OpenFOAM: The Open Source CFD Toolbox           |
|  \\    /   O peration     | Version:  2212                                  |
|   \\  /    A nd           | Website:  www.openfoam.com                      |
|    \\/     M anipulation  |                                                 |
\*---------------------------------------------------------------------------*/
FoamFile
{
    version     2.0;
    format      ascii;
    arch        "LSB;label=32;scalar=64";
    class       volScalarField;
    location    "47/fluidRegion";
    object      Tco.nuclearFuelPin;
}
// * * * * * * * * * * * * * * * * * * * * * * * * * * * * * * * * * * * * * //

dimensions      [0 0 0 1 0 0 0];

internalField   nonuniform List<scalar> 
350
(
0
0
0
0
0
0
0
0
0
0
0
0
0
0
0
0
0
0
0
0
0
0
0
0
0
0
0
0
0
0
0
0
0
0
0
0
0
0
0
0
0
0
0
0
0
0
0
0
0
0
1837.24
1864.17
1878.42
1880.17
1869.7
1847.44
1813.97
1769.99
1716.31
1653.89
1583.77
1507.11
1425.17
1339.3
1250.91
1161.45
1072.24
984.272
897.839
812.001
723.712
626.535
509.598
360.7
181.313
1865.55
1892.97
1907.49
1909.27
1898.62
1875.97
1841.9
1797.12
1742.46
1678.89
1607.48
1529.39
1445.9
1358.38
1268.27
1177.04
1086.07
996.395
908.374
821.103
731.532
633.14
514.835
364.116
182.468
1832.64
1859.51
1873.74
1875.5
1865.08
1842.9
1809.54
1765.7
1712.19
1649.96
1580.06
1503.64
1421.95
1336.35
1248.24
1159.06
1070.13
982.424
896.239
810.625
722.537
625.554
508.831
360.204
181.137
1859.18
1886.47
1900.92
1902.68
1892.06
1869.48
1835.54
1790.92
1736.48
1673.17
1602.04
1524.27
1441.13
1353.98
1264.27
1173.44
1082.87
993.592
905.937
818.997
729.722
631.61
513.621
363.323
182.201
1859.18
1886.47
1900.92
1902.68
1892.06
1869.48
1835.54
1790.92
1736.48
1673.17
1602.04
1524.27
1441.13
1353.98
1264.27
1173.44
1082.87
993.592
905.937
818.997
729.722
631.61
513.621
363.323
182.201
1832.64
1859.51
1873.74
1875.5
1865.08
1842.9
1809.54
1765.7
1712.19
1649.97
1580.06
1503.64
1421.95
1336.35
1248.24
1159.06
1070.13
982.425
896.239
810.625
722.538
625.555
508.832
360.205
181.137
1865.55
1892.97
1907.49
1909.27
1898.62
1875.97
1841.9
1797.12
1742.46
1678.89
1607.48
1529.39
1445.9
1358.38
1268.27
1177.04
1086.07
996.394
908.374
821.103
731.532
633.14
514.836
364.116
182.468
1837.24
1864.17
1878.42
1880.17
1869.7
1847.44
1813.97
1769.99
1716.31
1653.89
1583.77
1507.11
1425.17
1339.3
1250.91
1161.45
1072.24
984.272
897.839
812.001
723.712
626.535
509.598
360.7
181.313
1859.18
1886.47
1900.92
1902.68
1892.06
1869.48
1835.54
1790.92
1736.48
1673.17
1602.04
1524.27
1441.13
1353.98
1264.27
1173.44
1082.87
993.592
905.937
818.997
729.722
631.61
513.621
363.323
182.201
1832.64
1859.51
1873.74
1875.5
1865.08
1842.9
1809.54
1765.7
1712.19
1649.96
1580.06
1503.64
1421.95
1336.35
1248.24
1159.06
1070.13
982.424
896.239
810.625
722.537
625.554
508.831
360.204
181.137
1832.64
1859.51
1873.74
1875.5
1865.08
1842.9
1809.54
1765.7
1712.19
1649.97
1580.06
1503.64
1421.95
1336.35
1248.24
1159.06
1070.13
982.425
896.239
810.625
722.538
625.555
508.832
360.205
181.137
1859.18
1886.47
1900.92
1902.68
1892.06
1869.48
1835.54
1790.92
1736.48
1673.17
1602.04
1524.27
1441.13
1353.98
1264.27
1173.44
1082.87
993.592
905.937
818.997
729.722
631.61
513.621
363.323
182.201
)
;

boundaryField
{
    outletCentralUnloaded
    {
        type            zeroGradient;
    }
    inletCentralUnloaded
    {
        type            zeroGradient;
    }
    outletFuelElement
    {
        type            zeroGradient;
    }
    inletFuelElement
    {
        type            zeroGradient;
    }
    defaultFaces
    {
        type            zeroGradient;
    }
    baffle_master
    {
        type            zeroGradient;
    }
    baffle_slave
    {
        type            zeroGradient;
    }
}


// ************************************************************************* //
