/*--------------------------------*- C++ -*----------------------------------*\
| =========                 |                                                 |
| \\      /  F ield         | OpenFOAM: The Open Source CFD Toolbox           |
|  \\    /   O peration     | Version:  2212                                  |
|   \\  /    A nd           | Website:  www.openfoam.com                      |
|    \\/     M anipulation  |                                                 |
\*---------------------------------------------------------------------------*/
FoamFile
{
    version     2.0;
    format      ascii;
    arch        "LSB;label=32;scalar=64";
    class       volScalarField;
    location    "47/fluidRegion";
    object      Tfi.nuclearFuelPin;
}
// * * * * * * * * * * * * * * * * * * * * * * * * * * * * * * * * * * * * * //

dimensions      [0 0 0 1 0 0 0];

internalField   nonuniform List<scalar> 
350
(
0
0
0
0
0
0
0
0
0
0
0
0
0
0
0
0
0
0
0
0
0
0
0
0
0
0
0
0
0
0
0
0
0
0
0
0
0
0
0
0
0
0
0
0
0
0
0
0
0
0
2406.1
3594.19
4742.11
5832.17
6847.49
7772.35
8592.37
9294.81
9868.72
10305.2
10597.3
10740.7
10733
10574.4
10267.6
9817.32
9230.69
8516.52
7684.92
6746.81
5712.5
4590.62
3386.54
2105.63
767.389
2440.72
3642.61
4803.79
5906.36
6933.27
7868.59
8697.79
9407.99
9988.12
10429.1
10724.2
10868.6
10860.2
10699.2
10388.1
9931.98
9337.91
8614.87
7773.15
6823.86
5777.43
4642.61
3424.71
2129
775.232
2400.49
3586.4
4732.23
5820.32
6833.82
7757.03
8575.6
9276.82
9849.76
10285.5
10577.2
10720.4
10712.8
10554.6
10248.4
9799.15
9213.71
8500.94
7670.94
6734.61
5702.23
4582.41
3380.53
2101.95
766.148
2432.9
3631.6
4789.71
5889.39
6913.61
7846.51
8673.59
9381.99
9960.68
10400.6
10695
10839.2
10830.9
10670.4
10360.3
9905.58
9313.22
8592.21
7752.83
6806.11
5762.48
4630.63
3415.91
2123.61
773.426
2432.9
3631.6
4789.71
5889.39
6913.61
7846.51
8673.59
9381.99
9960.68
10400.6
10695
10839.2
10830.9
10670.4
10360.3
9905.58
9313.22
8592.21
7752.83
6806.11
5762.48
4630.63
3415.91
2123.61
773.426
2400.49
3586.4
4732.24
5820.32
6833.82
7757.03
8575.6
9276.82
9849.76
10285.5
10577.2
10720.4
10712.8
10554.6
10248.4
9799.15
9213.71
8500.94
7670.94
6734.61
5702.23
4582.42
3380.54
2101.95
766.148
2440.72
3642.61
4803.79
5906.36
6933.27
7868.59
8697.79
9407.99
9988.12
10429.1
10724.2
10868.6
10860.2
10699.2
10388.1
9931.98
9337.91
8614.86
7773.15
6823.85
5777.43
4642.61
3424.71
2129
775.232
2406.09
3594.19
4742.11
5832.17
6847.49
7772.35
8592.37
9294.81
9868.72
10305.2
10597.3
10740.7
10732.9
10574.4
10267.6
9817.32
9230.69
8516.51
7684.92
6746.81
5712.5
4590.62
3386.55
2105.63
767.389
2432.9
3631.6
4789.71
5889.39
6913.61
7846.51
8673.59
9381.99
9960.68
10400.6
10695
10839.2
10830.9
10670.4
10360.3
9905.58
9313.22
8592.21
7752.83
6806.11
5762.48
4630.63
3415.91
2123.61
773.426
2400.49
3586.4
4732.24
5820.32
6833.82
7757.03
8575.6
9276.82
9849.76
10285.5
10577.2
10720.4
10712.8
10554.6
10248.4
9799.15
9213.71
8500.94
7670.94
6734.61
5702.23
4582.42
3380.53
2101.95
766.148
2400.49
3586.4
4732.24
5820.32
6833.82
7757.03
8575.6
9276.82
9849.76
10285.5
10577.2
10720.4
10712.8
10554.6
10248.4
9799.15
9213.71
8500.94
7670.94
6734.61
5702.23
4582.42
3380.54
2101.95
766.148
2432.9
3631.6
4789.71
5889.39
6913.61
7846.51
8673.59
9381.99
9960.68
10400.6
10695
10839.2
10830.9
10670.4
10360.3
9905.58
9313.22
8592.21
7752.83
6806.11
5762.48
4630.63
3415.91
2123.61
773.426
)
;

boundaryField
{
    outletCentralUnloaded
    {
        type            zeroGradient;
    }
    inletCentralUnloaded
    {
        type            zeroGradient;
    }
    outletFuelElement
    {
        type            zeroGradient;
    }
    inletFuelElement
    {
        type            zeroGradient;
    }
    defaultFaces
    {
        type            zeroGradient;
    }
    baffle_master
    {
        type            zeroGradient;
    }
    baffle_slave
    {
        type            zeroGradient;
    }
}


// ************************************************************************* //
