/*--------------------------------*- C++ -*----------------------------------*\
| =========                 |                                                 |
| \\      /  F ield         | OpenFOAM: The Open Source CFD Toolbox           |
|  \\    /   O peration     | Version:  2212                                  |
|   \\  /    A nd           | Website:  www.openfoam.com                      |
|    \\/     M anipulation  |                                                 |
\*---------------------------------------------------------------------------*/
FoamFile
{
    version     2.0;
    format      ascii;
    arch        "LSB;label=32;scalar=64";
    class       volScalarField;
    location    "47/fluidRegion";
    object      Tfo.nuclearFuelPin;
}
// * * * * * * * * * * * * * * * * * * * * * * * * * * * * * * * * * * * * * //

dimensions      [0 0 0 1 0 0 0];

internalField   nonuniform List<scalar> 
350
(
0
0
0
0
0
0
0
0
0
0
0
0
0
0
0
0
0
0
0
0
0
0
0
0
0
0
0
0
0
0
0
0
0
0
0
0
0
0
0
0
0
0
0
0
0
0
0
0
0
0
2015.44
2404.71
2772.72
3114.07
3423.69
3696.97
3929.82
4118.74
4260.88
4354.1
4397.01
4388.96
4330.16
4221.57
4064.98
3862.9
3618.43
3335.02
3016.02
2664.19
2280.66
1863.69
1407.46
905.25
364.151
2045.73
2439.65
2811.98
3157.26
3470.37
3746.65
3981.95
4172.74
4316.15
4410.01
4452.91
4444.22
4384.13
4273.64
4114.55
3909.41
3661.41
3374.05
3050.8
2694.5
2306.31
1884.46
1422.98
914.896
367.394
2010.52
2399.07
2766.42
3107.16
3416.25
3689.07
3921.54
4110.17
4252.13
4345.26
4388.17
4380.24
4321.65
4213.37
4057.18
3855.58
3611.68
3328.88
3010.55
2659.44
2276.65
1860.45
1405.06
903.762
363.643
2038.91
2431.74
2803.06
3147.43
3459.72
3735.29
3970.01
4160.36
4303.46
4397.17
4440.06
4431.51
4371.71
4261.65
4103.13
3898.7
3651.5
3365.05
3042.78
2687.51
2300.39
1879.67
1419.4
912.669
366.646
2038.91
2431.74
2803.06
3147.43
3459.72
3735.29
3970.01
4160.36
4303.46
4397.17
4440.06
4431.51
4371.71
4261.65
4103.13
3898.7
3651.5
3365.05
3042.78
2687.51
2300.39
1879.67
1419.4
912.669
366.646
2010.52
2399.08
2766.42
3107.16
3416.25
3689.07
3921.54
4110.18
4252.13
4345.26
4388.17
4380.24
4321.65
4213.37
4057.18
3855.58
3611.68
3328.88
3010.56
2659.44
2276.65
1860.46
1405.06
903.763
363.643
2045.73
2439.65
2811.98
3157.26
3470.37
3746.65
3981.95
4172.74
4316.15
4410.01
4452.91
4444.22
4384.13
4273.64
4114.55
3909.41
3661.41
3374.05
3050.8
2694.5
2306.31
1884.46
1422.98
914.896
367.394
2015.44
2404.71
2772.72
3114.07
3423.69
3696.97
3929.82
4118.74
4260.88
4354.1
4397
4388.96
4330.16
4221.57
4064.98
3862.9
3618.43
3335.02
3016.02
2664.19
2280.66
1863.69
1407.46
905.25
364.151
2038.91
2431.74
2803.06
3147.43
3459.72
3735.29
3970.01
4160.36
4303.46
4397.17
4440.06
4431.51
4371.71
4261.65
4103.13
3898.7
3651.5
3365.05
3042.78
2687.51
2300.39
1879.67
1419.4
912.669
366.646
2010.52
2399.07
2766.42
3107.16
3416.24
3689.07
3921.54
4110.17
4252.13
4345.26
4388.17
4380.24
4321.65
4213.36
4057.18
3855.58
3611.68
3328.88
3010.55
2659.44
2276.65
1860.45
1405.06
903.762
363.643
2010.52
2399.08
2766.42
3107.16
3416.25
3689.07
3921.54
4110.18
4252.13
4345.26
4388.17
4380.24
4321.65
4213.37
4057.18
3855.58
3611.68
3328.88
3010.56
2659.44
2276.65
1860.45
1405.06
903.763
363.643
2038.91
2431.74
2803.06
3147.43
3459.72
3735.29
3970.01
4160.36
4303.46
4397.17
4440.06
4431.51
4371.71
4261.65
4103.13
3898.7
3651.5
3365.05
3042.78
2687.51
2300.39
1879.67
1419.4
912.669
366.646
)
;

boundaryField
{
    outletCentralUnloaded
    {
        type            zeroGradient;
    }
    inletCentralUnloaded
    {
        type            zeroGradient;
    }
    outletFuelElement
    {
        type            zeroGradient;
    }
    inletFuelElement
    {
        type            zeroGradient;
    }
    defaultFaces
    {
        type            zeroGradient;
    }
    baffle_master
    {
        type            zeroGradient;
    }
    baffle_slave
    {
        type            zeroGradient;
    }
}


// ************************************************************************* //
