/*--------------------------------*- C++ -*----------------------------------*\
| =========                 |                                                 |
| \\      /  F ield         | OpenFOAM: The Open Source CFD Toolbox           |
|  \\    /   O peration     | Version:  2212                                  |
|   \\  /    A nd           | Website:  www.openfoam.com                      |
|    \\/     M anipulation  |                                                 |
\*---------------------------------------------------------------------------*/
FoamFile
{
    version     2.0;
    format      ascii;
    arch        "LSB;label=32;scalar=64";
    class       scalarFieldField;
    location    "47/fluidRegion";
    object      Trad.nuclearFuelPin;
}
// * * * * * * * * * * * * * * * * * * * * * * * * * * * * * * * * * * * * * //


350
(
0()
0()
0()
0()
0()
0()
0()
0()
0()
0()
0()
0()
0()
0()
0()
0()
0()
0()
0()
0()
0()
0()
0()
0()
0()
0()
0()
0()
0()
0()
0()
0()
0()
0()
0()
0()
0()
0()
0()
0()
0()
0()
0()
0()
0()
0()
0()
0()
0()
0()

20
(
2406.1
2404.37
2399.19
2390.56
2378.48
2362.93
2343.91
2321.43
2295.46
2266.01
2233.05
2196.59
2156.61
2113.1
2066.04
2015.44
1848.76
1844.79
1840.95
1837.24
)


20
(
3594.19
3588.91
3573.09
3546.71
3509.77
3462.28
3404.21
3335.58
3256.36
3166.56
3066.15
2955.13
2833.49
2701.21
2558.29
2404.71
1899.14
1887.1
1875.45
1864.17
)


20
(
4742.11
4733.37
4707.15
4663.44
4602.24
4523.56
4427.37
4313.68
4182.47
4033.74
3867.48
3683.67
3482.3
3263.36
3026.84
2772.72
1936.28
1916.36
1897.09
1878.42
)


20
(
5832.17
5820.1
5783.89
5723.55
5639.07
5530.43
5397.65
5240.7
5059.58
4854.29
4624.8
4371.11
4093.2
3791.07
3464.7
3114.07
1960
1932.52
1905.92
1880.17
)


20
(
6847.49
6832.29
6786.68
6710.65
6604.22
6467.36
6300.07
6102.36
5874.19
5615.58
5326.5
5006.94
4656.9
4276.35
3865.29
3423.69
1970.25
1935.62
1902.13
1869.7
)


20
(
7772.35
7754.25
7699.95
7609.45
7482.74
7319.82
7120.69
6885.33
6613.73
6305.88
5961.78
5581.41
5164.76
4711.81
4222.56
3696.97
1967.11
1925.91
1886.05
1847.44
)


20
(
8592.37
8571.66
8509.53
8405.99
8261.01
8074.61
7846.77
7577.48
7266.74
6914.53
6520.85
6085.68
5609
5090.81
4531.09
3929.82
1950.88
1903.74
1858.13
1813.97
)


20
(
9294.81
9271.82
9202.84
9087.88
8926.94
8719.99
8467.05
8168.09
7823.12
7432.11
6995.06
6511.96
5982.79
5407.54
4786.2
4118.74
1921.96
1869.63
1819.01
1769.99
)


20
(
9868.72
9843.81
9769.08
9644.53
9470.15
9245.93
8971.88
8647.97
8274.21
7850.59
7377.08
6853.68
6280.37
5657.15
4983.99
4260.88
1880.96
1824.27
1769.42
1716.31
)


20
(
10305.2
10278.7
10199.4
10067.2
9882.18
9644.23
9353.4
9009.67
8613.02
8163.46
7660.97
7105.54
6497.15
5835.79
5121.44
4354.1
1828.6
1768.45
1710.25
1653.89
)


20
(
10597.3
10569.8
10487.1
10349.4
10156.6
9908.69
9605.67
9247.53
8834.27
8365.88
7842.34
7263.64
6629.77
5940.72
5196.47
4397.01
1765.8
1703.12
1642.49
1583.77
)


20
(
10740.7
10712.4
10627.8
10486.7
10289.2
10035.2
9724.77
9357.89
8934.53
8454.7
7918.37
7325.55
6676.21
5970.34
5207.93
4388.96
1693.58
1629.37
1567.26
1507.11
)


20
(
10733
10704.5
10619.2
10476.9
10277.8
10021.8
9708.88
9339.03
8912.27
8428.57
7887.93
7290.33
6635.77
5924.23
5155.7
4330.16
1613.14
1548.42
1485.8
1425.17
)


20
(
10574.4
10546.2
10461.5
10320.4
10122.8
9868.79
9558.3
9191.34
8767.9
8287.97
7751.55
7158.62
6509.17
5803.18
5040.65
4221.57
1525.8
1461.58
1399.46
1339.3
)


20
(
10267.6
10240
10157.3
10019.5
9826.65
9578.63
9275.48
8917.19
8503.77
8035.19
7511.45
6932.54
6298.45
5609.17
4864.68
4064.98
1433
1370.3
1309.65
1250.91
)


20
(
9817.32
9790.86
9711.5
9579.23
9394.05
9155.95
8864.92
8520.97
8124.08
7674.25
7171.47
6615.72
6007
5345.3
4630.6
3862.9
1336.25
1276.07
1217.84
1161.45
)


20
(
9230.69
9205.76
9130.96
9006.29
8831.74
8607.32
8333.02
8008.83
7634.75
7210.76
6736.87
6213.06
5639.32
5015.64
4342.01
3618.43
1237
1180.27
1125.39
1072.24
)


20
(
8516.52
8493.5
8424.43
8309.33
8148.18
7940.98
7687.73
7388.43
7043.05
6651.61
6214.09
5730.48
5200.78
4624.97
4003.06
3335.02
1136.38
1084.01
1033.34
984.272
)


20
(
7684.92
7664.17
7601.95
7498.23
7353.02
7166.32
6938.12
6668.42
6357.22
6004.5
5610.26
5174.5
4697.2
4178.36
3617.97
3016.02
1034.9
987.706
942.052
897.839
)


20
(
6746.81
6728.67
6674.25
6583.56
6456.59
6293.33
6093.79
5857.96
5585.83
5277.4
4932.67
4551.62
4134.26
3680.57
3190.55
2664.19
931.849
890.584
850.662
812.001
)


20
(
5712.5
5697.25
5651.51
5575.27
5468.54
5331.31
5163.57
4965.33
4736.58
4477.32
4187.54
3867.23
3516.4
3135.03
2723.12
2280.66
824.456
789.768
756.21
723.712
)


20
(
4590.62
4578.51
4542.16
4481.59
4396.78
4287.73
4154.45
3996.93
3815.17
3609.16
3378.9
3124.38
2845.61
2542.57
2215.27
1863.69
706.587
679.024
652.359
626.535
)


20
(
3386.54
3377.75
3351.37
3307.41
3245.86
3166.72
3069.99
2955.67
2823.75
2674.24
2507.13
2322.41
2120.09
1900.16
1662.62
1407.46
567.695
547.691
528.339
509.598
)


20
(
2105.63
2100.29
2084.29
2057.62
2020.29
1972.29
1913.61
1844.27
1764.26
1673.57
1572.21
1460.18
1337.46
1204.07
1060
905.25
395.935
383.803
372.066
360.7
)


20
(
767.389
765.596
760.218
751.256
738.708
722.575
702.858
679.557
652.671
622.202
588.15
550.514
509.296
464.496
416.114
364.151
193.144
189.07
185.129
181.313
)


20
(
2440.72
2438.98
2433.75
2425.02
2412.8
2397.08
2377.86
2355.12
2328.87
2299.09
2265.77
2228.9
2188.48
2144.48
2096.91
2045.73
1877.2
1873.19
1869.3
1865.55
)


20
(
3642.61
3637.28
3621.27
3594.59
3557.24
3509.21
3450.49
3381.08
3300.96
3210.14
3108.59
2996.31
2873.29
2739.52
2594.97
2439.65
1928.34
1916.16
1904.38
1892.97
)


20
(
4803.79
4794.95
4768.43
4724.23
4662.33
4582.75
4485.47
4370.48
4237.78
4087.36
3919.2
3733.3
3529.64
3308.21
3068.99
2811.98
1966.01
1945.86
1926.36
1907.49
)


20
(
5906.36
5894.16
5857.54
5796.51
5711.06
5601.19
5466.89
5308.15
5124.97
4917.33
4685.23
4428.64
4147.57
3841.99
3511.89
3157.26
1990.02
1962.22
1935.32
1909.27
)


20
(
6933.27
6917.89
6871.76
6794.87
6687.21
6548.79
6379.6
6179.63
5948.86
5687.29
5394.91
5071.71
4717.67
4332.77
3917.01
3470.37
2000.32
1965.3
1931.43
1898.62
)


20
(
7868.59
7850.28
7795.36
7703.82
7575.67
7410.89
7209.48
6971.43
6696.73
6385.37
6037.34
5652.62
5231.21
4773.09
4278.24
3746.65
1997.01
1955.34
1915.02
1875.97
)


20
(
8697.79
8676.85
8614.01
8509.28
8362.65
8174.11
7943.67
7671.31
7357.01
7000.78
6602.6
6162.45
5680.33
5156.21
4590.09
3981.95
1980.37
1932.69
1886.57
1841.9
)


20
(
9407.99
9384.74
9314.97
9198.7
9035.91
8826.6
8570.77
8268.39
7919.47
7524
7081.96
6593.33
6058.11
5476.28
4847.83
4172.74
1950.83
1897.91
1846.7
1797.12
)


20
(
9988.12
9962.93
9887.34
9761.36
9584.99
9358.21
9081.02
8753.42
8375.38
7946.91
7467.99
6938.6
6358.74
5728.38
5047.52
4316.15
1908.99
1851.66
1796.18
1742.46
)


20
(
10429.1
10402.4
10322.2
10188.5
10001.3
9760.65
9466.49
9118.83
8717.65
8262.95
7754.71
7192.92
6577.57
5908.64
5186.13
4410.01
1855.61
1794.76
1735.9
1678.89
)


20
(
10724.2
10696.3
10612.7
10473.4
10278.4
10027.7
9721.17
9358.93
8940.94
8467.19
7937.66
7352.34
6711.22
6014.29
5261.52
4452.91
1791.59
1728.2
1666.87
1607.48
)


20
(
10868.6
10840.1
10754.4
10611.7
10411.9
10155.1
9841.09
9470
9041.8
8556.48
8014.02
7414.41
6757.64
6043.69
5272.56
4444.22
1717.99
1653.05
1590.23
1529.39
)


20
(
10860.2
10831.4
10745.1
10601.3
10399.9
10140.9
9824.4
9450.33
9018.68
8529.45
7982.62
7378.19
6716.14
5996.45
5219.12
4384.13
1636.02
1570.56
1507.23
1445.9
)


20
(
10699.2
10670.6
10585
10442.2
10242.4
9985.48
9671.44
9300.28
8872
8386.58
7844.02
7244.3
6587.42
5873.35
5102.1
4273.64
1547.01
1482.06
1419.23
1358.38
)


20
(
10388.1
10360.2
10276.6
10137.3
9942.16
9691.3
9384.68
9022.3
8604.14
8130.2
7600.47
7014.93
6373.59
5676.41
4923.4
4114.55
1452.44
1389.03
1327.68
1268.27
)


20
(
9931.98
9905.23
9824.96
9691.17
9503.87
9263.04
8968.69
8620.8
8219.37
7764.39
7255.85
6693.74
6078.06
5408.78
4685.9
3909.41
1353.84
1292.97
1234.08
1177.04
)


20
(
9337.91
9312.69
9237.03
9110.93
8934.39
8707.4
8429.96
8102.06
7723.7
7294.86
6815.54
6285.73
5705.42
5074.61
4393.27
3661.41
1252.71
1195.33
1139.82
1086.07
)


20
(
8614.87
8591.58
8521.73
8405.31
8242.32
8032.75
7776.6
7473.86
7124.54
6728.61
6286.08
5796.94
5261.17
4678.78
4049.74
3374.05
1150.24
1097.27
1046.02
996.395
)


20
(
7773.15
7752.17
7689.23
7584.33
7437.46
7248.62
7017.81
6745.03
6430.26
6073.5
5674.75
5233.99
4751.23
4226.45
3659.64
3050.8
1047
999.27
953.094
908.374
)


20
(
6823.86
6805.51
6750.47
6658.74
6530.31
6365.19
6163.36
5924.83
5649.59
5337.63
4988.95
4603.54
4181.4
3722.52
3226.89
2694.5
942.324
900.585
860.207
821.103
)


20
(
5777.43
5762.01
5715.75
5638.64
5530.68
5391.88
5222.23
5021.72
4790.35
4528.12
4235.02
3911.05
3556.19
3170.46
2753.83
2306.31
833.429
798.344
764.402
731.532
)


20
(
4642.61
4630.35
4593.59
4532.32
4446.54
4336.25
4201.44
4042.12
3858.27
3649.91
3417.01
3159.58
2877.62
2571.11
2240.06
1884.46
714.108
686.229
659.259
633.14
)


20
(
3424.71
3415.81
3389.13
3344.67
3282.41
3202.37
3104.53
2988.9
2855.48
2704.25
2535.23
2348.4
2143.76
1921.32
1681.06
1422.98
573.598
553.365
533.791
514.835
)


20
(
2129
2123.61
2107.42
2080.45
2042.69
1994.14
1934.79
1864.66
1783.73
1692.01
1589.49
1476.17
1352.05
1217.14
1071.42
914.896
399.755
387.484
375.613
364.116
)


20
(
775.232
773.419
767.98
758.915
746.225
729.908
709.966
686.399
659.207
628.39
593.949
555.884
514.196
468.885
419.95
367.394
194.434
190.314
186.328
182.468
)


20
(
2400.49
2398.77
2393.6
2384.98
2372.92
2357.4
2338.42
2315.97
2290.05
2260.65
2227.75
2191.35
2151.44
2108.01
2061.04
2010.52
1844.14
1840.18
1836.35
1832.64
)


20
(
3586.4
3581.14
3565.34
3539.01
3502.14
3454.73
3396.77
3328.26
3249.19
3159.54
3059.32
2948.5
2827.08
2695.04
2552.38
2399.07
1894.42
1882.4
1870.77
1859.51
)


20
(
4732.23
4723.51
4697.33
4653.71
4592.62
4514.08
4418.06
4304.58
4173.61
4025.15
3859.19
3675.71
3474.71
3256.17
3020.07
2766.42
1931.5
1911.61
1892.37
1873.74
)


20
(
5820.32
5808.27
5772.13
5711.9
5627.57
5519.13
5386.59
5229.93
5049.14
4844.21
4615.14
4361.91
4084.51
3782.93
3457.15
3107.16
1955.19
1927.75
1901.21
1875.5
)


20
(
6833.82
6818.64
6773.11
6697.23
6590.98
6454.37
6287.39
6090.04
5862.29
5604.14
5315.59
4996.62
4647.21
4267.35
3857.04
3416.25
1965.44
1930.88
1897.45
1865.08
)


20
(
7757.03
7738.96
7684.76
7594.42
7467.94
7305.32
7106.55
6871.61
6600.51
6293.23
5949.75
5570.08
5154.18
4702.06
4213.69
3689.07
1962.36
1921.23
1881.44
1842.9
)


20
(
8575.6
8554.93
8492.92
8389.56
8244.85
8058.78
7831.36
7562.56
7252.38
6900.82
6507.85
6073.47
5597.66
5080.42
4521.71
3921.54
1946.2
1899.15
1853.63
1809.54
)


20
(
9276.82
9253.87
9185.02
9070.27
8909.62
8703.05
8450.56
8152.15
7807.81
7417.51
6981.26
6499.04
5970.83
5396.63
4776.42
4110.17
1917.4
1865.17
1814.64
1765.7
)


20
(
9849.76
9824.89
9750.3
9625.97
9451.91
9228.1
8954.54
8631.23
8258.15
7835.3
7362.65
6840.2
6267.94
5645.85
4973.92
4252.13
1876.54
1819.95
1765.21
1712.19
)


20
(
10285.5
10259.1
10179.9
10048
9863.27
9625.76
9335.45
8992.34
8596.42
8147.68
7646.11
7091.68
6484.4
5824.25
5111.2
4345.26
1824.36
1764.32
1706.22
1649.96
)


20
(
10577.2
10549.7
10467.2
10329.7
10137.3
9889.82
9587.35
9229.86
8817.36
8349.81
7827.23
7249.58
6616.87
5929.07
5186.18
4388.17
1761.76
1699.2
1638.68
1580.06
)


20
(
10720.4
10692.2
10607.7
10466.9
10269.7
10016.2
9706.33
9340.11
8917.53
8438.57
7903.22
7311.48
6663.32
5958.74
5197.72
4380.24
1689.77
1625.68
1563.68
1503.64
)


20
(
10712.8
10684.4
10599.2
10457.2
10258.5
10002.9
9690.56
9321.4
8895.41
8412.59
7872.94
7276.43
6623.06
5912.81
5145.68
4321.65
1609.58
1544.98
1482.48
1421.95
)


20
(
10554.6
10526.4
10441.9
10301.1
10103.9
9850.29
9540.37
9174.08
8751.41
8272.36
7736.91
7145.06
6496.79
5792.1
5030.96
4213.37
1522.51
1458.41
1396.4
1336.35
)


20
(
10248.4
10220.9
10138.4
10000.9
9808.34
9560.77
9258.18
8900.55
8487.87
8020.15
7497.37
6919.51
6286.58
5598.55
4855.42
4057.18
1430
1367.41
1306.87
1248.24
)


20
(
9799.15
9772.74
9693.52
9561.49
9376.65
9138.98
8848.49
8505.16
8109
7659.99
7158.12
6603.38
5995.77
5335.28
4621.88
3855.58
1333.54
1273.47
1215.35
1159.06
)


20
(
9213.71
9188.82
9114.15
8989.71
8815.48
8591.47
8317.67
7994.07
7620.67
7197.46
6724.43
6201.57
5628.87
5006.33
4333.94
3611.68
1234.58
1177.96
1123.18
1070.13
)


20
(
8500.94
8477.96
8409.02
8294.13
8133.27
7926.45
7673.67
7374.9
7030.16
6639.43
6202.71
5719.98
5191.24
4616.49
3995.7
3328.88
1134.25
1081.98
1031.4
982.424
)


20
(
7670.94
7650.24
7588.12
7484.59
7339.65
7153.29
6925.51
6656.3
6345.66
5993.59
5600.07
5165.1
4688.67
4170.77
3611.41
3010.55
1033.05
985.942
940.371
896.239
)


20
(
6734.61
6716.5
6662.19
6571.66
6444.92
6281.96
6082.78
5847.38
5575.75
5267.88
4923.78
4543.43
4126.83
3673.96
3184.84
2659.44
930.254
889.064
849.216
810.625
)


20
(
5702.23
5687.01
5641.35
5565.25
5458.71
5321.73
5154.3
4956.43
4728.09
4469.3
4180.05
3860.33
3510.13
3129.46
2718.3
2276.65
823.098
788.473
754.977
722.537
)


20
(
4582.41
4570.32
4534.04
4473.58
4388.92
4280.07
4147.04
3989.8
3808.37
3602.74
3372.9
3118.85
2840.58
2538.1
2211.39
1860.45
705.46
677.947
651.331
625.554
)


20
(
3380.53
3371.76
3345.43
3301.54
3240.1
3161.11
3064.56
2950.44
2818.77
2669.53
2502.72
2318.34
2116.39
1896.86
1659.75
1405.06
566.823
546.855
527.538
508.831
)


20
(
2101.95
2096.63
2080.66
2054.04
2016.77
1968.85
1910.29
1841.07
1761.2
1670.68
1569.51
1457.68
1335.19
1202.04
1058.23
903.762
395.376
383.265
371.55
360.204
)


20
(
766.148
764.359
758.991
750.044
737.519
721.416
701.735
678.476
651.639
621.225
587.234
549.667
508.524
463.806
415.512
363.643
192.947
188.88
184.947
181.137
)


20
(
2432.9
2431.16
2425.94
2417.24
2405.05
2389.37
2370.19
2347.52
2321.33
2291.62
2258.39
2221.61
2181.29
2137.41
2089.95
2038.91
1870.8
1866.8
1862.93
1859.18
)


20
(
3631.6
3626.28
3610.31
3583.7
3546.45
3498.54
3439.97
3370.74
3290.83
3200.24
3098.96
2986.97
2864.27
2730.83
2586.66
2431.74
1921.75
1909.6
1897.85
1886.47
)


20
(
4789.71
4780.89
4754.44
4710.35
4648.62
4569.24
4472.22
4357.53
4225.17
4075.14
3907.42
3721.99
3518.86
3298
3059.41
2803.06
1959.28
1939.19
1919.75
1900.92
)


20
(
5889.39
5877.21
5840.69
5779.82
5694.59
5585.01
5451.06
5292.73
5110.02
4902.92
4671.42
4415.5
4135.16
3830.37
3501.13
3147.43
1983.22
1955.49
1928.66
1902.68
)


20
(
6913.61
6898.27
6852.26
6775.57
6668.2
6530.14
6361.38
6161.93
5931.76
5670.88
5379.26
5056.89
4703.77
4319.87
3905.2
3459.72
1993.49
1958.56
1924.78
1892.06
)


20
(
7846.51
7828.25
7773.47
7682.18
7554.35
7390
7189.12
6951.69
6677.7
6367.15
6020.02
5636.31
5215.99
4759.06
4265.5
3735.29
1990.21
1948.64
1908.43
1869.48
)


20
(
8673.59
8652.7
8590.02
8485.56
8339.31
8151.27
7921.43
7649.77
7336.3
6980.99
6583.84
6144.84
5663.97
5141.22
4576.57
3970.01
1973.65
1926.09
1880.09
1835.54
)


20
(
9381.99
9358.79
9289.21
9173.24
9010.88
8802.11
8546.94
8245.35
7897.34
7502.9
7062
6574.65
6040.82
5460.51
4833.69
4160.36
1944.24
1891.45
1840.38
1790.92
)


20
(
9960.68
9935.55
9860.16
9734.51
9558.59
9332.4
9055.94
8729.18
8352.13
7924.78
7447.1
6919.09
6340.74
5712.02
5032.94
4303.46
1902.58
1845.39
1790.06
1736.48
)


20
(
10400.6
10374
10294
10160.6
9973.92
9733.88
9440.49
9093.73
8693.59
8240.07
7733.16
7172.83
6559.09
5891.9
5171.27
4397.17
1849.42
1788.73
1730.02
1673.17
)


20
(
10695
10667.2
10583.8
10444.9
10250.4
10000.3
9694.6
9333.31
8916.41
8443.89
7915.74
7331.94
6692.49
5997.37
5246.56
4440.06
1785.67
1722.44
1661.28
1602.04
)


20
(
10839.2
10810.7
10725.3
10583
10383.7
10127.5
9814.32
9444.2
9017.12
8533.06
7992.01
7393.97
6738.9
6026.82
5257.69
4431.51
1712.38
1647.61
1584.95
1524.27
)


20
(
10830.9
10802.2
10716.1
10572.6
10371.8
10113.5
9797.81
9424.71
8994.19
8506.23
7960.83
7357.97
6697.64
5979.83
5204.52
4371.71
1630.75
1565.46
1502.3
1441.13
)


20
(
10670.4
10642
10556.6
10414.2
10214.9
9958.62
9645.39
9275.2
8848.03
8363.88
7822.73
7224.58
6569.4
5857.2
5087.95
4261.65
1542.12
1477.34
1414.67
1353.98
)


20
(
10360.3
10332.6
10249.2
10110.2
9915.56
9665.35
9359.53
8998.09
8581.03
8108.32
7579.97
6995.96
6356.28
5660.93
4909.88
4103.13
1447.96
1384.71
1323.52
1264.27
)


20
(
9905.58
9878.89
9798.83
9665.39
9478.58
9238.38
8944.79
8597.81
8197.43
7743.63
7236.42
6675.77
6061.69
5394.16
4673.16
3898.7
1349.78
1289.07
1230.33
1173.44
)


20
(
9313.22
9288.06
9212.6
9086.83
8910.75
8684.35
8407.63
8080.59
7703.21
7275.49
6797.42
6268.99
5690.19
5061.02
4381.46
3651.5
1249.08
1191.85
1136.49
1082.87
)


20
(
8592.21
8568.99
8499.32
8383.2
8220.63
8011.61
7756.13
7454.18
7105.77
6710.88
6269.5
5781.63
5247.26
4666.38
4038.98
3365.05
1147.04
1094.21
1043.09
993.592
)


20
(
7752.83
7731.91
7669.13
7564.5
7418.01
7229.66
6999.46
6727.38
6413.43
6057.61
5659.89
5220.29
4738.78
4215.37
3650.04
3042.78
1044.2
996.597
950.54
905.937
)


20
(
6806.11
6787.81
6732.91
6641.42
6513.33
6348.64
6147.33
5909.42
5634.9
5323.75
4975.98
4591.58
4170.54
3712.85
3218.51
2687.51
939.902
898.272
857.999
818.997
)


20
(
5762.48
5747.09
5700.95
5624.04
5516.37
5377.93
5208.71
5008.73
4777.96
4516.41
4224.08
3900.95
3547.02
3162.29
2746.75
2300.39
831.354
796.36
762.507
729.722
)


20
(
4630.63
4618.41
4581.74
4520.63
4435.08
4325.07
4190.61
4031.71
3848.34
3640.52
3408.23
3151.47
2870.24
2564.53
2234.34
1879.67
712.367
684.561
657.661
631.61
)


20
(
3415.91
3407.04
3380.43
3336.08
3273.99
3194.15
3096.57
2981.24
2848.16
2697.33
2528.75
2342.41
2138.31
1916.44
1676.8
1419.4
572.23
552.05
532.528
513.621
)


20
(
2123.61
2118.23
2102.09
2075.19
2037.53
1989.1
1929.91
1859.96
1779.24
1687.76
1585.5
1472.48
1348.69
1214.12
1068.78
912.669
398.869
386.63
374.789
363.323
)


20
(
773.426
771.617
766.192
757.151
744.493
728.219
708.329
684.823
657.701
626.964
592.613
554.647
513.067
467.873
419.066
366.646
194.136
190.026
186.051
182.201
)


20
(
2432.9
2431.16
2425.94
2417.24
2405.05
2389.37
2370.19
2347.52
2321.33
2291.62
2258.39
2221.61
2181.29
2137.41
2089.95
2038.91
1870.8
1866.8
1862.93
1859.18
)


20
(
3631.6
3626.28
3610.31
3583.7
3546.45
3498.54
3439.97
3370.74
3290.83
3200.24
3098.96
2986.97
2864.27
2730.83
2586.66
2431.74
1921.75
1909.6
1897.85
1886.47
)


20
(
4789.71
4780.89
4754.44
4710.35
4648.62
4569.24
4472.22
4357.53
4225.17
4075.14
3907.42
3721.99
3518.86
3298
3059.41
2803.06
1959.29
1939.19
1919.75
1900.92
)


20
(
5889.39
5877.21
5840.69
5779.82
5694.59
5585.01
5451.06
5292.73
5110.02
4902.93
4671.42
4415.51
4135.16
3830.37
3501.13
3147.43
1983.22
1955.49
1928.66
1902.68
)


20
(
6913.61
6898.27
6852.26
6775.57
6668.2
6530.14
6361.38
6161.93
5931.76
5670.87
5379.25
5056.89
4703.77
4319.87
3905.2
3459.72
1993.49
1958.56
1924.78
1892.06
)


20
(
7846.51
7828.25
7773.47
7682.18
7554.35
7390
7189.12
6951.68
6677.7
6367.15
6020.02
5636.31
5215.99
4759.06
4265.5
3735.29
1990.21
1948.64
1908.43
1869.48
)


20
(
8673.59
8652.7
8590.02
8485.56
8339.31
8151.27
7921.43
7649.77
7336.3
6980.99
6583.84
6144.84
5663.97
5141.22
4576.57
3970.01
1973.65
1926.09
1880.09
1835.54
)


20
(
9381.99
9358.79
9289.21
9173.24
9010.88
8802.11
8546.94
8245.35
7897.34
7502.9
7062
6574.65
6040.82
5460.51
4833.69
4160.36
1944.24
1891.45
1840.38
1790.92
)


20
(
9960.68
9935.55
9860.16
9734.51
9558.59
9332.4
9055.94
8729.18
8352.13
7924.78
7447.1
6919.09
6340.74
5712.02
5032.94
4303.46
1902.58
1845.39
1790.06
1736.48
)


20
(
10400.6
10374
10294
10160.6
9973.92
9733.88
9440.49
9093.73
8693.59
8240.07
7733.16
7172.83
6559.09
5891.9
5171.27
4397.17
1849.42
1788.73
1730.02
1673.17
)


20
(
10695
10667.2
10583.8
10444.9
10250.4
10000.3
9694.6
9333.31
8916.41
8443.89
7915.74
7331.94
6692.49
5997.37
5246.56
4440.06
1785.67
1722.44
1661.28
1602.04
)


20
(
10839.2
10810.7
10725.3
10583
10383.7
10127.5
9814.32
9444.2
9017.12
8533.06
7992.01
7393.96
6738.9
6026.82
5257.69
4431.51
1712.38
1647.61
1584.95
1524.27
)


20
(
10830.9
10802.2
10716.1
10572.6
10371.8
10113.5
9797.81
9424.71
8994.19
8506.23
7960.83
7357.97
6697.64
5979.83
5204.52
4371.71
1630.75
1565.46
1502.3
1441.13
)


20
(
10670.4
10642
10556.6
10414.2
10214.9
9958.62
9645.39
9275.2
8848.03
8363.88
7822.73
7224.58
6569.4
5857.2
5087.95
4261.65
1542.12
1477.34
1414.67
1353.98
)


20
(
10360.3
10332.6
10249.2
10110.2
9915.56
9665.35
9359.53
8998.09
8581.03
8108.32
7579.97
6995.96
6356.28
5660.93
4909.88
4103.13
1447.96
1384.71
1323.52
1264.27
)


20
(
9905.58
9878.89
9798.83
9665.39
9478.58
9238.38
8944.79
8597.81
8197.43
7743.63
7236.42
6675.77
6061.69
5394.16
4673.16
3898.7
1349.78
1289.07
1230.33
1173.44
)


20
(
9313.22
9288.06
9212.6
9086.83
8910.75
8684.35
8407.63
8080.59
7703.21
7275.49
6797.42
6268.99
5690.19
5061.02
4381.46
3651.5
1249.08
1191.85
1136.49
1082.87
)


20
(
8592.21
8568.99
8499.32
8383.2
8220.63
8011.61
7756.13
7454.18
7105.77
6710.88
6269.5
5781.63
5247.26
4666.38
4038.98
3365.05
1147.04
1094.21
1043.09
993.592
)


20
(
7752.83
7731.9
7669.13
7564.5
7418.01
7229.66
6999.46
6727.38
6413.43
6057.61
5659.89
5220.29
4738.78
4215.37
3650.04
3042.78
1044.2
996.597
950.54
905.937
)


20
(
6806.11
6787.81
6732.91
6641.42
6513.33
6348.63
6147.33
5909.42
5634.9
5323.75
4975.98
4591.58
4170.54
3712.85
3218.51
2687.51
939.902
898.272
857.999
818.997
)


20
(
5762.48
5747.09
5700.95
5624.04
5516.37
5377.93
5208.71
5008.73
4777.96
4516.41
4224.08
3900.95
3547.02
3162.29
2746.75
2300.39
831.354
796.36
762.507
729.722
)


20
(
4630.63
4618.41
4581.74
4520.63
4435.08
4325.07
4190.62
4031.71
3848.34
3640.52
3408.23
3151.47
2870.24
2564.53
2234.34
1879.67
712.367
684.561
657.661
631.61
)


20
(
3415.91
3407.04
3380.43
3336.08
3273.99
3194.15
3096.57
2981.24
2848.16
2697.34
2528.75
2342.41
2138.31
1916.44
1676.8
1419.4
572.23
552.05
532.528
513.621
)


20
(
2123.61
2118.23
2102.09
2075.19
2037.53
1989.1
1929.91
1859.96
1779.24
1687.76
1585.5
1472.48
1348.69
1214.12
1068.78
912.669
398.869
386.63
374.789
363.323
)


20
(
773.426
771.617
766.192
757.151
744.493
728.219
708.329
684.823
657.701
626.965
592.613
554.647
513.067
467.873
419.066
366.646
194.136
190.026
186.051
182.201
)


20
(
2400.49
2398.77
2393.6
2384.98
2372.92
2357.4
2338.42
2315.97
2290.05
2260.65
2227.75
2191.35
2151.44
2108.01
2061.04
2010.52
1844.14
1840.18
1836.35
1832.64
)


20
(
3586.4
3581.14
3565.34
3539.01
3502.14
3454.73
3396.77
3328.26
3249.19
3159.54
3059.32
2948.5
2827.08
2695.04
2552.38
2399.08
1894.42
1882.4
1870.77
1859.51
)


20
(
4732.24
4723.51
4697.34
4653.71
4592.62
4514.08
4418.07
4304.58
4173.61
4025.15
3859.19
3675.71
3474.71
3256.17
3020.08
2766.42
1931.5
1911.61
1892.38
1873.74
)


20
(
5820.32
5808.27
5772.14
5711.9
5627.57
5519.13
5386.59
5229.93
5049.14
4844.22
4615.14
4361.92
4084.52
3782.93
3457.15
3107.16
1955.19
1927.75
1901.21
1875.5
)


20
(
6833.82
6818.64
6773.11
6697.23
6590.98
6454.37
6287.4
6090.04
5862.29
5604.15
5315.59
4996.62
4647.21
4267.35
3857.04
3416.25
1965.44
1930.89
1897.45
1865.08
)


20
(
7757.03
7738.96
7684.76
7594.42
7467.95
7305.32
7106.55
6871.62
6600.51
6293.23
5949.76
5570.08
5154.18
4702.06
4213.69
3689.07
1962.36
1921.23
1881.44
1842.9
)


20
(
8575.6
8554.93
8492.92
8389.56
8244.85
8058.78
7831.36
7562.56
7252.39
6900.82
6507.85
6073.47
5597.67
5080.42
4521.71
3921.54
1946.2
1899.15
1853.63
1809.54
)


20
(
9276.82
9253.87
9185.02
9070.27
8909.62
8703.05
8450.56
8152.15
7807.81
7417.51
6981.26
6499.04
5970.83
5396.63
4776.42
4110.18
1917.4
1865.17
1814.64
1765.7
)


20
(
9849.76
9824.89
9750.3
9625.97
9451.91
9228.1
8954.55
8631.23
8258.15
7835.3
7362.65
6840.2
6267.94
5645.85
4973.92
4252.13
1876.54
1819.95
1765.21
1712.19
)


20
(
10285.5
10259.1
10179.9
10048
9863.27
9625.76
9335.45
8992.34
8596.42
8147.68
7646.11
7091.68
6484.4
5824.25
5111.21
4345.26
1824.37
1764.32
1706.22
1649.97
)


20
(
10577.2
10549.7
10467.2
10329.8
10137.3
9889.82
9587.35
9229.87
8817.36
8349.82
7827.23
7249.59
6616.87
5929.07
5186.18
4388.17
1761.76
1699.2
1638.68
1580.06
)


20
(
10720.4
10692.2
10607.7
10466.9
10269.7
10016.2
9706.33
9340.11
8917.53
8438.57
7903.22
7311.48
6663.32
5958.74
5197.72
4380.24
1689.77
1625.69
1563.68
1503.64
)


20
(
10712.8
10684.4
10599.2
10457.2
10258.5
10002.9
9690.56
9321.4
8895.41
8412.59
7872.94
7276.43
6623.06
5912.82
5145.68
4321.65
1609.58
1544.98
1482.48
1421.95
)


20
(
10554.6
10526.4
10441.9
10301.1
10103.9
9850.29
9540.37
9174.08
8751.41
8272.36
7736.91
7145.06
6496.79
5792.1
5030.96
4213.37
1522.51
1458.41
1396.4
1336.35
)


20
(
10248.4
10220.9
10138.4
10000.9
9808.34
9560.77
9258.18
8900.55
8487.87
8020.15
7497.37
6919.51
6286.58
5598.55
4855.42
4057.18
1430
1367.41
1306.87
1248.24
)


20
(
9799.15
9772.74
9693.53
9561.5
9376.65
9138.98
8848.49
8505.16
8109
7659.99
7158.12
6603.39
5995.78
5335.28
4621.89
3855.58
1333.54
1273.47
1215.35
1159.06
)


20
(
9213.71
9188.82
9114.15
8989.71
8815.48
8591.47
8317.67
7994.07
7620.67
7197.46
6724.43
6201.57
5628.88
5006.34
4333.94
3611.68
1234.58
1177.96
1123.18
1070.13
)


20
(
8500.94
8477.96
8409.02
8294.13
8133.27
7926.45
7673.67
7374.9
7030.16
6639.43
6202.71
5719.98
5191.24
4616.49
3995.7
3328.88
1134.26
1081.98
1031.4
982.425
)


20
(
7670.94
7650.24
7588.12
7484.59
7339.65
7153.29
6925.51
6656.3
6345.67
5993.59
5600.07
5165.1
4688.67
4170.78
3611.41
3010.56
1033.05
985.943
940.372
896.239
)


20
(
6734.61
6716.5
6662.19
6571.66
6444.92
6281.96
6082.78
5847.38
5575.75
5267.88
4923.78
4543.43
4126.83
3673.96
3184.84
2659.44
930.255
889.065
849.216
810.625
)


20
(
5702.23
5687.01
5641.35
5565.25
5458.71
5321.73
5154.3
4956.43
4728.09
4469.3
4180.05
3860.33
3510.13
3129.46
2718.3
2276.65
823.098
788.474
754.977
722.538
)


20
(
4582.42
4570.32
4534.04
4473.58
4388.92
4280.08
4147.04
3989.81
3808.37
3602.74
3372.9
3118.85
2840.58
2538.1
2211.39
1860.46
705.461
677.948
651.331
625.555
)


20
(
3380.54
3371.76
3345.43
3301.54
3240.11
3161.11
3064.56
2950.44
2818.77
2669.53
2502.72
2318.34
2116.39
1896.86
1659.75
1405.06
566.823
546.856
527.539
508.832
)


20
(
2101.95
2096.63
2080.66
2054.04
2016.77
1968.85
1910.29
1841.07
1761.21
1670.68
1569.51
1457.68
1335.19
1202.04
1058.23
903.763
395.376
383.266
371.55
360.205
)


20
(
766.148
764.359
758.991
750.045
737.52
721.416
701.735
678.476
651.639
621.225
587.235
549.668
508.524
463.806
415.512
363.643
192.947
188.881
184.947
181.137
)


20
(
2440.72
2438.98
2433.75
2425.02
2412.8
2397.08
2377.86
2355.12
2328.87
2299.09
2265.77
2228.9
2188.48
2144.48
2096.91
2045.73
1877.2
1873.19
1869.3
1865.55
)


20
(
3642.61
3637.28
3621.27
3594.59
3557.24
3509.21
3450.49
3381.08
3300.96
3210.14
3108.59
2996.31
2873.29
2739.52
2594.97
2439.65
1928.34
1916.16
1904.38
1892.97
)


20
(
4803.79
4794.95
4768.43
4724.23
4662.33
4582.75
4485.47
4370.49
4237.79
4087.36
3919.2
3733.3
3529.64
3308.21
3068.99
2811.98
1966.01
1945.86
1926.36
1907.49
)


20
(
5906.36
5894.16
5857.54
5796.51
5711.06
5601.19
5466.89
5308.15
5124.97
4917.33
4685.23
4428.64
4147.57
3841.99
3511.89
3157.26
1990.02
1962.22
1935.32
1909.27
)


20
(
6933.27
6917.89
6871.76
6794.86
6687.21
6548.79
6379.6
6179.62
5948.86
5687.29
5394.91
5071.71
4717.67
4332.77
3917.01
3470.37
2000.32
1965.3
1931.43
1898.62
)


20
(
7868.59
7850.28
7795.36
7703.82
7575.67
7410.89
7209.48
6971.43
6696.73
6385.37
6037.34
5652.62
5231.21
4773.09
4278.24
3746.65
1997.01
1955.34
1915.02
1875.97
)


20
(
8697.79
8676.85
8614.01
8509.28
8362.65
8174.11
7943.67
7671.31
7357.01
7000.78
6602.6
6162.45
5680.33
5156.21
4590.09
3981.95
1980.37
1932.69
1886.57
1841.9
)


20
(
9407.99
9384.74
9314.97
9198.7
9035.91
8826.6
8570.77
8268.39
7919.47
7524
7081.95
6593.33
6058.11
5476.28
4847.83
4172.74
1950.83
1897.91
1846.7
1797.12
)


20
(
9988.12
9962.93
9887.34
9761.36
9584.99
9358.21
9081.02
8753.42
8375.38
7946.91
7467.99
6938.6
6358.74
5728.38
5047.52
4316.15
1908.99
1851.66
1796.18
1742.46
)


20
(
10429.1
10402.4
10322.2
10188.5
10001.3
9760.65
9466.49
9118.83
8717.65
8262.95
7754.71
7192.92
6577.57
5908.64
5186.13
4410.01
1855.61
1794.76
1735.9
1678.89
)


20
(
10724.2
10696.3
10612.7
10473.4
10278.4
10027.7
9721.17
9358.93
8940.94
8467.19
7937.66
7352.34
6711.22
6014.28
5261.52
4452.91
1791.59
1728.2
1666.87
1607.48
)


20
(
10868.6
10840.1
10754.4
10611.7
10411.9
10155.1
9841.09
9470
9041.8
8556.48
8014.02
7414.41
6757.64
6043.69
5272.56
4444.22
1717.99
1653.05
1590.23
1529.39
)


20
(
10860.2
10831.4
10745.1
10601.3
10399.9
10140.9
9824.4
9450.33
9018.68
8529.45
7982.62
7378.19
6716.13
5996.45
5219.12
4384.13
1636.02
1570.56
1507.23
1445.9
)


20
(
10699.2
10670.6
10585
10442.2
10242.4
9985.48
9671.44
9300.28
8872
8386.58
7844.02
7244.3
6587.42
5873.35
5102.1
4273.64
1547.01
1482.06
1419.23
1358.38
)


20
(
10388.1
10360.2
10276.6
10137.3
9942.16
9691.3
9384.68
9022.29
8604.14
8130.2
7600.47
7014.93
6373.58
5676.41
4923.4
4114.55
1452.44
1389.03
1327.68
1268.27
)


20
(
9931.98
9905.23
9824.96
9691.17
9503.87
9263.04
8968.69
8620.8
8219.37
7764.39
7255.85
6693.74
6078.06
5408.78
4685.9
3909.41
1353.84
1292.97
1234.08
1177.04
)


20
(
9337.91
9312.69
9237.03
9110.93
8934.39
8707.4
8429.96
8102.06
7723.7
7294.86
6815.54
6285.73
5705.42
5074.61
4393.27
3661.41
1252.71
1195.33
1139.82
1086.07
)


20
(
8614.86
8591.58
8521.73
8405.31
8242.31
8032.75
7776.6
7473.86
7124.54
6728.61
6286.08
5796.94
5261.17
4678.78
4049.74
3374.05
1150.24
1097.27
1046.02
996.394
)


20
(
7773.15
7752.17
7689.23
7584.33
7437.46
7248.62
7017.81
6745.03
6430.26
6073.5
5674.75
5233.99
4751.23
4226.45
3659.64
3050.8
1047
999.27
953.094
908.374
)


20
(
6823.85
6805.51
6750.47
6658.74
6530.31
6365.19
6163.36
5924.83
5649.59
5337.63
4988.95
4603.54
4181.4
3722.52
3226.89
2694.5
942.324
900.585
860.207
821.103
)


20
(
5777.43
5762.01
5715.75
5638.64
5530.68
5391.88
5222.23
5021.72
4790.35
4528.12
4235.02
3911.05
3556.19
3170.46
2753.83
2306.31
833.429
798.344
764.402
731.532
)


20
(
4642.61
4630.35
4593.59
4532.32
4446.54
4336.25
4201.44
4042.12
3858.28
3649.91
3417.01
3159.58
2877.62
2571.11
2240.06
1884.46
714.108
686.229
659.259
633.14
)


20
(
3424.71
3415.82
3389.14
3344.67
3282.41
3202.37
3104.53
2988.9
2855.48
2704.25
2535.23
2348.4
2143.76
1921.32
1681.06
1422.98
573.598
553.365
533.791
514.836
)


20
(
2129
2123.61
2107.42
2080.45
2042.69
1994.14
1934.79
1864.66
1783.73
1692.01
1589.49
1476.17