/*--------------------------------*- C++ -*----------------------------------*\
| =========                 |                                                 |
| \\      /  F ield         | OpenFOAM: The Open Source CFD Toolbox           |
|  \\    /   O peration     | Version:  2212                                  |
|   \\  /    A nd           | Website:  www.openfoam.com                      |
|    \\/     M anipulation  |                                                 |
\*---------------------------------------------------------------------------*/
FoamFile
{
    version     2.0;
    format      ascii;
    arch        "LSB;label=32;scalar=64";
    class       volScalarField;
    location    "96/fluidRegion";
    object      Tfo.nuclearFuelPin;
}
// * * * * * * * * * * * * * * * * * * * * * * * * * * * * * * * * * * * * * //

dimensions      [0 0 0 1 0 0 0];

internalField   nonuniform List<scalar> 
350
(
0
0
0
0
0
0
0
0
0
0
0
0
0
0
0
0
0
0
0
0
0
0
0
0
0
0
0
0
0
0
0
0
0
0
0
0
0
0
0
0
0
0
0
0
0
0
0
0
0
0
2022.86
2412.07
2780
3121.26
3430.78
3703.92
3936.62
4125.36
4267.29
4360.28
4402.92
4394.59
4335.47
4226.54
4069.58
3867.12
3622.26
3338.45
3019.06
2666.86
2282.96
1865.62
1408.94
906.005
363.857
2053.34
2447.19
2819.44
3164.63
3477.62
3753.76
3988.9
4179.5
4322.7
4416.32
4458.95
4449.97
4389.55
4278.71
4119.24
3913.72
3665.31
3377.55
3053.9
2697.21
2308.65
1886.43
1424.48
915.673
367.107
2017.91
2406.4
2773.67
3114.33
3423.3
3695.99
3928.31
4116.77
4258.52
4351.42
4394.07
4385.85
4326.94
4218.32
4061.77
3859.79
3615.5
3332.31
3013.59
2662.1
2278.94
1862.38
1406.53
904.514
363.348
2046.48
2439.24
2810.48
3154.75
3466.93
3742.36
3976.93
4167.09
4309.98
4403.45
4446.07
4437.23
4377.11
4266.7
4107.8
3902.98
3655.39
3368.54
3045.87
2690.21
2302.73
1881.63
1420.9
913.441
366.358
2046.48
2439.24
2810.48
3154.75
3466.93
3742.36
3976.93
4167.09
4309.98
4403.45
4446.07
4437.23
4377.11
4266.7
4107.8
3902.98
3655.39
3368.54
3045.87
2690.21
2302.73
1881.63
1420.9
913.44
366.358
2017.91
2406.4
2773.68
3114.33
3423.3
3695.99
3928.31
4116.77
4258.52
4351.42
4394.07
4385.85
4326.94
4218.32
4061.77
3859.8
3615.5
3332.31
3013.59
2662.1
2278.94
1862.38
1406.53
904.515
363.348
2053.34
2447.19
2819.44
3164.63
3477.62
3753.76
3988.9
4179.5
4322.7
4416.32
4458.95
4449.97
4389.55
4278.71
4119.24
3913.72
3665.31
3377.55
3053.9
2697.21
2308.65
1886.43
1424.48
915.673
367.107
2022.86
2412.07
2780.01
3121.26
3430.77
3703.92
3936.62
4125.36
4267.29
4360.28
4402.92
4394.59
4335.47
4226.54
4069.58
3867.12
3622.26
3338.45
3019.06
2666.86
2282.96
1865.62
1408.94
906.005
363.857
2046.48
2439.24
2810.48
3154.75
3466.93
3742.36
3976.93
4167.09
4309.98
4403.45
4446.07
4437.23
4377.11
4266.7
4107.8
3902.98
3655.39
3368.54
3045.87
2690.21
2302.73
1881.63
1420.9
913.441
366.358
2017.91
2406.4
2773.67
3114.33
3423.3
3695.99
3928.31
4116.77
4258.52
4351.42
4394.07
4385.85
4326.94
4218.32
4061.77
3859.79
3615.5
3332.31
3013.59
2662.1
2278.94
1862.38
1406.53
904.514
363.348
2017.91
2406.4
2773.68
3114.33
3423.3
3695.99
3928.31
4116.77
4258.52
4351.42
4394.07
4385.85
4326.94
4218.32
4061.77
3859.79
3615.5
3332.31
3013.59
2662.1
2278.94
1862.38
1406.53
904.515
363.348
2046.48
2439.24
2810.48
3154.75
3466.93
3742.36
3976.93
4167.09
4309.98
4403.45
4446.07
4437.23
4377.11
4266.7
4107.8
3902.98
3655.39
3368.54
3045.87
2690.21
2302.73
1881.63
1420.9
913.44
366.358
)
;

boundaryField
{
    outletCentralUnloaded
    {
        type            zeroGradient;
    }
    inletCentralUnloaded
    {
        type            zeroGradient;
    }
    outletFuelElement
    {
        type            zeroGradient;
    }
    inletFuelElement
    {
        type            zeroGradient;
    }
    defaultFaces
    {
        type            zeroGradient;
    }
    baffle_master
    {
        type            zeroGradient;
    }
    baffle_slave
    {
        type            zeroGradient;
    }
}


// ************************************************************************* //
