/*--------------------------------*- C++ -*----------------------------------*\
| =========                 |                                                 |
| \\      /  F ield         | OpenFOAM: The Open Source CFD Toolbox           |
|  \\    /   O peration     | Version:  2212                                  |
|   \\  /    A nd           | Website:  www.openfoam.com                      |
|    \\/     M anipulation  |                                                 |
\*---------------------------------------------------------------------------*/
FoamFile
{
    version     2.0;
    format      ascii;
    arch        "LSB;label=32;scalar=64";
    class       volVectorField;
    location    "96/fluidRegion";
    object      U;
}
// * * * * * * * * * * * * * * * * * * * * * * * * * * * * * * * * * * * * * //

dimensions      [0 1 -1 0 0 0 0];

internalField   nonuniform List<vector> 
350
(
(5.2495e-10 3.03079e-10 -14.969)
(8.24955e-10 4.76287e-10 -14.9677)
(1.03611e-09 5.98195e-10 -14.9665)
(1.03408e-09 5.97023e-10 -14.9651)
(7.29914e-10 4.21415e-10 -14.9638)
(1.94323e-10 1.12192e-10 -14.9624)
(-4.12706e-10 -2.38275e-10 -14.961)
(-8.79925e-10 -5.08023e-10 -14.9596)
(-1.0868e-09 -6.27463e-10 -14.9584)
(-1.02242e-09 -5.9029e-10 -14.9571)
(-7.78072e-10 -4.49219e-10 -14.9558)
(-5.0436e-10 -2.91191e-10 -14.9545)
(-3.30804e-10 -1.90989e-10 -14.9531)
(-3.2617e-10 -1.88314e-10 -14.9517)
(-4.58011e-10 -2.64432e-10 -14.9502)
(-6.24226e-10 -3.60396e-10 -14.9488)
(-6.85665e-10 -3.95868e-10 -14.9475)
(-5.32373e-10 -3.07365e-10 -14.9463)
(-1.14102e-10 -6.58767e-11 -14.9453)
(4.81219e-10 2.77831e-10 -14.9443)
(1.08174e-09 6.24544e-10 -14.9433)
(1.46741e-09 8.47206e-10 -14.9423)
(1.40523e-09 8.11306e-10 -14.9411)
(5.17256e-10 2.98637e-10 -14.9399)
(-8.51911e-10 -4.91849e-10 -14.9697)
(5.2495e-10 3.03079e-10 -14.969)
(8.24955e-10 4.76287e-10 -14.9677)
(1.03611e-09 5.98195e-10 -14.9665)
(1.03408e-09 5.97023e-10 -14.9651)
(7.29914e-10 4.21415e-10 -14.9638)
(1.94323e-10 1.12192e-10 -14.9624)
(-4.12706e-10 -2.38275e-10 -14.961)
(-8.79925e-10 -5.08023e-10 -14.9596)
(-1.0868e-09 -6.27463e-10 -14.9584)
(-1.02242e-09 -5.9029e-10 -14.9571)
(-7.78072e-10 -4.49219e-10 -14.9558)
(-5.0436e-10 -2.91191e-10 -14.9545)
(-3.30804e-10 -1.90989e-10 -14.9531)
(-3.2617e-10 -1.88314e-10 -14.9517)
(-4.58011e-10 -2.64432e-10 -14.9502)
(-6.24226e-10 -3.60396e-10 -14.9488)
(-6.85665e-10 -3.95868e-10 -14.9475)
(-5.32373e-10 -3.07365e-10 -14.9463)
(-1.14102e-10 -6.58767e-11 -14.9453)
(4.81219e-10 2.77831e-10 -14.9443)
(1.08174e-09 6.24544e-10 -14.9433)
(1.46741e-09 8.47206e-10 -14.9423)
(1.40523e-09 8.11306e-10 -14.9411)
(5.17256e-10 2.98637e-10 -14.9399)
(-8.51911e-10 -4.91849e-10 -14.9697)
(-0.0019759 -0.00114079 -423.83)
(-0.00093775 -0.00054141 -415.84)
(-0.00101601 -0.000586594 -405.734)
(-0.000914251 -0.000527842 -393.304)
(-0.000827577 -0.000477801 -378.742)
(-0.000747305 -0.000431456 -362.252)
(-0.000672989 -0.00038855 -344.042)
(-0.000600979 -0.000346975 -324.327)
(-0.00052325 -0.000302098 -303.327)
(-0.000426616 -0.000246307 -281.271)
(-0.000294501 -0.00017003 -258.398)
(-0.000110637 -6.38765e-05 -234.963)
(0.000129827 7.49558e-05 -211.249)
(0.000407426 0.000235227 -187.566)
(0.00069066 0.000398752 -164.253)
(0.00093176 0.000537952 -141.663)
(0.0010934 0.000631276 -120.144)
(0.00116567 0.000672997 -100.011)
(0.00116795 0.000674316 -81.5298)
(0.0011346 0.000655063 -64.9233)
(0.00109669 0.000633177 -50.3826)
(0.00106148 0.000612843 -38.0956)
(0.00101333 0.000585048 -28.2707)
(0.000881217 0.000508771 -21.1346)
(0.000839925 0.00048493 -16.6338)
(-0.00190403 -0.00113958 -426.564)
(-0.000678735 -0.000419664 -418.531)
(-0.000768151 -0.000474661 -408.392)
(-0.000696942 -0.000435092 -395.908)
(-0.000636436 -0.00040204 -381.276)
(-0.000580253 -0.00037146 -364.698)
(-0.000527911 -0.000343172 -346.386)
(-0.00047657 -0.000315908 -326.555)
(-0.000420391 -0.000286109 -305.427)
(-0.000349873 -0.000248391 -283.23)
(-0.000253596 -0.000196316 -260.203)
(-0.000120507 -0.000122447 -236.605)
(5.46341e-05 -2.64851e-05 -212.718)
(0.000249648 8.15308e-05 -188.856)
(0.000447582 0.000190756 -165.359)
(0.000614401 0.00028154 -142.588)
(0.0007254 0.000339618 -120.894)
(0.000774778 0.00036187 -100.597)
(0.00077651 0.000356708 -81.9692)
(0.000753805 0.000339229 -65.2343)
(0.000727944 0.000324136 -50.5858)
(0.000704905 0.00031715 -38.2129)
(0.000679395 0.000314303 -28.3258)
(0.000615945 0.00029756 -21.1517)
(0.000634192 0.000333239 -16.6358)
(-0.000859146 -0.00066282 -423.393)
(-0.00048622 -0.000960053 -415.402)
(-0.000471882 -0.000919471 -405.304)
(-0.000426832 -0.000810118 -392.883)
(-0.000384827 -0.000714107 -378.334)
(-0.000346335 -0.000625744 -361.859)
(-0.000310244 -0.000544416 -343.666)
(-0.000273877 -0.000466143 -323.971)
(-0.000231779 -0.000382021 -302.993)
(-0.00017584 -0.000277363 -280.961)
(-9.68915e-05 -0.000132882 -258.112)
(1.19067e-05 6.87133e-05 -234.704)
(0.000153344 0.000329812 -211.017)
(0.000305616 0.000643283 -187.363)
(0.000454992 0.000962718 -164.079)
(0.000574029 0.00123527 -141.518)
(0.000645716 0.00141711 -120.026)
(0.00066888 0.00149631 -99.9173)
(0.000656957 0.00149502 -81.4591)
(0.000628616 0.0014529 -64.8722)
(0.00059827 0.00140303 -50.3477)
(0.00057013 0.00134976 -38.0734)
(0.00052876 0.00125697 -28.2578)
(0.000460331 0.0010192 -21.1277)
(0.000398166 0.000806129 -16.6315)
(-0.000963338 -0.000556182 -425.954)
(-0.000902175 -0.00052087 -417.931)
(-0.000868177 -0.000501241 -407.798)
(-0.000771622 -0.000445495 -395.325)
(-0.000685524 -0.000395786 -380.708)
(-0.000606462 -0.00035014 -364.148)
(-0.000533284 -0.000307891 -345.858)
(-0.000462018 -0.000266746 -326.053)
(-0.000383532 -0.000221432 -304.953)
(-0.000283531 -0.000163696 -282.787)
(-0.000144338 -8.33335e-05 -259.794)
(4.91721e-05 2.83894e-05 -236.232)
(0.000300374 0.00017342 -212.384)
(0.000590846 0.000341124 -188.562)
(0.000883135 0.000509877 -165.107)
(0.00112697 0.000650652 -142.377)
(0.00128429 0.000741485 -120.723)
(0.00134704 0.000777713 -100.463)
(0.00133784 0.000772398 -81.8689)
(0.00129326 0.000746663 -65.1634)
(0.00124317 0.000717741 -50.5396)
(0.00119315 0.000688861 -38.1865)
(0.00111078 0.000641305 -28.3137)
(0.000921672 0.000532126 -21.1483)
(0.000752183 0.000434272 -16.6356)
(0.0009595 0.000553966 -425.954)
(0.000920204 0.000531279 -417.931)
(0.000884625 0.000510737 -407.798)
(0.000787946 0.00045492 -395.325)
(0.000700841 0.00040463 -380.708)
(0.000620643 0.000358328 -364.148)
(0.000546324 0.00031542 -345.858)
(0.00047324 0.000273224 -326.053)
(0.00039265 0.000226696 -304.953)
(0.000290224 0.000167561 -282.787)
(0.000147752 8.53044e-05 -259.794)
(-4.94723e-05 -2.85628e-05 -236.232)
(-0.000304982 -0.000176081 -212.384)
(-0.000599976 -0.000346395 -188.562)
(-0.000896823 -0.00051778 -165.107)
(-0.0011451 -0.00066112 -142.377)
(-0.00130686 -0.000754517 -120.723)
(-0.0013739 -0.000793218 -100.463)
(-0.00136797 -0.000789796 -81.8689)
(-0.00132551 -0.000765284 -65.1634)
(-0.00127603 -0.000736714 -50.5396)
(-0.00122416 -0.000706769 -38.1865)
(-0.00113781 -0.000656911 -28.3137)
(-0.000942299 -0.000544035 -21.1483)
(-0.000764758 -0.000441532 -16.6356)
(0.000996028 0.000431534 -423.394)
(0.001082 -4.64719e-05 -415.402)
(0.00103806 -3.67476e-05 -405.304)
(0.000920523 -2.01056e-05 -392.884)
(0.000815679 -7.74722e-06 -378.334)
(0.000719111 4.04508e-06 -361.859)
(0.000629732 1.46508e-05 -343.667)
(0.000542541 2.34694e-05 -323.971)
(0.000447184 3.0575e-05 -302.994)
(0.000326867 3.62493e-05 -280.961)
(0.000160139 4.17956e-05 -258.112)
(-7.09586e-05 4.98594e-05 -234.704)
(-0.000370571 6.01096e-05 -211.017)
(-0.000720925 8.69339e-05 -187.363)
(-0.00107502 0.000119268 -164.079)
(-0.00137324 0.000154153 -141.518)
(-0.00156913 0.000183984 -120.026)
(-0.0016516 0.000203335 -99.9173)
(-0.00164627 0.000211855 -81.4591)
(-0.00159658 0.000212507 -64.8722)
(-0.00153837 0.000209787 -50.3477)
(-0.00147674 0.000201785 -38.0733)
(-0.00137306 0.000185078 -28.2577)
(-0.00112806 0.00011854 -21.1277)
(-0.000905327 5.52935e-05 -16.6315)
(0.00192595 0.00110792 -426.564)
(0.000705104 0.000382513 -418.531)
(0.00079584 0.000436059 -408.392)
(0.000725442 0.000395521 -395.908)
(0.000665504 0.000361339 -381.276)
(0.000609754 0.000330012 -364.698)
(0.000557787 0.00030122 -346.386)
(0.00050675 0.000273259 -326.555)
(0.00045084 0.000242993 -305.427)
(0.000380533 0.000204884 -283.23)
(0.000284187 0.000152259 -260.203)
(0.000150765 7.81286e-05 -236.605)
(-2.48112e-05 -1.89756e-05 -212.718)
(-0.000220882 -0.00012735 -188.856)
(-0.000420417 -0.000237114 -165.359)
(-0.000589688 -0.000328759 -142.588)
(-0.000704649 -0.000388036 -120.894)
(-0.000760223 -0.000411795 -100.597)
(-0.000771146 -0.000407834 -81.9692)
(-0.000761673 -0.000390195 -65.2343)
(-0.000756129 -0.0003695 -50.5858)
(-0.000755622 -0.000352925 -38.2129)
(-0.000751112 -0.000338451 -28.3258)
(-0.000695093 -0.000309919 -21.1517)
(-0.000704199 -0.000342852 -16.6358)
(0.00197673 0.00114126 -423.83)
(0.000939005 0.000542134 -415.84)
(0.00101743 0.000587415 -405.734)
(0.000915738 0.000528701 -393.304)
(0.000829009 0.000478628 -378.742)
(0.000748721 0.000432274 -362.252)
(0.000674414 0.000389373 -344.042)
(0.000602351 0.000347767 -324.327)
(0.000524616 0.000302887 -303.327)
(0.000427956 0.00024708 -281.271)
(0.00029568 0.000170711 -258.398)
(0.000111539 6.43971e-05 -234.963)
(-0.000129406 -7.47125e-05 -211.249)
(-0.000407523 -0.000235283 -187.566)
(-0.000691572 -0.000399279 -164.253)
(-0.000933932 -0.000539206 -141.663)
(-0.00109755 -0.000633672 -120.144)
(-0.00117283 -0.000677132 -100.011)
(-0.00117942 -0.000680939 -81.5298)
(-0.00115201 -0.000665115 -64.9233)
(-0.00112217 -0.000647882 -50.3826)
(-0.00109541 -0.000632435 -38.0955)
(-0.00105514 -0.000609185 -28.2707)
(-0.000924281 -0.000533634 -21.1346)
(-0.000879305 -0.000507667 -16.6338)
(0.000984642 0.000568482 -425.954)
(0.000926848 0.000535114 -417.931)
(0.000894044 0.000516175 -407.798)
(0.000798327 0.000460913 -395.325)
(0.000712535 0.000411381 -380.708)
(0.000633818 0.000365934 -364.148)
(0.000561158 0.000323984 -345.858)
(0.000490118 0.000282969 -326.053)
(0.000411929 0.000237827 -304.953)
(0.000312312 0.000180313 -282.787)
(0.000173194 9.99935e-05 -259.794)
(-2.08385e-05 -1.2031e-05 -236.232)
(-0.000271503 -0.000156752 -212.384)
(-0.000561609 -0.000324244 -188.562)
(-0.000852799 -0.000492362 -165.107)
(-0.00109449 -0.000631901 -142.377)
(-0.00124824 -0.000720671 -120.723)
(-0.00130544 -0.000753696 -100.463)
(-0.0012871 -0.000743107 -81.8689)
(-0.00123024 -0.000710275 -65.1634)
(-0.00116342 -0.0006717 -50.5396)
(-0.00109743 -0.000633597 -38.1865)
(-0.00100297 -0.000579064 -28.3137)
(-0.000818022 -0.000472283 -21.1483)
(-0.000673726 -0.000388975 -16.6356)
(0.000889045 0.000652789 -423.393)
(0.000521494 0.000947669 -415.402)
(0.000508842 0.000906432 -405.304)
(0.000464885 0.000796658 -392.883)
(0.000423527 0.000700312 -378.334)
(0.000385583 0.00061172 -361.859)
(0.000350046 0.000530206 -343.666)
(0.00031402 0.000451753 -323.971)
(0.000272228 0.000367477 -302.993)
(0.000216573 0.000262689 -280.961)
(0.000137443 0.000118197 -258.112)
(2.8484e-05 -8.32976e-05 -234.704)
(-0.000113277 -0.000344109 -211.017)
(-0.000266387 -0.000656782 -187.363)
(-0.000416644 -0.000974865 -164.079)
(-0.000536717 -0.00124517 -141.518)
(-0.000609821 -0.00142321 -120.026)
(-0.000634947 -0.00149635 -99.9173)
(-0.000625052 -0.00148582 -81.4591)
(-0.00059952 -0.00143087 -64.8722)
(-0.000573387 -0.00136196 -50.3477)
(-0.000550018 -0.0012886 -38.0734)
(-0.000513021 -0.0011788 -28.2578)
(-0.000448415 -0.000937323 -21.1278)
(-0.000390796 -0.000739893 -16.6315)
(-0.000987299 -0.000443513 -423.394)
(-0.00107235 3.2419e-05 -415.402)
(-0.00102799 2.23537e-05 -405.304)
(-0.000910167 5.48904e-06 -392.884)
(-0.000805174 -7.53305e-06 -378.334)
(-0.000708437 -1.96791e-05 -361.859)
(-0.000618851 -3.03795e-05 -343.667)
(-0.000531511 -3.9608e-05 -323.971)
(-0.000435966 -4.68985e-05 -302.994)
(-0.00031543 -5.26637e-05 -280.961)
(-0.000148568 -5.87361e-05 -258.112)
(8.20849e-05 -6.73204e-05 -234.704)
(0.000382245 -7.86181e-05 -211.017)
(0.000732881 -0.000106311 -187.363)
(0.00108734 -0.000139908 -164.079)
(0.001386 -0.000176831 -141.518)
(0.00158222 -0.000209999 -120.026)
(0.00166459 -0.000234531 -99.9173)
(0.00165851 -0.000249799 -81.4591)
(0.0016064 -0.000258497 -64.8722)
(0.00154421 -0.000262215 -50.3477)
(0.00147602 -0.000258242 -38.0733)
(0.00136428 -0.000241974 -28.2577)
(0.00111244 -0.000169214 -21.1277)
(0.00088348 -9.90826e-05 -16.6315)
(-0.000946695 -0.000546573 -425.954)
(-0.000905749 -0.000522933 -417.931)
(-0.000869379 -0.000501935 -407.798)
(-0.000772118 -0.000445782 -395.325)
(-0.000684952 -0.000395456 -380.707)
(-0.000604563 -0.000349044 -364.148)
(-0.000529813 -0.000305887 -345.858)
(-0.000456583 -0.000263608 -326.053)
(-0.000375682 -0.0002169 -304.953)
(-0.00027281 -0.000157506 -282.787)
(-0.000130155 -7.51448e-05 -259.794)
(6.60784e-05 3.81503e-05 -236.232)
(0.000322366 0.000186118 -212.384)
(0.000617798 0.000356685 -188.562)
(0.000915474 0.000528548 -165.107)
(0.00116504 0.000672633 -142.377)
(0.0013284 0.000766949 -120.723)
(0.00139713 0.000806629 -100.463)
(0.0013936 0.000804593 -81.8689)
(0.00135324 0.000781293 -65.1634)
(0.0013064 0.00075425 -50.5396)
(0.00125453 0.000724304 -38.1864)
(0.00116553 0.000672918 -28.3137)
(0.000961717 0.000555246 -21.1483)
(0.000767943 0.000443371 -16.6356)
)
;

boundaryField
{
    outletCentralUnloaded
    {
        type            zeroGradient;
    }
    inletCentralUnloaded
    {
        type            fixedValue;
        value           uniform (0 0 -15);
    }
    outletFuelElement
    {
        type            zeroGradient;
    }
    inletFuelElement
    {
        type            fixedValue;
        value           uniform (0 0 -15);
    }
    defaultFaces
    {
        type            slip;
    }
    baffle_master
    {
        type            slip;
    }
    baffle_slave
    {
        type            slip;
    }
}


// ************************************************************************* //
