/*--------------------------------*- C++ -*----------------------------------*\
| =========                 |                                                 |
| \\      /  F ield         | OpenFOAM: The Open Source CFD Toolbox           |
|  \\    /   O peration     | Version:  2212                                  |
|   \\  /    A nd           | Website:  www.openfoam.com                      |
|    \\/     M anipulation  |                                                 |
\*---------------------------------------------------------------------------*/
FoamFile
{
    version     2.0;
    format      ascii;
    arch        "LSB;label=32;scalar=64";
    class       volScalarField;
    location    "53/fluidRegion";
    object      heatFlux.structure;
}
// * * * * * * * * * * * * * * * * * * * * * * * * * * * * * * * * * * * * * //

dimensions      [1 0 -3 0 0 0 0];

internalField   nonuniform List<scalar> 
350
(
-258314
-258316
-258318
-258320
-258322
-258325
-258328
-258330
-258331
-258332
-258334
-258336
-258339
-258343
-258348
-258353
-258357
-258361
-258364
-258366
-258367
-258369
-258371
-258374
-258806
-258314
-258316
-258318
-258320
-258322
-258325
-258328
-258330
-258331
-258332
-258334
-258336
-258339
-258343
-258348
-258353
-258357
-258361
-258364
-258366
-258367
-258369
-258371
-258374
-258806
445815
1.33959e+06
2.21216e+06
3.0498e+06
3.83928e+06
4.56815e+06
5.22493e+06
5.79926e+06
6.28208e+06
6.66578e+06
6.94432e+06
7.11331e+06
7.17007e+06
7.11373e+06
6.94516e+06
6.66703e+06
6.28372e+06
5.80127e+06
5.22728e+06
4.57086e+06
3.84229e+06
3.05314e+06
2.21582e+06
1.34369e+06
450622
450862
1.35487e+06
2.23745e+06
3.08468e+06
3.8832e+06
4.62043e+06
5.28473e+06
5.86564e+06
6.354e+06
6.7421e+06
7.02384e+06
7.19476e+06
7.25218e+06
7.19519e+06
7.02469e+06
6.74338e+06
6.35568e+06
5.86771e+06
5.28715e+06
4.62321e+06
3.8863e+06
3.08811e+06
2.24119e+06
1.35908e+06
455777
445011
1.33715e+06
2.20814e+06
3.04424e+06
3.83228e+06
4.55982e+06
5.2154e+06
5.78868e+06
6.27063e+06
6.65363e+06
6.93166e+06
7.10034e+06
7.157e+06
7.10076e+06
6.93249e+06
6.65487e+06
6.27226e+06
5.79069e+06
5.21775e+06
4.56252e+06
3.83528e+06
3.04757e+06
2.21178e+06
1.34124e+06
449801
449700
1.35135e+06
2.23163e+06
3.07665e+06
3.87309e+06
4.60839e+06
5.27097e+06
5.85036e+06
6.33744e+06
6.72454e+06
7.00553e+06
7.17601e+06
7.23328e+06
7.17644e+06
7.00638e+06
6.7258e+06
6.33911e+06
5.85242e+06
5.27337e+06
4.61116e+06
3.87617e+06
3.08006e+06
2.23535e+06
1.35553e+06
454591
449699
1.35135e+06
2.23163e+06
3.07665e+06
3.87309e+06
4.60839e+06
5.27097e+06
5.85036e+06
6.33744e+06
6.72453e+06
7.00553e+06
7.17601e+06
7.23328e+06
7.17644e+06
7.00638e+06
6.7258e+06
6.33911e+06
5.85242e+06
5.27337e+06
4.61116e+06
3.87617e+06
3.08006e+06
2.23535e+06
1.35553e+06
454591
445011
1.33715e+06
2.20814e+06
3.04424e+06
3.83228e+06
4.55982e+06
5.2154e+06
5.78868e+06
6.27063e+06
6.65363e+06
6.93166e+06
7.10034e+06
7.157e+06
7.10076e+06
6.93249e+06
6.65487e+06
6.27226e+06
5.79069e+06
5.21775e+06
4.56252e+06
3.83528e+06
3.04757e+06
2.21178e+06
1.34124e+06
449801
450862
1.35487e+06
2.23745e+06
3.08468e+06
3.8832e+06
4.62043e+06
5.28473e+06
5.86564e+06
6.354e+06
6.7421e+06
7.02384e+06
7.19476e+06
7.25218e+06
7.19519e+06
7.02469e+06
6.74338e+06
6.35568e+06
5.86771e+06
5.28715e+06
4.62321e+06
3.8863e+06
3.08811e+06
2.24119e+06
1.35908e+06
455777
445815
1.33959e+06
2.21217e+06
3.0498e+06
3.83927e+06
4.56815e+06
5.22493e+06
5.79926e+06
6.28208e+06
6.66578e+06
6.94432e+06
7.11331e+06
7.17007e+06
7.11373e+06
6.94516e+06
6.66703e+06
6.28372e+06
5.80127e+06
5.22728e+06
4.57086e+06
3.84229e+06
3.05314e+06
2.21582e+06
1.34369e+06
450622
449699
1.35135e+06
2.23163e+06
3.07665e+06
3.87309e+06
4.60839e+06
5.27097e+06
5.85036e+06
6.33744e+06
6.72453e+06
7.00553e+06
7.17601e+06
7.23328e+06
7.17644e+06
7.00638e+06
6.7258e+06
6.33911e+06
5.85242e+06
5.27337e+06
4.61116e+06
3.87617e+06
3.08006e+06
2.23535e+06
1.35553e+06
454591
445011
1.33715e+06
2.20814e+06
3.04424e+06
3.83228e+06
4.55982e+06
5.2154e+06
5.78868e+06
6.27063e+06
6.65363e+06
6.93166e+06
7.10034e+06
7.157e+06
7.10076e+06
6.93249e+06
6.65487e+06
6.27226e+06
5.79069e+06
5.21775e+06
4.56252e+06
3.83528e+06
3.04757e+06
2.21178e+06
1.34124e+06
449801
445011
1.33715e+06
2.20814e+06
3.04424e+06
3.83228e+06
4.55982e+06
5.2154e+06
5.78868e+06
6.27063e+06
6.65363e+06
6.93166e+06
7.10034e+06
7.157e+06
7.10076e+06
6.93249e+06
6.65487e+06
6.27226e+06
5.79069e+06
5.21775e+06
4.56252e+06
3.83528e+06
3.04757e+06
2.21178e+06
1.34124e+06
449801
449699
1.35135e+06
2.23163e+06
3.07665e+06
3.87309e+06
4.60839e+06
5.27097e+06
5.85036e+06
6.33744e+06
6.72453e+06
7.00553e+06
7.17601e+06
7.23328e+06
7.17644e+06
7.00638e+06
6.7258e+06
6.33911e+06
5.85242e+06
5.27336e+06
4.61116e+06
3.87616e+06
3.08006e+06
2.23535e+06
1.35553e+06
454591
)
;

boundaryField
{
    outletCentralUnloaded
    {
        type            zeroGradient;
    }
    inletCentralUnloaded
    {
        type            zeroGradient;
    }
    outletFuelElement
    {
        type            zeroGradient;
    }
    inletFuelElement
    {
        type            zeroGradient;
    }
    defaultFaces
    {
        type            zeroGradient;
    }
    baffle_master
    {
        type            zeroGradient;
    }
    baffle_slave
    {
        type            zeroGradient;
    }
}


// ************************************************************************* //
