/*--------------------------------*- C++ -*----------------------------------*\
| =========                 |                                                 |
| \\      /  F ield         | OpenFOAM: The Open Source CFD Toolbox           |
|  \\    /   O peration     | Version:  2212                                  |
|   \\  /    A nd           | Website:  www.openfoam.com                      |
|    \\/     M anipulation  |                                                 |
\*---------------------------------------------------------------------------*/
FoamFile
{
    version     2.0;
    format      ascii;
    arch        "LSB;label=32;scalar=64";
    class       volScalarField;
    location    "53/fluidRegion";
    object      nut;
}
// * * * * * * * * * * * * * * * * * * * * * * * * * * * * * * * * * * * * * //

dimensions      [0 2 -1 0 0 0 0];

internalField   nonuniform List<scalar> 
350
(
0.000537616
0.00053757
0.000537524
0.000537478
0.000537432
0.000537387
0.000537342
0.000537296
0.000537249
0.000537203
0.000537158
0.000537116
0.000537078
0.000537045
0.000537017
0.000536996
0.000536984
0.000536984
0.000537004
0.000537056
0.000537156
0.000537334
0.000537632
0.000538112
0.000539494
0.000537616
0.00053757
0.000537524
0.000537478
0.000537432
0.000537387
0.000537342
0.000537296
0.000537249
0.000537203
0.000537158
0.000537116
0.000537078
0.000537045
0.000537017
0.000536996
0.000536984
0.000536984
0.000537004
0.000537056
0.000537156
0.000537334
0.000537632
0.000538112
0.000539494
0.010417
0.0101979
0.00992659
0.00959943
0.00922132
0.00879742
0.00833308
0.00783379
0.0073052
0.00675317
0.00618386
0.00560385
0.00502027
0.00444088
0.00387395
0.00332795
0.00281106
0.00233066
0.00189297
0.00150322
0.00116602
0.000885802
0.000666848
0.000511754
0.000416367
0.0104843
0.0102641
0.00999184
0.00966322
0.00928322
0.00885704
0.00839006
0.00788779
0.0073559
0.00680029
0.00622713
0.00564302
0.00505515
0.00447132
0.00389991
0.00334951
0.00282842
0.00234413
0.00190297
0.00151022
0.00117052
0.000888361
0.000668035
0.000512135
0.000416433
0.0104061
0.010187
0.00991593
0.00958904
0.00921127
0.00878777
0.00832389
0.00782511
0.00729707
0.00674565
0.00617697
0.00559763
0.00501475
0.00443607
0.00386984
0.00332453
0.0028083
0.0023285
0.00189135
0.00150206
0.00116523
0.000885312
0.000666565
0.000511605
0.000416317
0.0104694
0.0102494
0.00997735
0.00964902
0.00926941
0.00884372
0.0083773
0.00787567
0.00734451
0.00678968
0.00621736
0.00563416
0.00504725
0.00446441
0.00389401
0.0033446
0.00282447
0.00234106
0.00190069
0.00150863
0.0011695
0.000887785
0.000667774
0.000512059
0.000416424
0.0104694
0.0102494
0.00997735
0.00964902
0.00926941
0.00884372
0.0083773
0.00787567
0.00734451
0.00678968
0.00621736
0.00563416
0.00504725
0.00446441
0.00389401
0.0033446
0.00282447
0.00234106
0.00190069
0.00150863
0.0011695
0.000887785
0.000667774
0.000512059
0.000416424
0.0104061
0.010187
0.00991593
0.00958905
0.00921127
0.00878777
0.00832389
0.00782511
0.00729708
0.00674565
0.00617698
0.00559764
0.00501475
0.00443607
0.00386984
0.00332454
0.00280831
0.0023285
0.00189135
0.00150207
0.00116523
0.000885312
0.000666565
0.000511604
0.000416317
0.0104843
0.0102641
0.00999184
0.00966322
0.00928322
0.00885704
0.00839006
0.00788779
0.0073559
0.00680029
0.00622713
0.00564302
0.00505515
0.00447132
0.00389991
0.00334951
0.00282842
0.00234413
0.00190297
0.00151022
0.00117052
0.000888361
0.000668035
0.000512135
0.000416433
0.010417
0.0101979
0.00992659
0.00959943
0.00922132
0.00879742
0.00833308
0.00783379
0.0073052
0.00675317
0.00618386
0.00560385
0.00502027
0.00444088
0.00387395
0.00332795
0.00281106
0.00233066
0.00189297
0.00150322
0.00116602
0.000885803
0.000666848
0.000511755
0.000416367
0.0104694
0.0102494
0.00997736
0.00964902
0.00926941
0.00884372
0.0083773
0.00787567
0.00734451
0.00678968
0.00621736
0.00563416
0.00504725
0.00446441
0.00389401
0.0033446
0.00282447
0.00234106
0.00190069
0.00150863
0.0011695
0.000887785
0.000667774
0.000512059
0.000416424
0.0104061
0.010187
0.00991593
0.00958904
0.00921127
0.00878777
0.00832389
0.00782511
0.00729707
0.00674565
0.00617697
0.00559763
0.00501475
0.00443607
0.00386984
0.00332453
0.0028083
0.0023285
0.00189135
0.00150206
0.00116523
0.00088531
0.000666564
0.000511604
0.000416316
0.0104061
0.010187
0.00991593
0.00958905
0.00921127
0.00878778
0.00832389
0.00782511
0.00729708
0.00674565
0.00617698
0.00559764
0.00501475
0.00443607
0.00386984
0.00332454
0.00280831
0.0023285
0.00189135
0.00150207
0.00116523
0.000885312
0.000666565
0.000511604
0.000416317
0.0104694
0.0102494
0.00997736
0.00964903
0.00926941
0.00884372
0.0083773
0.00787567
0.00734451
0.00678968
0.00621736
0.00563416
0.00504725
0.00446441
0.00389401
0.0033446
0.00282447
0.00234106
0.00190069
0.00150863
0.0011695
0.000887786
0.000667775
0.000512061
0.000416425
)
;

boundaryField
{
    outletCentralUnloaded
    {
        type            zeroGradient;
    }
    inletCentralUnloaded
    {
        type            zeroGradient;
    }
    outletFuelElement
    {
        type            zeroGradient;
    }
    inletFuelElement
    {
        type            zeroGradient;
    }
    defaultFaces
    {
        type            zeroGradient;
    }
    baffle_master
    {
        type            calculated;
        value           nonuniform List<scalar> 
150
(
0.000537616
0.000537616
0.000537616
0.00053757
0.00053757
0.00053757
0.000537524
0.000537524
0.000537524
0.000537478
0.000537478
0.000537478
0.000537432
0.000537432
0.000537432
0.000537387
0.000537387
0.000537387
0.000537342
0.000537342
0.000537342
0.000537296
0.000537296
0.000537296
0.000537249
0.000537249
0.000537249
0.000537203
0.000537203
0.000537203
0.000537158
0.000537158
0.000537158
0.000537116
0.000537116
0.000537116
0.000537078
0.000537078
0.000537078
0.000537045
0.000537045
0.000537045
0.000537017
0.000537017
0.000537017
0.000536996
0.000536996
0.000536996
0.000536984
0.000536984
0.000536984
0.000536984
0.000536984
0.000536984
0.000537004
0.000537004
0.000537004
0.000537056
0.000537056
0.000537056
0.000537156
0.000537156
0.000537156
0.000537334
0.000537334
0.000537334
0.000537632
0.000537632
0.000537632
0.000538112
0.000538112
0.000538112
0.000539494
0.000539494
0.000539494
0.000537616
0.000537616
0.000537616
0.00053757
0.00053757
0.00053757
0.000537524
0.000537524
0.000537524
0.000537478
0.000537478
0.000537478
0.000537432
0.000537432
0.000537432
0.000537387
0.000537387
0.000537387
0.000537342
0.000537342
0.000537342
0.000537296
0.000537296
0.000537296
0.000537249
0.000537249
0.000537249
0.000537203
0.000537203
0.000537203
0.000537158
0.000537158
0.000537158
0.000537116
0.000537116
0.000537116
0.000537078
0.000537078
0.000537078
0.000537045
0.000537045
0.000537045
0.000537017
0.000537017
0.000537017
0.000536996
0.000536996
0.000536996
0.000536984
0.000536984
0.000536984
0.000536984
0.000536984
0.000536984
0.000537004
0.000537004
0.000537004
0.000537056
0.000537056
0.000537056
0.000537156
0.000537156
0.000537156
0.000537334
0.000537334
0.000537334
0.000537632
0.000537632
0.000537632
0.000538112
0.000538112
0.000538112
0.000539494
0.000539494
0.000539494
)
;
    }
    baffle_slave
    {
        type            calculated;
        value           nonuniform List<scalar> 
150
(
0.0104843
0.0104694
0.0104694
0.0102641
0.0102494
0.0102494
0.00999184
0.00997735
0.00997736
0.00966322
0.00964902
0.00964903
0.00928322
0.00926941
0.00926941
0.00885704
0.00884372
0.00884372
0.00839006
0.0083773
0.0083773
0.00788779
0.00787567
0.00787567
0.0073559
0.00734451
0.00734451
0.00680029
0.00678968
0.00678968
0.00622713
0.00621736
0.00621736
0.00564302
0.00563416
0.00563416
0.00505515
0.00504725
0.00504725
0.00447132
0.00446441
0.00446441
0.00389991
0.00389401
0.00389401
0.00334951
0.0033446
0.0033446
0.00282842
0.00282447
0.00282447
0.00234413
0.00234106
0.00234106
0.00190297
0.00190069
0.00190069
0.00151022
0.00150863
0.00150863
0.00117052
0.0011695
0.0011695
0.000888361
0.000887785
0.000887786
0.000668035
0.000667774
0.000667775
0.000512135
0.000512059
0.000512061
0.000416433
0.000416424
0.000416425
0.0104694
0.0104843
0.0104694
0.0102494
0.0102641
0.0102494
0.00997735
0.00999184
0.00997736
0.00964902
0.00966322
0.00964902
0.00926941
0.00928322
0.00926941
0.00884372
0.00885704
0.00884372
0.0083773
0.00839006
0.0083773
0.00787567
0.00788779
0.00787567
0.00734451
0.0073559
0.00734451
0.00678968
0.00680029
0.00678968
0.00621736
0.00622713
0.00621736
0.00563416
0.00564302
0.00563416
0.00504725
0.00505515
0.00504725
0.00446441
0.00447132
0.00446441
0.00389401
0.00389991
0.00389401
0.0033446
0.00334951
0.0033446
0.00282447
0.00282842
0.00282447
0.00234106
0.00234413
0.00234106
0.00190069
0.00190297
0.00190069
0.00150863
0.00151022
0.00150863
0.0011695
0.00117052
0.0011695
0.000887785
0.000888361
0.000887785
0.000667774
0.000668035
0.000667774
0.000512059
0.000512135
0.000512059
0.000416424
0.000416433
0.000416424
)
;
    }
}


// ************************************************************************* //
