/*--------------------------------*- C++ -*----------------------------------*\
| =========                 |                                                 |
| \\      /  F ield         | OpenFOAM: The Open Source CFD Toolbox           |
|  \\    /   O peration     | Version:  2212                                  |
|   \\  /    A nd           | Website:  www.openfoam.com                      |
|    \\/     M anipulation  |                                                 |
\*---------------------------------------------------------------------------*/
FoamFile
{
    version     2.0;
    format      ascii;
    arch        "LSB;label=32;scalar=64";
    class       volScalarField;
    location    "53/fluidRegion";
    object      p;
}
// * * * * * * * * * * * * * * * * * * * * * * * * * * * * * * * * * * * * * //

dimensions      [1 -1 -2 0 0 0 0];

internalField   nonuniform List<scalar> 
350
(
3.44743e+06
3.44772e+06
3.44802e+06
3.44831e+06
3.44861e+06
3.44891e+06
3.4492e+06
3.4495e+06
3.44979e+06
3.45009e+06
3.45038e+06
3.45068e+06
3.45098e+06
3.45127e+06
3.45157e+06
3.45186e+06
3.45216e+06
3.45245e+06
3.45275e+06
3.45304e+06
3.45334e+06
3.45363e+06
3.45393e+06
3.45422e+06
3.45451e+06
3.44743e+06
3.44772e+06
3.44802e+06
3.44831e+06
3.44861e+06
3.44891e+06
3.4492e+06
3.4495e+06
3.44979e+06
3.45009e+06
3.45038e+06
3.45068e+06
3.45098e+06
3.45127e+06
3.45157e+06
3.45186e+06
3.45216e+06
3.45245e+06
3.45275e+06
3.45304e+06
3.45334e+06
3.45363e+06
3.45393e+06
3.45422e+06
3.45451e+06
3.47383e+06
3.52564e+06
3.57685e+06
3.62713e+06
3.6762e+06
3.72375e+06
3.76955e+06
3.81334e+06
3.85492e+06
3.89411e+06
3.93073e+06
3.96466e+06
3.99579e+06
4.02403e+06
4.04934e+06
4.07172e+06
4.09121e+06
4.1079e+06
4.12193e+06
4.13348e+06
4.14274e+06
4.14994e+06
4.15531e+06
4.15917e+06
4.16184e+06
3.47383e+06
3.52564e+06
3.57685e+06
3.62713e+06
3.6762e+06
3.72375e+06
3.76955e+06
3.81334e+06
3.85492e+06
3.89411e+06
3.93073e+06
3.96466e+06
3.99579e+06
4.02403e+06
4.04934e+06
4.07172e+06
4.09121e+06
4.1079e+06
4.12193e+06
4.13348e+06
4.14274e+06
4.14994e+06
4.15531e+06
4.15917e+06
4.16184e+06
3.47383e+06
3.52564e+06
3.57685e+06
3.62713e+06
3.6762e+06
3.72375e+06
3.76955e+06
3.81334e+06
3.85492e+06
3.89411e+06
3.93073e+06
3.96466e+06
3.99579e+06
4.02403e+06
4.04934e+06
4.07172e+06
4.09121e+06
4.1079e+06
4.12193e+06
4.13348e+06
4.14274e+06
4.14994e+06
4.15531e+06
4.15917e+06
4.16184e+06
3.47383e+06
3.52564e+06
3.57685e+06
3.62713e+06
3.6762e+06
3.72375e+06
3.76955e+06
3.81334e+06
3.85492e+06
3.89411e+06
3.93073e+06
3.96466e+06
3.99579e+06
4.02403e+06
4.04934e+06
4.07172e+06
4.09121e+06
4.1079e+06
4.12193e+06
4.13348e+06
4.14274e+06
4.14994e+06
4.15531e+06
4.15917e+06
4.16184e+06
3.47383e+06
3.52564e+06
3.57685e+06
3.62713e+06
3.6762e+06
3.72375e+06
3.76955e+06
3.81334e+06
3.85492e+06
3.89411e+06
3.93073e+06
3.96466e+06
3.99579e+06
4.02403e+06
4.04934e+06
4.07172e+06
4.09121e+06
4.1079e+06
4.12193e+06
4.13348e+06
4.14274e+06
4.14994e+06
4.15531e+06
4.15917e+06
4.16184e+06
3.47383e+06
3.52564e+06
3.57685e+06
3.62713e+06
3.6762e+06
3.72375e+06
3.76955e+06
3.81334e+06
3.85492e+06
3.89411e+06
3.93073e+06
3.96466e+06
3.99579e+06
4.02403e+06
4.04934e+06
4.07172e+06
4.09121e+06
4.1079e+06
4.12193e+06
4.13348e+06
4.14274e+06
4.14994e+06
4.15531e+06
4.15917e+06
4.16184e+06
3.47383e+06
3.52564e+06
3.57685e+06
3.62713e+06
3.6762e+06
3.72375e+06
3.76955e+06
3.81334e+06
3.85492e+06
3.89411e+06
3.93073e+06
3.96466e+06
3.99579e+06
4.02403e+06
4.04934e+06
4.07172e+06
4.09121e+06
4.1079e+06
4.12193e+06
4.13348e+06
4.14274e+06
4.14994e+06
4.15531e+06
4.15917e+06
4.16184e+06
3.47383e+06
3.52564e+06
3.57685e+06
3.62713e+06
3.6762e+06
3.72375e+06
3.76955e+06
3.81334e+06
3.85492e+06
3.89411e+06
3.93073e+06
3.96466e+06
3.99579e+06
4.02403e+06
4.04934e+06
4.07172e+06
4.09121e+06
4.1079e+06
4.12193e+06
4.13348e+06
4.14274e+06
4.14994e+06
4.15531e+06
4.15917e+06
4.16184e+06
3.47383e+06
3.52564e+06
3.57685e+06
3.62713e+06
3.6762e+06
3.72375e+06
3.76955e+06
3.81334e+06
3.85492e+06
3.89411e+06
3.93073e+06
3.96466e+06
3.99579e+06
4.02403e+06
4.04934e+06
4.07172e+06
4.09121e+06
4.1079e+06
4.12193e+06
4.13348e+06
4.14274e+06
4.14994e+06
4.15531e+06
4.15917e+06
4.16184e+06
3.47383e+06
3.52564e+06
3.57685e+06
3.62713e+06
3.6762e+06
3.72375e+06
3.76955e+06
3.81334e+06
3.85492e+06
3.89411e+06
3.93073e+06
3.96466e+06
3.99579e+06
4.02403e+06
4.04934e+06
4.07172e+06
4.09121e+06
4.1079e+06
4.12193e+06
4.13348e+06
4.14274e+06
4.14994e+06
4.15531e+06
4.15917e+06
4.16184e+06
3.47383e+06
3.52564e+06
3.57685e+06
3.62713e+06
3.6762e+06
3.72375e+06
3.76955e+06
3.81334e+06
3.85492e+06
3.89411e+06
3.93073e+06
3.96466e+06
3.99579e+06
4.02403e+06
4.04934e+06
4.07172e+06
4.09121e+06
4.1079e+06
4.12193e+06
4.13348e+06
4.14274e+06
4.14994e+06
4.15531e+06
4.15917e+06
4.16184e+06
3.47383e+06
3.52564e+06
3.57685e+06
3.62713e+06
3.6762e+06
3.72375e+06
3.76955e+06
3.81334e+06
3.85492e+06
3.89411e+06
3.93073e+06
3.96466e+06
3.99579e+06
4.02403e+06
4.04934e+06
4.07172e+06
4.09121e+06
4.1079e+06
4.12193e+06
4.13348e+06
4.14274e+06
4.14994e+06
4.15531e+06
4.15917e+06
4.16184e+06
)
;

boundaryField
{
    outletCentralUnloaded
    {
        type            fixedValue;
        value           uniform 3.44728e+06;
    }
    inletCentralUnloaded
    {
        type            zeroGradient;
    }
    outletFuelElement
    {
        type            fixedValue;
        value           uniform 3.44728e+06;
    }
    inletFuelElement
    {
        type            zeroGradient;
    }
    defaultFaces
    {
        type            zeroGradient;
    }
    baffle_master
    {
        type            zeroGradient;
    }
    baffle_slave
    {
        type            zeroGradient;
    }
}


// ************************************************************************* //
