/*--------------------------------*- C++ -*----------------------------------*\
| =========                 |                                                 |
| \\      /  F ield         | OpenFOAM: The Open Source CFD Toolbox           |
|  \\    /   O peration     | Version:  2212                                  |
|   \\  /    A nd           | Website:  www.openfoam.com                      |
|    \\/     M anipulation  |                                                 |
\*---------------------------------------------------------------------------*/
FoamFile
{
    version     2.0;
    format      ascii;
    arch        "LSB;label=32;scalar=64";
    class       volScalarField;
    location    "53/fluidRegion";
    object      Re;
}
// * * * * * * * * * * * * * * * * * * * * * * * * * * * * * * * * * * * * * //

dimensions      [0 0 0 0 0 0 0];

internalField   nonuniform List<scalar> 
350
(
174035
174035
174034
174033
174033
174032
174032
174031
174030
174029
174028
174027
174028
174029
174030
174032
174033
174034
174034
174033
174032
174031
174031
174031
174393
174035
174035
174034
174033
174033
174032
174032
174031
174030
174029
174028
174027
174028
174029
174030
174032
174033
174034
174034
174033
174032
174031
174031
174031
174393
55426.9
55377.4
55378.7
55378.9
55377.9
55375.5
55371.6
55366
55358.5
55348.9
55337
55322.8
55306.3
55287.6
55266.3
55241.5
55211.3
55173.7
55128.1
55080.3
55049.7
55095.8
55363
56108.7
56598.4
54936.1
54879
54876.1
54872.1
54867.2
54861.3
54854.1
54845.4
54835
54822.8
54808.7
54793.3
54777.1
54761.3
54746.5
54732.8
54718.9
54703.1
54684.6
54669.7
54679.3
54776.4
55111
55947
56545.6
55509
55459.1
55460.8
55461.3
55460.5
55458.4
55454.6
55449.1
55441.6
55432
55419.9
55405.3
55388.2
55368.4
55345.3
55317.9
55284.2
55242.3
55191.3
55137.1
55098.6
55135
55389.7
56120.8
56600.2
55045.8
54990.9
54989.1
54986.4
54982.6
54977.6
54971.4
54963.6
54954
54942.6
54929.2
54914.2
54898.2
54881.9
54865.8
54849.8
54832.4
54811.7
54787.2
54764.9
54765.5
54851.1
55170.5
55985.9
56558.7
55045.8
54990.9
54989.1
54986.4
54982.6
54977.6
54971.4
54963.6
54954
54942.6
54929.2
54914.2
54898.2
54881.9
54865.8
54849.8
54832.4
54811.7
54787.2
54764.9
54765.5
54851.1
55170.5
55985.9
56558.7
55509
55459.1
55460.8
55461.3
55460.5
55458.3
55454.6
55449.1
55441.6
55431.9
55419.9
55405.3
55388.2
55368.3
55345.3
55317.9
55284.2
55242.2
55191.2
55136.9
55098.5
55134.8
55389.6
56120.6
56600.1
54936.1
54879
54876.1
54872.1
54867.2
54861.3
54854.1
54845.4
54835
54822.8
54808.7
54793.3
54777.1
54761.3
54746.5
54732.8
54718.9
54703.1
54684.6
54669.7
54679.3
54776.4
55111
55947
56545.6
55426.9
55377.4
55378.7
55378.9
55377.9
55375.5
55371.6
55366
55358.5
55348.9
55337
55322.8
55306.3
55287.6
55266.3
55241.5
55211.3
55173.7
55128.1
55080.3
55049.6
55095.8
55362.9
56108.6
56598.4
55045.8
54990.9
54989.1
54986.4
54982.6
54977.6
54971.4
54963.6
54954
54942.6
54929.2
54914.2
54898.2
54881.9
54865.8
54849.8
54832.4
54811.7
54787.2
54764.9
54765.5
54851.1
55170.5
55986
56558.7
55509
55459.1
55460.8
55461.3
55460.5
55458.4
55454.6
55449.1
55441.6
55432
55419.9
55405.3
55388.2
55368.4
55345.3
55317.9
55284.2
55242.3
55191.3
55137.1
55098.6
55135
55389.8
56120.9
56600.2
55509
55459.1
55460.8
55461.3
55460.5
55458.3
55454.6
55449.1
55441.6
55431.9
55419.9
55405.3
55388.2
55368.3
55345.3
55317.9
55284.2
55242.2
55191.2
55136.9
55098.5
55134.8
55389.6
56120.7
56600.2
55045.8
54990.9
54989.1
54986.4
54982.6
54977.6
54971.4
54963.6
54954
54942.6
54929.2
54914.2
54898.2
54881.9
54865.8
54849.8
54832.4
54811.7
54787.2
54764.9
54765.5
54851.1
55170.5
55986
56558.7
)
;

boundaryField
{
    outletCentralUnloaded
    {
        type            zeroGradient;
    }
    inletCentralUnloaded
    {
        type            zeroGradient;
    }
    outletFuelElement
    {
        type            zeroGradient;
    }
    inletFuelElement
    {
        type            zeroGradient;
    }
    defaultFaces
    {
        type            zeroGradient;
    }
    baffle_master
    {
        type            zeroGradient;
    }
    baffle_slave
    {
        type            zeroGradient;
    }
}


// ************************************************************************* //
