/*--------------------------------*- C++ -*----------------------------------*\
| =========                 |                                                 |
| \\      /  F ield         | OpenFOAM: The Open Source CFD Toolbox           |
|  \\    /   O peration     | Version:  2212                                  |
|   \\  /    A nd           | Website:  www.openfoam.com                      |
|    \\/     M anipulation  |                                                 |
\*---------------------------------------------------------------------------*/
FoamFile
{
    version     2.0;
    format      ascii;
    arch        "LSB;label=32;scalar=64";
    class       volScalarField;
    location    "53/fluidRegion";
    object      T;
}
// * * * * * * * * * * * * * * * * * * * * * * * * * * * * * * * * * * * * * //

dimensions      [0 0 0 1 0 0 0];

internalField   nonuniform List<scalar> 
350
(
83.2889
83.2894
83.2899
83.2904
83.2909
83.2914
83.2918
83.2923
83.2928
83.2932
83.2937
83.2941
83.2946
83.295
83.2955
83.296
83.2965
83.297
83.2975
83.2979
83.2984
83.2988
83.2991
83.2995
83.2999
83.2889
83.2894
83.2899
83.2904
83.2909
83.2914
83.2918
83.2923
83.2928
83.2932
83.2937
83.2941
83.2946
83.295
83.2955
83.296
83.2965
83.297
83.2975
83.2979
83.2984
83.2988
83.2991
83.2995
83.2999
1822.75
1816.62
1798.09
1767.36
1724.8
1670.88
1606.24
1531.61
1447.89
1356.06
1257.3
1152.92
1044.44
933.616
822.403
712.899
607.211
507.301
414.881
331.387
258.078
196.138
146.791
111.207
90.0877
1850.98
1845.07
1826.53
1795.59
1752.59
1698.03
1632.54
1556.87
1471.92
1378.71
1278.38
1172.29
1061.96
949.155
835.883
724.291
616.555
514.709
420.523
335.477
260.853
197.847
147.694
111.571
90.1651
1818.16
1812.02
1793.51
1762.84
1720.36
1666.56
1602.07
1527.63
1444.11
1352.52
1254.02
1149.91
1041.74
931.233
820.347
711.172
605.803
506.193
414.043
330.784
257.673
195.891
146.661
111.154
90.0754
1844.63
1838.66
1820.11
1789.2
1746.29
1691.86
1626.55
1551.11
1466.43
1373.53
1273.55
1167.84
1057.93
945.578
832.775
721.661
614.395
512.995
419.217
334.529
260.209
197.45
147.485
111.486
90.1473
1844.63
1838.66
1820.11
1789.2
1746.29
1691.86
1626.55
1551.11
1466.43
1373.53
1273.55
1167.84
1057.93
945.578
832.775
721.661
614.395
512.995
419.217
334.529
260.209
197.45
147.485
111.486
90.1473
1818.16
1812.02
1793.51
1762.84
1720.36
1666.57
1602.07
1527.63
1444.11
1352.52
1254.02
1149.92
1041.74
931.234
820.348
711.173
605.804
506.194
414.044
330.785
257.673
195.891
146.661
111.154
90.0754
1850.98
1845.07
1826.53
1795.59
1752.59
1698.03
1632.54
1556.87
1471.92
1378.71
1278.38
1172.29
1061.96
949.155
835.883
724.291
616.555
514.709
420.523
335.477
260.853
197.847
147.694
111.571
90.1651
1822.75
1816.62
1798.09
1767.36
1724.8
1670.88
1606.24
1531.61
1447.89
1356.06
1257.3
1152.92
1044.44
933.616
822.403
712.899
607.211
507.301
414.881
331.387
258.078
196.138
146.791
111.207
90.0877
1844.63
1838.66
1820.11
1789.2
1746.29
1691.86
1626.55
1551.11
1466.43
1373.53
1273.55
1167.84
1057.93
945.578
832.775
721.661
614.395
512.995
419.217
334.529
260.209
197.45
147.485
111.486
90.1473
1818.16
1812.02
1793.51
1762.84
1720.36
1666.56
1602.07
1527.63
1444.11
1352.52
1254.02
1149.91
1041.74
931.233
820.347
711.172
605.803
506.193
414.043
330.785
257.673
195.891
146.661
111.154
90.0754
1818.16
1812.02
1793.51
1762.84
1720.36
1666.57
1602.07
1527.63
1444.11
1352.52
1254.02
1149.92
1041.74
931.234
820.348
711.173
605.804
506.194
414.044
330.785
257.673
195.891
146.661
111.154
90.0754
1844.63
1838.66
1820.11
1789.2
1746.29
1691.86
1626.55
1551.11
1466.43
1373.53
1273.55
1167.84
1057.93
945.578
832.775
721.661
614.395
512.995
419.217
334.529
260.209
197.45
147.485
111.486
90.1473
)
;

boundaryField
{
    outletCentralUnloaded
    {
        type            zeroGradient;
    }
    inletCentralUnloaded
    {
        type            fixedValue;
        value           uniform 83.3;
    }
    outletFuelElement
    {
        type            zeroGradient;
    }
    inletFuelElement
    {
        type            fixedValue;
        value           uniform 83.3;
    }
    defaultFaces
    {
        type            zeroGradient;
    }
    baffle_master
    {
        type            zeroGradient;
    }
    baffle_slave
    {
        type            zeroGradient;
    }
}


// ************************************************************************* //
