/*--------------------------------*- C++ -*----------------------------------*\
| =========                 |                                                 |
| \\      /  F ield         | OpenFOAM: The Open Source CFD Toolbox           |
|  \\    /   O peration     | Version:  2212                                  |
|   \\  /    A nd           | Website:  www.openfoam.com                      |
|    \\/     M anipulation  |                                                 |
\*---------------------------------------------------------------------------*/
FoamFile
{
    version     2.0;
    format      ascii;
    arch        "LSB;label=32;scalar=64";
    class       volScalarField;
    location    "53/fluidRegion";
    object      T.fuelAvForNeutronics;
}
// * * * * * * * * * * * * * * * * * * * * * * * * * * * * * * * * * * * * * //

dimensions      [0 0 0 1 0 0 0];

internalField   nonuniform List<scalar> 
350
(
0
0
0
0
0
0
0
0
0
0
0
0
0
0
0
0
0
0
0
0
0
0
0
0
0
0
0
0
0
0
0
0
0
0
0
0
0
0
0
0
0
0
0
0
0
0
0
0
0
0
2218.23
3005.3
3761.66
4475.8
5136.76
5734.39
6259.49
6703.94
7060.87
7324.74
7491.47
7558.47
7524.74
7390.87
7159.03
6832.93
6417.62
5919.23
5344.51
4700.28
3992.25
3223.8
2394.6
1503.77
564.552
2250.89
3047.15
3812.28
4534.62
5203.09
5807.43
6338.32
6787.57
7148.23
7414.69
7582.83
7650.05
7615.33
7479.26
7244.06
6913.48
6492.67
5987.87
5405.97
4753.92
4037.5
3260.15
2421.43
1520.28
570.094
2212.94
2998.56
3753.55
4466.4
5126.18
5722.77
6246.95
6690.65
7047
7310.48
7476.99
7543.97
7510.4
7376.88
7145.58
6820.19
6405.75
5908.38
5334.8
4691.81
3985.11
3218.08
2390.4
1501.19
563.678
2243.52
3037.65
3800.75
4521.18
5187.91
5790.69
6320.24
6768.37
7128.15
7394.01
7561.82
7628.98
7594.48
7458.91
7224.48
6894.92
6475.38
5972.06
5391.81
4741.56
4027.07
3251.77
2415.24
1516.47
568.817
2243.52
3037.65
3800.75
4521.18
5187.91
5790.69
6320.24
6768.37
7128.15
7394.01
7561.82
7628.98
7594.48
7458.91
7224.48
6894.92
6475.38
5972.06
5391.81
4741.56
4027.07
3251.77
2415.24
1516.47
568.817
2212.94
2998.56
3753.55
4466.4
5126.19
5722.77
6246.96
6690.66
7047.01
7310.48
7476.99
7543.97
7510.4
7376.89
7145.59
6820.2
6405.76
5908.38
5334.8
4691.81
3985.11
3218.08
2390.4
1501.19
563.679
2250.89
3047.15
3812.28
4534.62
5203.09
5807.43
6338.32
6787.57
7148.23
7414.69
7582.83
7650.05
7615.33
7479.26
7244.05
6913.48
6492.67
5987.87
5405.97
4753.92
4037.5
3260.15
2421.43
1520.28
570.094
2218.23
3005.3
3761.67
4475.8
5136.76
5734.39
6259.49
6703.94
7060.87
7324.74
7491.47
7558.47
7524.74
7390.87
7159.03
6832.93
6417.62
5919.23
5344.51
4700.28
3992.25
3223.8
2394.6
1503.77
564.552
2243.52
3037.65
3800.75
4521.18
5187.91
5790.69
6320.24
6768.37
7128.15
7394.01
7561.82
7628.98
7594.48
7458.91
7224.48
6894.93
6475.38
5972.06
5391.81
4741.56
4027.07
3251.77
2415.24
1516.47
568.817
2212.94
2998.56
3753.55
4466.4
5126.18
5722.77
6246.95
6690.65
7047
7310.48
7476.99
7543.97
7510.4
7376.88
7145.58
6820.19
6405.75
5908.38
5334.8
4691.81
3985.11
3218.08
2390.4
1501.19
563.678
2212.94
2998.56
3753.55
4466.4
5126.19
5722.77
6246.96
6690.66
7047
7310.48
7476.99
7543.97
7510.4
7376.89
7145.59
6820.2
6405.75
5908.38
5334.8
4691.81
3985.11
3218.08
2390.4
1501.19
563.679
2243.52
3037.65
3800.75
4521.18
5187.91
5790.69
6320.24
6768.37
7128.15
7394.01
7561.82
7628.98
7594.48
7458.91
7224.48
6894.92
6475.38
5972.06
5391.81
4741.56
4027.07
3251.77
2415.24
1516.47
568.817
)
;

boundaryField
{
    outletCentralUnloaded
    {
        type            zeroGradient;
    }
    inletCentralUnloaded
    {
        type            zeroGradient;
    }
    outletFuelElement
    {
        type            zeroGradient;
    }
    inletFuelElement
    {
        type            zeroGradient;
    }
    defaultFaces
    {
        type            zeroGradient;
    }
    baffle_master
    {
        type            zeroGradient;
    }
    baffle_slave
    {
        type            zeroGradient;
    }
}


// ************************************************************************* //
