/*--------------------------------*- C++ -*----------------------------------*\
| =========                 |                                                 |
| \\      /  F ield         | OpenFOAM: The Open Source CFD Toolbox           |
|  \\    /   O peration     | Version:  2212                                  |
|   \\  /    A nd           | Website:  www.openfoam.com                      |
|    \\/     M anipulation  |                                                 |
\*---------------------------------------------------------------------------*/
FoamFile
{
    version     2.0;
    format      ascii;
    arch        "LSB;label=32;scalar=64";
    class       volScalarField;
    location    "53/fluidRegion";
    object      Tcav.nuclearFuelPin;
}
// * * * * * * * * * * * * * * * * * * * * * * * * * * * * * * * * * * * * * //

dimensions      [0 0 0 1 0 0 0];

internalField   nonuniform List<scalar> 
350
(
0
0
0
0
0
0
0
0
0
0
0
0
0
0
0
0
0
0
0
0
0
0
0
0
0
0
0
0
0
0
0
0
0
0
0
0
0
0
0
0
0
0
0
0
0
0
0
0
0
0
1844.76
1882.91
1908.11
1920.37
1919.8
1906.68
1881.44
1844.64
1796.99
1739.34
1672.66
1598.07
1516.77
1430.1
1339.51
1246.46
1152.33
1058.19
964.431
870.237
772.688
665.491
537.905
377.85
186.947
1873.18
1911.95
1937.54
1949.96
1949.32
1935.91
1910.16
1872.65
1824.09
1765.34
1697.41
1621.4
1538.56
1450.23
1357.89
1263.03
1167.08
1071.16
975.734
880.01
781.072
672.544
543.47
381.466
188.169
1840.14
1878.21
1903.37
1915.62
1915.08
1902.03
1876.88
1840.21
1792.72
1735.26
1668.8
1594.43
1513.38
1426.99
1336.68
1243.91
1150.07
1056.2
962.709
868.754
771.424
664.438
537.087
377.323
186.761
1866.79
1905.4
1930.89
1943.25
1942.62
1929.26
1903.61
1866.25
1817.89
1759.39
1691.73
1616.04
1533.54
1445.6
1353.65
1259.2
1163.67
1068.16
973.12
877.749
779.132
670.911
542.18
380.627
187.886
1866.79
1905.4
1930.89
1943.25
1942.62
1929.26
1903.61
1866.25
1817.89
1759.39
1691.73
1616.04
1533.54
1445.6
1353.65
1259.2
1163.67
1068.16
973.12
877.749
779.132
670.911
542.18
380.627
187.886
1840.14
1878.21
1903.38
1915.62
1915.09
1902.03
1876.89
1840.21
1792.72
1735.26
1668.8
1594.43
1513.38
1426.99
1336.68
1243.91
1150.07
1056.2
962.709
868.755
771.424
664.439
537.088
377.323
186.761
1873.18
1911.95
1937.54
1949.96
1949.32
1935.91
1910.16
1872.65
1824.09
1765.34
1697.41
1621.4
1538.56
1450.23
1357.89
1263.03
1167.08
1071.16
975.734
880.01
781.072
672.544
543.47
381.466
188.169
1844.76
1882.91
1908.11
1920.37
1919.8
1906.68
1881.44
1844.64
1796.99
1739.34
1672.66
1598.06
1516.77
1430.1
1339.51
1246.46
1152.33
1058.19
964.431
870.237
772.688
665.491
537.905
377.85
186.947
1866.79
1905.4
1930.89
1943.25
1942.62
1929.26
1903.61
1866.25
1817.89
1759.39
1691.73
1616.04
1533.54
1445.6
1353.65
1259.2
1163.67
1068.16
973.12
877.749
779.132
670.911
542.18
380.627
187.886
1840.14
1878.21
1903.37
1915.62
1915.08
1902.03
1876.88
1840.21
1792.72
1735.26
1668.8
1594.43
1513.38
1426.99
1336.68
1243.91
1150.07
1056.2
962.709
868.754
771.424
664.438
537.087
377.323
186.761
1840.14
1878.21
1903.37
1915.62
1915.09
1902.03
1876.89
1840.21
1792.72
1735.26
1668.8
1594.43
1513.38
1426.99
1336.68
1243.91
1150.07
1056.2
962.709
868.755
771.424
664.439
537.087
377.323
186.761
1866.79
1905.4
1930.89
1943.25
1942.62
1929.26
1903.61
1866.25
1817.89
1759.39
1691.73
1616.04
1533.54
1445.6
1353.65
1259.2
1163.67
1068.16
973.12
877.749
779.132
670.911
542.18
380.626
187.886
)
;

boundaryField
{
    outletCentralUnloaded
    {
        type            zeroGradient;
    }
    inletCentralUnloaded
    {
        type            zeroGradient;
    }
    outletFuelElement
    {
        type            zeroGradient;
    }
    inletFuelElement
    {
        type            zeroGradient;
    }
    defaultFaces
    {
        type            zeroGradient;
    }
    baffle_master
    {
        type            zeroGradient;
    }
    baffle_slave
    {
        type            zeroGradient;
    }
}


// ************************************************************************* //
