/*--------------------------------*- C++ -*----------------------------------*\
| =========                 |                                                 |
| \\      /  F ield         | OpenFOAM: The Open Source CFD Toolbox           |
|  \\    /   O peration     | Version:  2212                                  |
|   \\  /    A nd           | Website:  www.openfoam.com                      |
|    \\/     M anipulation  |                                                 |
\*---------------------------------------------------------------------------*/
FoamFile
{
    version     2.0;
    format      ascii;
    arch        "LSB;label=32;scalar=64";
    class       volScalarField;
    location    "53/fluidRegion";
    object      Tco.nuclearFuelPin;
}
// * * * * * * * * * * * * * * * * * * * * * * * * * * * * * * * * * * * * * //

dimensions      [0 0 0 1 0 0 0];

internalField   nonuniform List<scalar> 
350
(
0
0
0
0
0
0
0
0
0
0
0
0
0
0
0
0
0
0
0
0
0
0
0
0
0
0
0
0
0
0
0
0
0
0
0
0
0
0
0
0
0
0
0
0
0
0
0
0
0
0
1839.11
1865.93
1880.09
1881.73
1871.16
1848.81
1815.24
1771.17
1717.4
1654.89
1584.69
1507.95
1425.93
1339.98
1251.52
1161.99
1072.72
984.69
898.207
812.329
724.01
626.81
509.833
360.827
181.238
1867.47
1894.78
1909.19
1910.88
1900.13
1877.38
1843.21
1798.33
1743.59
1679.93
1608.42
1530.25
1446.68
1359.08
1268.9
1177.6
1086.56
996.823
908.751
821.438
731.836
633.421
515.076
364.248
182.395
1834.5
1861.27
1875.4
1877.06
1866.53
1844.26
1810.81
1766.88
1713.28
1650.96
1580.98
1504.48
1422.71
1337.03
1248.85
1159.6
1070.6
982.84
896.605
810.951
722.835
625.828
509.066
360.331
181.062
1861.09
1888.28
1902.61
1904.27
1893.55
1870.88
1836.84
1792.13
1737.6
1674.19
1602.98
1525.13
1441.9
1354.68
1264.89
1174
1083.36
994.018
906.312
819.331
730.025
631.89
513.861
363.453
182.127
1861.09
1888.28
1902.61
1904.27
1893.55
1870.88
1836.84
1792.13
1737.6
1674.19
1602.98
1525.13
1441.9
1354.68
1264.89
1174
1083.36
994.018
906.312
819.331
730.025
631.89
513.861
363.453
182.127
1834.5
1861.27
1875.4
1877.06
1866.53
1844.26
1810.81
1766.88
1713.28
1650.97
1580.98
1504.48
1422.71
1337.03
1248.85
1159.6
1070.6
982.841
896.606
810.952
722.835
625.829
509.067
360.331
181.062
1867.47
1894.78
1909.19
1910.88
1900.13
1877.38
1843.21
1798.33
1743.59
1679.93
1608.42
1530.25
1446.68
1359.08
1268.9
1177.6
1086.56
996.823
908.751
821.438
731.836
633.421
515.077
364.248
182.395
1839.11
1865.93
1880.08
1881.73
1871.16
1848.81
1815.24
1771.17
1717.4
1654.89
1584.69
1507.95
1425.93
1339.98
1251.52
1161.99
1072.72
984.69
898.207
812.329
724.01
626.81
509.833
360.827
181.238
1861.09
1888.28
1902.61
1904.27
1893.55
1870.88
1836.84
1792.13
1737.6
1674.19
1602.98
1525.13
1441.9
1354.68
1264.89
1174
1083.36
994.018
906.312
819.331
730.025
631.89
513.861
363.453
182.127
1834.5
1861.27
1875.4
1877.06
1866.53
1844.26
1810.81
1766.88
1713.28
1650.97
1580.98
1504.48
1422.71
1337.03
1248.85
1159.6
1070.6
982.84
896.605
810.951
722.835
625.829
509.066
360.331
181.062
1834.5
1861.27
1875.4
1877.06
1866.53
1844.26
1810.81
1766.88
1713.28
1650.97
1580.98
1504.48
1422.71
1337.03
1248.85
1159.6
1070.6
982.841
896.606
810.952
722.835
625.829
509.067
360.331
181.062
1861.09
1888.28
1902.61
1904.27
1893.55
1870.88
1836.84
1792.13
1737.6
1674.19
1602.98
1525.13
1441.9
1354.68
1264.89
1174
1083.36
994.018
906.312
819.331
730.025
631.89
513.861
363.453
182.127
)
;

boundaryField
{
    outletCentralUnloaded
    {
        type            zeroGradient;
    }
    inletCentralUnloaded
    {
        type            zeroGradient;
    }
    outletFuelElement
    {
        type            zeroGradient;
    }
    inletFuelElement
    {
        type            zeroGradient;
    }
    defaultFaces
    {
        type            zeroGradient;
    }
    baffle_master
    {
        type            zeroGradient;
    }
    baffle_slave
    {
        type            zeroGradient;
    }
}


// ************************************************************************* //
