/*--------------------------------*- C++ -*----------------------------------*\
| =========                 |                                                 |
| \\      /  F ield         | OpenFOAM: The Open Source CFD Toolbox           |
|  \\    /   O peration     | Version:  2212                                  |
|   \\  /    A nd           | Website:  www.openfoam.com                      |
|    \\/     M anipulation  |                                                 |
\*---------------------------------------------------------------------------*/
FoamFile
{
    version     2.0;
    format      ascii;
    arch        "LSB;label=32;scalar=64";
    class       volScalarField;
    location    "53/fluidRegion";
    object      Tfi.nuclearFuelPin;
}
// * * * * * * * * * * * * * * * * * * * * * * * * * * * * * * * * * * * * * //

dimensions      [0 0 0 1 0 0 0];

internalField   nonuniform List<scalar> 
350
(
0
0
0
0
0
0
0
0
0
0
0
0
0
0
0
0
0
0
0
0
0
0
0
0
0
0
0
0
0
0
0
0
0
0
0
0
0
0
0
0
0
0
0
0
0
0
0
0
0
0
2417.92
3606.32
4754.52
5844.79
6860.26
7785.2
8605.23
9307.59
9881.34
10317.5
10609.4
10752.3
10744
10584.9
10277.4
9826.42
9239.02
8524.02
7691.58
6752.62
5717.45
4594.67
3389.51
2107.11
766.934
2452.83
3655.03
4816.47
5919.26
6946.31
7881.7
8710.91
9421.02
10001
10441.7
10736.4
10880.4
10871.5
10709.9
10398.1
9941.25
9346.38
8622.49
7779.92
6829.76
5782.46
4646.72
3427.73
2130.52
774.79
2412.27
3598.5
4744.6
5832.89
6846.55
7769.84
8588.42
9289.56
9862.33
10297.8
10589.2
10731.9
10723.8
10565.1
10258.3
9808.23
9222.01
8508.42
7677.59
6740.4
5707.16
4586.45
3383.49
2103.43
765.691
2444.94
3643.95
4802.33
5902.22
6926.59
7859.56
8686.64
9394.96
9973.48
10413.2
10707.2
10850.9
10842.2
10681.1
10370.3
9914.81
9321.65
8599.81
7759.57
6811.99
5767.49
4634.72
3418.92
2125.13
772.981
2444.94
3643.95
4802.33
5902.22
6926.59
7859.56
8686.64
9394.96
9973.48
10413.2
10707.2
10850.9
10842.2
10681.1
10370.3
9914.81
9321.65
8599.81
7759.57
6811.99
5767.49
4634.73
3418.92
2125.13
772.981
2412.27
3598.5
4744.6
5832.9
6846.55
7769.84
8588.42
9289.56
9862.34
10297.8
10589.2
10731.9
10723.8
10565.1
10258.3
9808.23
9222.01
8508.42
7677.59
6740.4
5707.16
4586.45
3383.49
2103.43
765.692
2452.83
3655.03
4816.47
5919.26
6946.31
7881.7
8710.91
9421.02
10001
10441.7
10736.4
10880.4
10871.5
10709.9
10398.1
9941.25
9346.38
8622.49
7779.92
6829.76
5782.46
4646.72
3427.73
2130.52
774.79
2417.92
3606.32
4754.52
5844.79
6860.26
7785.2
8605.23
9307.59
9881.34
10317.5
10609.4
10752.3
10744
10584.9
10277.4
9826.42
9239.02
8524.02
7691.58
6752.62
5717.45
4594.67
3389.51
2107.11
766.934
2444.94
3643.95
4802.33
5902.22
6926.59
7859.56
8686.64
9394.96
9973.48
10413.2
10707.2
10850.9
10842.2
10681.1
10370.3
9914.81
9321.65
8599.81
7759.57
6811.99
5767.49
4634.73
3418.92
2125.13
772.981
2412.27
3598.5
4744.6
5832.9
6846.55
7769.84
8588.42
9289.56
9862.33
10297.8
10589.2
10731.9
10723.8
10565.1
10258.3
9808.23
9222.01
8508.42
7677.59
6740.4
5707.16
4586.45
3383.49
2103.43
765.692
2412.27
3598.5
4744.6
5832.9
6846.55
7769.84
8588.42
9289.56
9862.34
10297.8
10589.2
10731.9
10723.8
10565.1
10258.3
9808.23
9222.01
8508.42
7677.59
6740.4
5707.16
4586.45
3383.49
2103.43
765.692
2444.94
3643.95
4802.33
5902.22
6926.59
7859.56
8686.64
9394.96
9973.48
10413.2
10707.2
10850.9
10842.2
10681.1
10370.3
9914.81
9321.65
8599.81
7759.57
6811.99
5767.49
4634.72
3418.92
2125.13
772.981
)
;

boundaryField
{
    outletCentralUnloaded
    {
        type            zeroGradient;
    }
    inletCentralUnloaded
    {
        type            zeroGradient;
    }
    outletFuelElement
    {
        type            zeroGradient;
    }
    inletFuelElement
    {
        type            zeroGradient;
    }
    defaultFaces
    {
        type            zeroGradient;
    }
    baffle_master
    {
        type            zeroGradient;
    }
    baffle_slave
    {
        type            zeroGradient;
    }
}


// ************************************************************************* //
