/*--------------------------------*- C++ -*----------------------------------*\
| =========                 |                                                 |
| \\      /  F ield         | OpenFOAM: The Open Source CFD Toolbox           |
|  \\    /   O peration     | Version:  2212                                  |
|   \\  /    A nd           | Website:  www.openfoam.com                      |
|    \\/     M anipulation  |                                                 |
\*---------------------------------------------------------------------------*/
FoamFile
{
    version     2.0;
    format      ascii;
    arch        "LSB;label=32;scalar=64";
    class       volScalarField;
    location    "53/fluidRegion";
    object      Tfo.nuclearFuelPin;
}
// * * * * * * * * * * * * * * * * * * * * * * * * * * * * * * * * * * * * * //

dimensions      [0 0 0 1 0 0 0];

internalField   nonuniform List<scalar> 
350
(
0
0
0
0
0
0
0
0
0
0
0
0
0
0
0
0
0
0
0
0
0
0
0
0
0
0
0
0
0
0
0
0
0
0
0
0
0
0
0
0
0
0
0
0
0
0
0
0
0
0
2020
2409.26
2777.26
3118.58
3428.16
3701.38
3934.15
4122.98
4265
4358.09
4400.84
4392.62
4333.62
4224.82
4068
3865.67
3620.95
3337.28
3018.02
2665.95
2282.17
1864.95
1408.42
905.734
363.974
2050.41
2444.31
2816.63
3161.88
3474.94
3751.16
3986.38
4177.07
4320.36
4414.08
4456.82
4447.96
4387.66
4276.95
4117.62
3912.24
3663.98
3376.36
3052.84
2696.29
2307.84
1885.74
1423.95
915.394
367.222
2015.06
2403.61
2770.94
3111.66
3420.7
3693.46
3925.86
4114.4
4256.24
4349.24
4392
4383.89
4325.1
4216.6
4060.18
3858.35
3614.19
3331.14
3012.56
2661.19
2278.16
1861.71
1406.01
904.245
363.465
2043.56
2436.38
2807.69
3152.02
3464.27
3739.78
3974.42
4164.67
4307.65
4401.22
4443.95
4435.23
4375.23
4264.95
4106.19
3901.51
3654.06
3367.35
3044.82
2689.29
2301.93
1880.95
1420.36
913.163
366.473
2043.56
2436.38
2807.69
3152.02
3464.27
3739.77
3974.42
4164.67
4307.65
4401.22
4443.95
4435.23
4375.23
4264.95
4106.19
3901.51
3654.06
3367.35
3044.82
2689.29
2301.93
1880.95
1420.36
913.163
366.473
2015.06
2403.61
2770.94
3111.66
3420.7
3693.46
3925.86
4114.4
4256.24
4349.24
4392
4383.89
4325.1
4216.61
4060.19
3858.35
3614.19
3331.14
3012.56
2661.19
2278.16
1861.71
1406.01
904.245
363.466
2050.41
2444.31
2816.63
3161.88
3474.94
3751.16
3986.38
4177.07
4320.36
4414.08
4456.82
4447.96
4387.66
4276.95
4117.62
3912.24
3663.98
3376.35
3052.84
2696.29
2307.84
1885.74
1423.95
915.394
367.222
2020
2409.26
2777.26
3118.58
3428.16
3701.38
3934.15
4122.98
4265
4358.09
4400.84
4392.62
4333.62
4224.82
4068
3865.67
3620.95
3337.28
3018.02
2665.95
2282.17
1864.95
1408.42
905.734
363.974
2043.56
2436.38
2807.69
3152.02
3464.27
3739.78
3974.42
4164.67
4307.65
4401.22
4443.95
4435.23
4375.23
4264.95
4106.19
3901.51
3654.06
3367.35
3044.82
2689.29
2301.93
1880.95
1420.36
913.164
366.473
2015.06
2403.61
2770.94
3111.66
3420.7
3693.46
3925.86
4114.4
4256.24
4349.24
4392
4383.89
4325.1
4216.6
4060.18
3858.35
3614.19
3331.14
3012.56
2661.19
2278.16
1861.71
1406.01
904.244
363.465
2015.06
2403.61
2770.94
3111.66
3420.7
3693.46
3925.86
4114.4
4256.24
4349.24
4392
4383.89
4325.1
4216.61
4060.19
3858.35
3614.19
3331.14
3012.56
2661.19
2278.16
1861.71
1406.01
904.245
363.465
2043.56
2436.38
2807.69
3152.02
3464.27
3739.77
3974.42
4164.67
4307.65
4401.22
4443.95
4435.23
4375.23
4264.95
4106.19
3901.51
3654.06
3367.35
3044.82
2689.29
2301.93
1880.95
1420.36
913.163
366.473
)
;

boundaryField
{
    outletCentralUnloaded
    {
        type            zeroGradient;
    }
    inletCentralUnloaded
    {
        type            zeroGradient;
    }
    outletFuelElement
    {
        type            zeroGradient;
    }
    inletFuelElement
    {
        type            zeroGradient;
    }
    defaultFaces
    {
        type            zeroGradient;
    }
    baffle_master
    {
        type            zeroGradient;
    }
    baffle_slave
    {
        type            zeroGradient;
    }
}


// ************************************************************************* //
