/*--------------------------------*- C++ -*----------------------------------*\
| =========                 |                                                 |
| \\      /  F ield         | OpenFOAM: The Open Source CFD Toolbox           |
|  \\    /   O peration     | Version:  2212                                  |
|   \\  /    A nd           | Website:  www.openfoam.com                      |
|    \\/     M anipulation  |                                                 |
\*---------------------------------------------------------------------------*/
FoamFile
{
    version     2.0;
    format      ascii;
    arch        "LSB;label=32;scalar=64";
    class       scalarFieldField;
    location    "53/fluidRegion";
    object      Trad.nuclearFuelPin;
}
// * * * * * * * * * * * * * * * * * * * * * * * * * * * * * * * * * * * * * //


350
(
0()
0()
0()
0()
0()
0()
0()
0()
0()
0()
0()
0()
0()
0()
0()
0()
0()
0()
0()
0()
0()
0()
0()
0()
0()
0()
0()
0()
0()
0()
0()
0()
0()
0()
0()
0()
0()
0()
0()
0()
0()
0()
0()
0()
0()
0()
0()
0()
0()
0()

20
(
2417.92
2416.16
2410.86
2402.04
2389.69
2373.8
2354.39
2331.43
2304.93
2274.89
2241.3
2204.16
2163.47
2119.21
2071.39
2020
1850.81
1846.78
1842.88
1839.11
)


20
(
3606.32
3601.01
3585.06
3558.48
3521.27
3473.42
3414.93
3345.8
3266.03
3175.61
3074.54
2962.82
2840.43
2707.38
2563.66
2409.26
1901.09
1888.98
1877.27
1865.93
)


20
(
4754.52
4745.73
4719.38
4675.47
4613.98
4534.93
4438.3
4324.09
4192.31
4042.94
3875.99
3691.45
3489.31
3269.57
3032.22
2777.26
1938.14
1918.15
1898.81
1880.09
)


20
(
5844.79
5832.68
5796.34
5735.78
5651
5541.98
5408.74
5251.26
5069.55
4863.6
4633.4
4378.95
4100.25
3797.3
3470.07
3118.58
1961.76
1934.2
1907.55
1881.73
)


20
(
6860.26
6845.02
6799.27
6723.02
6616.28
6479.03
6311.27
6113.01
5884.24
5624.96
5335.15
5014.82
4663.96
4282.57
3870.64
3428.16
1971.91
1937.22
1903.66
1871.16
)


20
(
7785.2
7767.05
7712.62
7621.89
7494.87
7331.55
7131.94
6896.02
6623.8
6315.28
5970.44
5589.28
5171.8
4718
4227.86
3701.38
1968.68
1927.41
1887.48
1848.81
)


20
(
8605.23
8584.47
8522.2
8418.43
8273.14
8086.33
7858
7588.16
7276.79
6923.89
6529.46
6093.49
5615.98
5096.93
4536.32
3934.15
1952.35
1905.14
1859.47
1815.24
)


20
(
9307.59
9284.55
9215.44
9100.24
8938.98
8731.63
8478.2
8178.68
7833.08
7441.38
7003.58
6519.68
5989.68
5413.56
4791.33
4122.98
1923.34
1870.95
1820.26
1771.17
)


20
(
9881.34
9856.38
9781.51
9656.73
9482.03
9257.41
8982.87
8658.41
8284.02
7859.71
7385.45
6861.26
6287.13
5663.04
4989
4265
1882.25
1825.49
1770.58
1717.4
)


20
(
10317.5
10291
10211.6
10079.2
9893.82
9655.48
9364.16
9019.88
8622.62
8172.38
7669.15
7112.93
6503.73
5841.52
5126.31
4358.09
1829.8
1769.58
1711.32
1654.89
)


20
(
10609.4
10581.8
10499
10361.1
10167.9
9919.62
9616.13
9257.45
8843.59
8374.52
7850.27
7270.8
6636.13
5946.25
5201.16
4400.84
1766.91
1704.17
1643.47
1584.69
)


20
(
10752.3
10724
10639.2
10497.9
10300.1
10045.7
9734.85
9367.44
8943.5
8463.02
7926
7332.43
6682.31
5975.64
5212.41
4392.62
1694.6
1630.33
1568.16
1507.95
)


20
(
10744
10715.6
10630.1
10487.7
10288.3
10031.9
9718.51
9348.16
8920.83
8436.51
7895.2
7296.89
6641.59
5929.27
5159.95
4333.62
1614.07
1549.29
1486.62
1425.93
)


20
(
10584.9
10556.6
10471.8
10330.5
10132.7
9878.31
9567.41
9199.97
8775.99
8295.47
7758.41
7164.81
6514.65
5807.93
5044.66
4224.82
1526.65
1462.37
1400.2
1339.98
)


20
(
10277.4
10249.8
10167
10029
9835.89
9587.54
9284
8925.27
8511.34
8042.2
7517.87
6938.32
6303.57
5613.6
4868.41
4068
1433.77
1371.02
1310.31
1251.52
)


20
(
9826.42
9799.93
9720.47
9588.02
9402.6
9164.2
8872.81
8528.44
8131.08
7680.73
7177.39
6621.06
6011.72
5349.38
4634.03
3865.67
1336.94
1276.7
1218.43
1161.99
)


20
(
9239.02
9214.05
9139.15
9014.32
8839.56
8614.86
8340.22
8015.65
7641.14
7216.68
6742.28
6217.92
5643.62
5019.36
4345.14
3620.95
1237.61
1180.83
1125.91
1072.72
)


20
(
8524.02
8500.97
8431.82
8316.57
8155.23
7947.78
7694.23
7394.57
7048.81
6656.94
6218.96
5734.86
5204.65
4628.32
4005.86
3337.28
1136.92
1084.5
1033.8
984.69
)


20
(
7691.58
7670.81
7608.5
7504.66
7359.27
7172.35
6943.89
6673.88
6362.33
6009.23
5614.58
5178.38
4700.63
4181.32
3620.45
3018.02
1035.37
988.145
942.455
898.207
)


20
(
6752.62
6734.45
6679.97
6589.17
6462.04
6298.59
6098.82
5862.72
5590.29
5281.53
4936.44
4555.02
4137.26
3683.16
3192.73
2665.95
932.271
890.973
851.02
812.329
)


20
(
5717.45
5702.18
5656.38
5580.05
5473.19
5335.79
5167.86
4969.39
4740.39
4480.85
4190.76
3870.14
3518.97
3137.25
2724.99
2282.17
824.834
790.119
756.534
724.01
)


20
(
4594.67
4582.53
4546.14
4485.49
4400.58
4291.4
4157.96
4000.25
3818.28
3612.05
3381.54
3126.77
2847.73
2544.41
2216.82
1864.95
706.926
679.341
652.655
626.81
)


20
(
3389.51
3380.7
3354.29
3310.27
3248.65
3169.41
3072.57
2958.11
2826.05
2676.37
2509.08
2324.18
2121.66
1901.53
1663.78
1408.42
567.977
547.957
528.59
509.833
)


20
(
2107.11
2101.77
2085.75
2059.06
2021.69
1973.64
1914.91
1845.5
1765.41
1674.64
1573.2
1461.07
1338.26
1204.77
1060.59
905.734
396.086
383.946
372.201
360.827
)


20
(
766.934
765.143
759.77
750.814
738.277
722.157
702.455
679.172
652.307
621.86
587.832
550.222
509.031
464.26
415.907
363.974
193.062
188.991
185.052
181.238
)


20
(
2452.83
2451.04
2445.69
2436.77
2424.28
2408.21
2388.58
2365.36
2338.56
2308.19
2274.22
2236.66
2195.5
2150.74
2102.38
2050.41
1879.3
1875.23
1871.29
1867.47
)


20
(
3655.03
3649.65
3633.52
3606.64
3569
3520.61
3461.45
3391.54
3310.86
3219.41
3117.18
3004.18
2880.4
2745.83
2600.47
2444.31
1930.34
1918.09
1906.25
1894.78
)


20
(
4816.47
4807.59
4780.94
4736.52
4674.33
4594.37
4496.64
4381.13
4247.84
4096.77
3927.91
3741.26
3536.81
3314.56
3074.5
2816.63
1967.91
1947.69
1928.13
1909.19
)


20
(
5919.26
5907.01
5870.26
5809
5723.25
5612.99
5478.22
5318.95
5135.16
4926.85
4694.02
4436.66
4154.78
3848.35
3517.39
3161.88
1991.82
1963.95
1936.99
1910.88
)


20
(
6946.31
6930.88
6884.61
6807.5
6699.53
6560.71
6391.04
6190.51
5959.12
5696.87
5403.75
5079.75
4724.88
4339.13
3922.48
3474.94
2002.02
1966.94
1933
1900.13
)


20
(
7881.7
7863.35
7808.29
7716.52
7588.05
7422.86
7220.97
6982.35
6707.02
6394.96
6046.18
5660.66
5238.4
4779.4
4283.66
3751.16
1998.62
1956.88
1916.49
1877.38
)


20
(
8710.91
8689.91
8626.93
8521.97
8375.02
8186.07
7955.13
7682.2
7367.27
7010.33
6611.39
6170.43
5687.46
5162.46
4595.43
3986.38
1981.89
1934.14
1887.94
1843.21
)


20
(
9421.02
9397.72
9327.82
9211.31
9048.19
8838.47
8582.14
8279.2
7929.63
7533.45
7090.65
6601.21
6065.14
5482.43
4853.07
4177.07
1952.25
1899.25
1847.99
1798.33
)


20
(
10001
9975.74
9900.01
9773.8
9597.1
9369.91
9092.23
8764.06
8385.39
7956.21
7476.53
6946.34
6365.63
5734.4
5052.64
4320.36
1910.32
1852.91
1797.37
1743.59
)


20
(
10441.7
10415
10334.6
10200.7
10013.2
9772.11
9477.46
9129.24
8727.43
8272.03
7763.04
7200.46
6584.28
5914.49
5191.09
4414.08
1856.84
1795.93
1737
1679.93
)


20
(
10736.4
10708.5
10624.8
10485.3
10289.9
10038.8
9731.83
9369.04
8950.44
8476
7945.74
7359.65
6717.71
6019.93
5266.3
4456.82
1792.73
1729.27
1667.88
1608.42
)


20
(
10880.4
10851.8
10766.1
10623.2
10423.1
10165.8
9851.36
9479.74
9050.94
8564.96
8021.79
7421.43
6763.87
6049.1
5277.14
4447.96
1719.04
1654.04
1591.15
1530.25
)


20
(
10871.5
10842.7
10756.2
10612.2
10410.5
10151.2
9834.21
9459.63
9027.4
8537.54
7990.03
7384.87
6722.06
6001.59
5223.46
4387.66
1636.98
1571.46
1508.07
1446.68
)


20
(
10709.9
10681.3
10595.5
10452.6
10252.5
9995.18
9680.72
9309.07
8880.24
8394.22
7851.01
7250.61
6593
5878.19
5106.18
4276.95
1547.88
1482.88
1419.98
1359.08
)


20
(
10398.1
10370.2
10286.5
10146.9
9951.57
9700.38
9393.36
9030.52
8611.84
8137.34
7607
7020.82
6378.79
5680.92
4927.2
4117.62
1453.23
1389.76
1328.36
1268.9
)


20
(
9941.25
9914.46
9834.08
9700.12
9512.57
9271.44
8976.72
8628.4
8226.49
7770.99
7261.88
6699.18
6082.86
5412.94
4689.4
3912.24
1354.55
1293.62
1234.68
1177.6
)


20
(
9346.38
9321.12
9245.37
9119.11
8942.34
8715.07
8437.29
8109
7730.2
7300.88
6821.04
6290.68
5709.8
5078.39
4396.45
3663.98
1253.33
1195.91
1140.36
1086.56
)


20
(
8622.49
8599.18
8529.24
8412.67
8249.48
8039.65
7783.2
7480.11
7130.39
6734.03
6291.04
5801.4
5265.11
4682.18
4052.59
3376.36
1150.8
1097.78
1046.49
996.823
)


20
(
7779.92
7758.92
7695.9
7590.86
7443.81
7254.75
7023.67
6750.57
6435.45
6078.31
5679.14
5237.95
4754.72
4229.47
3662.17
3052.84
1047.49
999.719
953.506
908.751
)


20
(
6829.76
6811.39
6756.28
6664.44
6535.86
6370.53
6168.47
5929.67
5654.12
5341.82
4992.78
4606.99
4184.45
3725.15
3229.1
2696.29
942.754
900.983
860.573
821.438
)


20
(
5782.46
5767.02
5720.7
5643.49
5535.41
5396.44
5226.58
5025.84
4794.21
4531.7
4238.29
3914
3558.8
3172.72
2755.73
2307.84
833.815
798.702
764.733
731.836
)


20
(
4646.72
4634.45
4597.64
4536.29
4450.4
4339.98
4205.01
4045.5
3861.44
3652.85
3419.7
3162.01
2879.77
2572.98
2241.64
1885.74
714.454
686.553
659.561
633.421
)


20
(
3427.73
3418.82
3392.11
3347.58
3285.25
3205.11
3107.16
2991.39
2857.82
2706.43
2537.22
2350.2
2145.37
1922.71
1682.24
1423.95
573.887
553.637
534.048
515.076
)


20
(
2130.52
2125.12
2108.92
2081.92
2044.12
1995.52
1936.12
1865.92
1784.91
1693.11
1590.5
1477.09
1352.87
1217.85
1072.02
915.394
399.911
387.631
375.752
364.248
)


20
(
774.79
772.979
767.544
758.486
745.805
729.501
709.574
686.025
658.852
628.057
593.64
555.6
513.938
468.654
419.749
367.222
194.354
190.236
186.253
182.395
)


20
(
2412.27
2410.51
2405.23
2396.42
2384.09
2368.23
2348.85
2325.93
2299.49
2269.5
2235.97
2198.9
2158.28
2114.1
2066.36
2015.06
1846.18
1842.16
1838.27
1834.5
)


20
(
3598.5
3593.19
3577.27
3550.74
3513.6
3465.83
3407.45
3338.45
3258.82
3168.57
3067.68
2956.16
2834
2701.19
2557.73
2403.61
1896.36
1884.28
1872.59
1861.27
)


20
(
4744.6
4735.83
4709.53
4665.69
4604.32
4525.41
4428.95
4314.96
4183.41
4034.32
3867.67
3683.46
3481.69
3262.35
3025.43
2770.94
1933.34
1913.39
1894.09
1875.4
)


20
(
5832.89
5820.81
5784.54
5724.09
5639.46
5530.64
5397.64
5240.45
5059.07
4853.49
4623.71
4369.73
4091.54
3789.13
3462.51
3111.66
1956.94
1929.43
1902.82
1877.06
)


20
(
6846.55
6831.33
6785.66
6709.56
6603
6466.01
6298.56
6100.66
5872.3
5613.49
5324.21
5004.46
4654.24
4273.55
3862.37
3420.7
1967.1
1932.47
1898.97
1866.53
)


20
(
7769.84
7751.72
7697.39
7606.82
7480.03
7317.01
7117.76
6882.28
6610.56
6302.59
5958.38
5577.92
5161.2
4708.22
4218.98
3693.46
1963.92
1922.72
1882.86
1844.26
)


20
(
8588.42
8567.7
8505.55
8401.96
8256.93
8070.47
7842.56
7573.2
7262.4
6910.15
6516.44
6081.26
5604.62
5086.51
4526.93
3925.86
1947.67
1900.54
1854.96
1810.81
)


20
(
9289.56
9266.56
9197.57
9082.59
8921.62
8714.65
8461.68
8162.71
7817.73
7426.75
6989.75
6506.74
5977.7
5402.63
4781.54
4114.4
1918.77
1866.47
1815.88
1766.88
)


20
(
9862.33
9837.42
9762.69
9638.13
9463.75
9239.54
8965.51
8641.64
8267.93
7844.39
7371
6847.76
6274.67
5651.73
4978.92
4256.24
1877.83
1821.17
1766.36
1713.28
)


20
(
10297.8
10271.4
10192.1
10059.9
9874.87
9636.96
9346.18
9002.53
8605.99
8156.57
7654.26
7099.06
6490.96
5829.96
5116.06
4349.24
1825.56
1765.44
1707.29
1650.96
)


20
(
10589.2
10561.7
10479
10341.3
10148.6
9900.72
9597.78
9239.76
8826.64
8358.44
7835.13
7256.73
6623.22
5934.59
5190.85
4392
1762.87
1700.24
1639.65
1580.98
)


20
(
10731.9
10703.7
10619.1
10478.1
10280.6
10026.7
9716.38
9349.64
8926.47
8446.87
7910.82
7318.34
6669.41
5964.03
5202.19
4383.89
1690.79
1626.64
1564.58
1504.48
)


20
(
10723.8
10695.4
10610.1
10467.9
10268.9
10013
9700.17
9330.5
8903.95
8420.51
7880.19
7282.97
6628.86
5917.84
5149.93
4325.1
1610.51
1545.85
1483.29
1422.71
)


20
(
10565.1
10536.9
10452.2
10311.2
10113.7
9859.79
9549.45
9182.68
8759.48
8279.84
7743.76
7151.23
6502.26
5796.83
5034.95
4216.6
1523.36
1459.2
1397.13
1337.03
)


20
(
10258.3
10230.7
10148.1
10010.4
9817.56
9569.67
9266.68
8908.6
8495.42
8027.15
7503.76
6925.28
6291.68
5602.97
4859.14
4060.18
1430.76
1368.12
1307.53
1248.85
)


20
(
9808.23
9781.79
9702.47
9570.26
9385.18
9147.21
8856.36
8512.61
8115.98
7666.45
7164.03
6608.71
6000.48
5339.35
4625.31
3858.35
1334.23
1274.1
1215.93
1159.6
)


20
(
9222.01
9197.09
9122.33
8997.72
8823.28
8598.99
8324.86
8000.87
7627.04
7203.36
6729.82
6206.42
5633.16
5010.04
4337.05
3614.19
1235.19
1178.52
1123.7
1070.6
)


20
(
8508.42
8485.41
8416.39
8301.35
8140.3
7933.23
7680.14
7381.03
7035.9
6644.75
6207.56
5724.35
5195.1
4619.82
3998.5
3331.14
1134.79
1082.47
1031.86
982.84
)


20
(
7677.59
7656.86
7594.66
7491.01
7345.89
7159.31
6931.26
6661.75
6350.76
5998.31
5604.38
5168.98
4692.09
4173.73
3613.89
3012.56
1033.52
986.379
940.772
896.605
)


20
(
6740.4
6722.28
6667.89
6577.25
6450.36
6287.21
6087.8
5852.13
5580.2
5272
4927.54
4546.81
4129.82
3676.55
3187.01
2661.19
930.674
889.452
849.572
810.951
)


20
(
5707.16
5691.93
5646.21
5570.02
5463.35
5326.21
5158.58
4960.48
4731.89
4472.82
4183.26
3863.22
3512.69
3131.67
2720.16
2278.16
823.474
788.822
755.3
722.835
)


20
(
4586.45
4574.34
4538.01
4477.47
4392.71
4283.73
4150.54
3993.12
3811.48
3605.62
3375.54
3121.23
2842.69
2539.93
2212.94
1861.71
705.798
678.263
651.626
625.828
)


20
(
3383.49
3374.7
3348.34
3304.4
3242.88
3163.79
3067.13
2952.88
2821.06
2671.65
2504.67
2320.11
2117.96
1898.23
1660.91
1406.01
567.104
547.12
527.788
509.066
)


20
(
2103.43
2098.1
2082.11
2055.47
2018.16
1970.2
1911.58
1842.3
1762.35
1671.75
1570.49
1458.57
1335.98
1202.73
1058.82
904.245
395.526
383.407
371.684
360.331
)


20
(
765.691
763.904
758.54
749.601
737.086
720.996
701.33
678.089
651.273
620.881
586.915
549.374
508.258
463.568
415.304
363.465
192.865
188.801
184.87
181.062
)


20
(
2444.94
2443.16
2437.82
2428.93
2416.47
2400.44
2380.86
2357.7
2330.97
2300.67
2266.79
2229.33
2188.28
2143.64
2095.4
2043.56
1872.89
1868.83
1864.9
1861.09
)


20
(
3643.95
3638.59
3622.5
3595.69
3558.15
3509.88
3450.88
3381.14
3300.67
3209.46
3107.5
2994.8
2871.34
2737.12
2592.13
2436.38
1923.74
1911.53
1899.72
1888.28
)


20
(
4802.33
4793.47
4766.89
4722.59
4660.56
4580.81
4483.33
4368.12
4235.18
4084.5
3916.08
3729.91
3525.99
3304.32
3064.89
2807.69
1961.17
1941.01
1921.5
1902.61
)


20
(
5902.22
5890
5853.35
5792.25
5706.72
5596.75
5462.33
5303.47
5120.16
4912.39
4680.17
4423.48
4142.33
3836.71
3506.6
3152.02
1985.01
1957.21
1930.32
1904.27
)


20
(
6926.59
6911.21
6865.06
6788.14
6680.46
6542
6372.77
6172.76
5941.98
5680.41
5388.05
5064.9
4710.95
4326.2
3910.64
3464.27
1995.18
1960.19
1926.33
1893.55
)


20
(
7859.56
7841.26
7786.34
7694.82
7566.68
7401.92
7200.55
6962.56
6687.94
6376.69
6028.82
5644.3
5223.15
4765.34
4270.89
3739.78
1991.81
1950.17
1909.89
1870.88
)


20
(
8686.64
8665.7
8602.89
8498.2
8351.63
8163.17
7932.84
7660.62
7346.5
6990.5
6592.59
6152.78
5671.07
5147.44
4581.89
3974.42
1975.15
1927.53
1881.45
1836.84
)


20
(
9394.96
9371.72
9302
9185.79
9023.1
8813.93
8558.26
8256.11
7907.46
7512.31
7070.66
6582.49
6047.82
5466.63
4838.91
4164.67
1945.65
1892.79
1841.65
1792.13
)


20
(
9973.48
9948.3
9872.77
9746.89
9570.65
9344.05
9067.1
8739.78
8362.09
7934.03
7455.6
6926.79
6347.6
5718.01
5038.03
4307.65
1903.9
1846.64
1791.24
1737.6
)


20
(
10413.2
10386.5
10306.3
10172.7
9985.73
9745.29
9451.41
9104.09
8703.33
8249.12
7741.46
7180.34
6565.76
5897.72
5176.21
4401.22
1850.65
1789.89
1731.11
1674.19
)


20
(
10707.2
10679.4
10595.9
10456.7
10261.9
10011.4
9705.21
9343.37
8925.86
8452.66
7923.78
7339.21
6698.95
6002.99
5251.33
4443.95
1786.81
1723.51
1662.28
1602.98
)


20
(
10850.9
10822.4
10736.9
10594.3
10394.8
10138.2
9824.55
9453.9
9026.22
8541.5
7999.75
7400.95
6745.1
6032.2
5262.25
4435.23
1713.43
1648.59
1585.87
1525.13
)


20
(
10842.2
10813.4
10727.2
10583.5
10382.4
10123.7
9807.58
9433.97
9002.87
8514.28
7968.2
7364.62
6703.54
5984.95
5208.85
4375.23
1631.71
1566.36
1503.13
1441.9
)


20
(
10681.1
10652.6
10567
10424.5
10224.9
9968.28
9654.63
9283.95
8856.24
8371.49
7829.69
7230.85
6574.96
5862.02
5092.01
4264.95
1542.99
1478.15
1415.43
1354.68
)


20
(
10370.3
10342.5
10259
10119.8
9924.93
9674.39
9368.18
9006.28
8588.7
8115.43
7586.47
7001.82
6361.47
5665.42
4913.66
4106.19
1448.74
1385.44
1324.2
1264.89
)


20
(
9914.81
9888.08
9807.92
9674.31
9487.25
9246.74
8952.79
8605.38
8204.52
7750.2
7242.42
6681.18
6066.47
5398.3
4676.64
3901.51
1350.48
1289.72
1230.93
1174
)


20
(
9321.65
9296.46
9220.91
9094.98
8918.67
8691.99
8414.94
8087.5
7709.68
7281.48
6802.9
6273.92
5694.56
5064.79
4384.63
3654.06
1249.7
1192.43
1137.02
1083.36
)


20
(
8599.81
8576.56
8506.8
8390.54
8227.77
8018.49
7762.71
7460.41
7111.6
6716.28
6274.43
5786.07
5251.18
4669.77
4041.82
3367.35
1147.59
1094.71
1043.56
994.018
)


20
(
7759.57
7738.62
7675.77
7571.01
7424.34
7235.77
7005.29
6732.9
6418.61
6062.4
5664.27
5224.22
4742.26
4218.37
3652.56
3044.82
1044.69
997.043
950.95
906.312
)


20
(
6811.99
6793.67
6738.7
6647.1
6518.85
6353.96
6152.43
5914.24
5639.41
5327.93
4979.8
4595.02
4173.58
3715.48
3220.71
2689.29
940.33
898.668
858.363
819.331
)


20
(
5767.49
5752.09
5705.88
5628.88
5521.08
5382.47
5213.06
5012.84
4781.81
4519.98
4227.34
3903.89
3549.62
3164.54
2748.64
2301.93
831.738
796.716
762.836
730.025
)


20
(
4634.72
4622.49
4585.77
4524.59
4438.92
4328.78
4194.17
4035.07
3851.5
3643.44
3410.91
3153.89
2872.38
2566.39
2235.91
1880.95
712.712
684.883
657.962
631.89
)


20
(
3418.92
3410.04
3383.39
3338.99
3276.82
3196.88
3099.19
2983.72
2850.49
2699.5
2530.74
2344.2
2139.9
1917.83
1677.98
1420.36
572.518
552.321
532.783
513.861
)


20
(
2125.13
2119.74
2103.58
2076.65
2038.95
1990.48
1931.23
1861.21
1780.42
1688.85
1586.51
1473.39
1349.5
1214.83
1069.39
913.163
399.023
386.776
374.928
363.453
)


20
(
772.981
771.174
765.753
756.719
744.071
727.809
707.934
684.446
657.344
626.629
592.301
554.361
512.807
467.641
418.863
366.473
194.056
189.948
185.975
182.127
)


20
(
2444.94
2443.16
2437.82
2428.93
2416.47
2400.44
2380.86
2357.7
2330.97
2300.67
2266.79
2229.33
2188.28
2143.64
2095.4
2043.56
1872.89
1868.83
1864.9
1861.09
)


20
(
3643.95
3638.59
3622.5
3595.69
3558.15
3509.88
3450.88
3381.15
3300.67
3209.46
3107.5
2994.8
2871.34
2737.12
2592.13
2436.38
1923.74
1911.53
1899.72
1888.28
)


20
(
4802.33
4793.47
4766.89
4722.59
4660.56
4580.81
4483.33
4368.12
4235.18
4084.5
3916.08
3729.91
3526
3304.32
3064.89
2807.69
1961.17
1941.01
1921.5
1902.61
)


20
(
5902.22
5890
5853.35
5792.25
5706.72
5596.75
5462.33
5303.47
5120.16
4912.39
4680.17
4423.49
4142.33
3836.71
3506.6
3152.02
1985.01
1957.21
1930.32
1904.27
)


20
(
6926.59
6911.21
6865.06
6788.14
6680.46
6542
6372.77
6172.76
5941.98
5680.41
5388.05
5064.9
4710.95
4326.2
3910.64
3464.27
1995.18
1960.19
1926.33
1893.55
)


20
(
7859.56
7841.26
7786.34
7694.82
7566.68
7401.92
7200.55
6962.56
6687.94
6376.69
6028.82
5644.3
5223.15
4765.34
4270.89
3739.77
1991.81
1950.17
1909.89
1870.88
)


20
(
8686.64
8665.7
8602.89
8498.2
8351.63
8163.17
7932.84
7660.62
7346.5
6990.5
6592.59
6152.78
5671.07
5147.44
4581.89
3974.42
1975.15
1927.53
1881.45
1836.84
)


20
(
9394.96
9371.72
9302
9185.79
9023.1
8813.93
8558.26
8256.11
7907.46
7512.31
7070.65
6582.49
6047.82
5466.63
4838.91
4164.67
1945.65
1892.79
1841.65
1792.13
)


20
(
9973.48
9948.3
9872.77
9746.89
9570.65
9344.05
9067.1
8739.78
8362.09
7934.03
7455.6
6926.79
6347.6
5718.01
5038.03
4307.65
1903.9
1846.64
1791.24
1737.6
)


20
(
10413.2
10386.5
10306.3
10172.7
9985.73
9745.29
9451.41
9104.09
8703.33
8249.12
7741.46
7180.34
6565.76
5897.72
5176.21
4401.22
1850.65
1789.89
1731.11
1674.19
)


20
(
10707.2
10679.4
10595.9
10456.7
10261.9
10011.4
9705.21
9343.37
8925.86
8452.66
7923.78
7339.21
6698.95
6002.99
5251.32
4443.95
1786.81
1723.51
1662.28
1602.98
)


20
(
10850.9
10822.4
10736.9
10594.3
10394.8
10138.2
9824.55
9453.9
9026.22
8541.5
7999.75
7400.95
6745.1
6032.2
5262.25
4435.23
1713.43
1648.59
1585.87
1525.13
)


20
(
10842.2
10813.4
10727.2
10583.5
10382.4
10123.7
9807.58
9433.97
9002.87
8514.28
7968.2
7364.62
6703.54
5984.95
5208.85
4375.23
1631.71
1566.36
1503.13
1441.9
)


20
(
10681.1
10652.6
10567
10424.5
10224.9
9968.28
9654.63
9283.95
8856.24
8371.49
7829.69
7230.85
6574.96
5862.02
5092.01
4264.95
1542.99
1478.15
1415.43
1354.68
)


20
(
10370.3
10342.5
10259
10119.8
9924.93
9674.39
9368.18
9006.28
8588.7
8115.43
7586.47
7001.82
6361.47
5665.42
4913.66
4106.19
1448.74
1385.44
1324.2
1264.89
)


20
(
9914.81
9888.08
9807.92
9674.31
9487.25
9246.74
8952.79
8605.38
8204.52
7750.2
7242.42
6681.18
6066.47
5398.3
4676.64
3901.51
1350.48
1289.72
1230.93
1174
)


20
(
9321.65
9296.46
9220.91
9094.98
8918.67
8691.99
8414.94
8087.5
7709.68
7281.48
6802.9
6273.92
5694.56
5064.79
4384.63
3654.06
1249.7
1192.43
1137.02
1083.36
)


20
(
8599.81
8576.56
8506.8
8390.54
8227.77
8018.49
7762.71
7460.41
7111.6
6716.27
6274.43
5786.07
5251.18
4669.77
4041.82
3367.35
1147.59
1094.71
1043.56
994.018
)


20
(
7759.57
7738.62
7675.77
7571.01
7424.34
7235.77
7005.29
6732.9
6418.61
6062.39
5664.27
5224.22
4742.26
4218.37
3652.56
3044.82
1044.69
997.043
950.95
906.312
)


20
(
6811.99
6793.67
6738.7
6647.1
6518.85
6353.96
6152.43
5914.24
5639.41
5327.93
4979.8
4595.02
4173.57
3715.47
3220.71
2689.29
940.33
898.668
858.363
819.331
)


20
(
5767.49
5752.08
5705.88
5628.88
5521.07
5382.47
5213.05
5012.84
4781.81
4519.98
4227.34
3903.89
3549.62
3164.54
2748.64
2301.93
831.738
796.716
762.836
730.025
)


20
(
4634.73
4622.49
4585.78
4524.59
4438.92
4328.79
4194.17
4035.07
3851.5
3643.45
3410.91
3153.89
2872.39
2566.39
2235.91
1880.95
712.712
684.884
657.962
631.89
)


20
(
3418.92
3410.04
3383.39
3338.99
3276.82
3196.88
3099.19
2983.72
2850.49
2699.5
2530.74
2344.2
2139.9
1917.83
1677.98
1420.36
572.518
552.321
532.783
513.861
)


20
(
2125.13
2119.74
2103.58
2076.65
2038.95
1990.48
1931.23
1861.21
1780.42
1688.85
1586.51
1473.39
1349.5
1214.83
1069.39
913.163
399.023
386.776
374.928
363.453
)


20
(
772.981
771.174
765.753
756.719
744.071
727.809
707.934
684.446
657.344
626.629
592.302
554.361
512.807
467.641
418.863
366.473
194.056
189.948
185.975
182.127
)


20
(
2412.27
2410.51
2405.23
2396.42
2384.09
2368.24
2348.85
2325.94
2299.49
2269.5
2235.97
2198.9
2158.28
2114.1
2066.36
2015.06
1846.18
1842.16
1838.27
1834.5
)


20
(
3598.5
3593.19
3577.27
3550.74
3513.6
3465.83
3407.45
3338.45
3258.83
3168.57
3067.68
2956.16
2834
2701.19
2557.73
2403.61
1896.36
1884.28
1872.59
1861.27
)


20
(
4744.6
4735.83
4709.53
4665.69
4604.32
4525.41
4428.96
4314.96
4183.42
4034.32
3867.67
3683.46
3481.69
3262.35
3025.44
2770.94
1933.34
1913.39
1894.09
1875.4
)


20
(
5832.9
5820.81
5784.54
5724.09
5639.46
5530.64
5397.64
5240.45
5059.07
4853.49
4623.72
4369.73
4091.54
3789.13
3462.51
3111.66
1956.94
1929.44
1902.83
1877.06
)


20
(
6846.55
6831.33
6785.66
6709.56
6603
6466.01
6298.56
6100.66
5872.3
5613.49
5324.21
5004.46
4654.25
4273.55
3862.37
3420.7
1967.1
1932.47
1898.97
1866.53
)


20
(
7769.84
7751.72
7697.39
7606.82
7480.03
7317.02
7117.76
6882.28
6610.56
6302.59
5958.38
5577.92
5161.2
4708.22
4218.98
3693.46
1963.92
1922.72
1882.86
1844.26
)


20
(
8588.42
8567.7
8505.55
8401.96
8256.93
8070.47
7842.56
7573.2
7262.4
6910.15
6516.44
6081.26
5604.63
5086.52
4526.93
3925.86
1947.67
1900.55
1854.96
1810.81
)


20
(
9289.56
9266.56
9197.58
9082.6
8921.62
8714.65
8461.68
8162.71
7817.74
7426.75
6989.75
6506.74
5977.7
5402.63
4781.54
4114.4
1918.78
1866.47
1815.88
1766.88
)


20
(
9862.34
9837.42
9762.69
9638.13
9463.75
9239.54
8965.51
8641.64
8267.93
7844.39
7371
6847.76
6274.68
5651.73
4978.92
4256.24
1877.83
1821.17
1766.36
1713.28
)


20
(
10297.8
10271.4
10192.1
10059.9
9874.87
9636.97
9346.18
9002.53
8605.99
8156.57
7654.26
7099.06
6490.96
5829.96
5116.06
4349.24
1825.56
1765.45
1707.29
1650.97
)


20
(
10589.2
10561.7
10479
10341.3
10148.6
9900.72
9597.78
9239.76
8826.64
8358.44
7835.13
7256.73
6623.22
5934.59
5190.86
4392
1762.87
1700.24
1639.66
1580.98
)


20
(
10731.9
10703.7
10619.1
10478.1
10280.6
10026.7
9716.38
9349.64
8926.47
8446.87
7910.82
7318.34
6669.41
5964.03
5202.19
4383.89
1690.79
1626.64
1564.58
1504.48
)


20
(
10723.8
10695.4
10610.1
10467.9
10268.9
10013
9700.17
9330.5
8903.95
8420.51
7880.19
7282.97
6628.86
5917.84
5149.93
4325.1
1610.51
1545.85
1483.29
1422.71
)


20
(
10565.1
10536.9
10452.2
10311.2
10113.7
9859.79
9549.45
9182.68
8759.48
8279.84
7743.76
7151.23
6502.26
5796.83
5034.95
4216.61
1523.36
1459.2
1397.14
1337.03
)


20
(
10258.3
10230.7
10148.1
10010.4
9817.56
9569.67
9266.68
8908.6
8495.42
8027.15
7503.77
6925.28
6291.68
5602.97
4859.14
4060.19
1430.76
1368.13
1307.53
1248.85
)


20
(
9808.23
9781.79
9702.47
9570.27
9385.18
9147.21
8856.36
8512.61
8115.98
7666.45
7164.03
6608.71
6000.48
5339.35
4625.31
3858.35
1334.23
1274.1
1215.93
1159.6
)


20
(
9222.01
9197.09
9122.33
8997.73
8823.28
8598.99
8324.86
8000.88
7627.04
7203.36
6729.82
6206.42
5633.17
5010.04
4337.05
3614.19
1235.19
1178.52
1123.7
1070.6
)


20
(
8508.42
8485.41
8416.39
8301.35
8140.3
7933.23
7680.14
7381.03
7035.9
6644.75
6207.56
5724.35
5195.1
4619.82
3998.5
3331.14
1134.79
1082.47
1031.86
982.841
)


20
(
7677.59
7656.86
7594.66
7491.01
7345.89
7159.31
6931.26
6661.75
6350.76
5998.31
5604.38
5168.98
4692.1
4173.73
3613.89
3012.56
1033.52
986.38
940.773
896.606
)


20
(
6740.4
6722.28
6667.89
6577.26
6450.36
6287.21
6087.8
5852.13
5580.2
5272
4927.54
4546.81
4129.82
3676.55
3187.01
2661.19
930.675
889.452
849.573
810.952
)


20
(
5707.16
5691.93
5646.21
5570.02
5463.35
5326.21
5158.58
4960.48
4731.89
4472.82
4183.26
3863.22
3512.69
3131.67
2720.16
2278.16
823.475
788.823
755.3
722.835
)


20
(
4586.45
4574.34
4538.02
4477.47
4392.71
4283.74
4150.54
3993.12
3811.48
3605.62
3375.54
3121.23
2842.69
2539.93
2212.94
1861.71
705.799
678.264
651.627
625.829
)


20
(
3383.49
3374.7
3348.34
3304.4
3242.89
3163.8
3067.13
2952.88
2821.06
2671.66
2504.67
2320.11
2117.96
1898.23
1660.91
1406.01
567.105
547.121
527.789
509.067
)


20
(
2103.43
2098.1
2082.11
2055.47
2018.16
1970.2
1911.58
1842.3
1762.35
1671.75
1570.49
1458.57
1335.98
1202.73
1058.82
904.245
395.526
383.408
371.684
360.331
)


20
(
765.692
763.904
758.54
749.601
737.086
720.996
701.33
678.089
651.273
620.882
586.915
549.374
508.259
463.568
415.304
363.466
192.865
188.801
184.87
181.062
)


20
(
2452.83
2451.04
2445.69
2436.77
2424.28
2408.21
2388.58
2365.36
2338.56
2308.19
2274.22
2236.66
2195.5
2150.74
2102.38
2050.41
1879.3
1875.23
1871.29
1867.47
)


20
(
3655.03
3649.65
3633.52
3606.64
3569
3520.61
3461.45
3391.54
3310.86
3219.41
3117.18
3004.18
2880.4
2745.83
2600.47
2444.31
1930.34
1918.09
1906.25
1894.78
)


20
(
4816.47
4807.59
4780.94
4736.52
4674.33
4594.38
4496.64
4381.13
4247.85
4096.77
3927.91
3741.26
3536.81
3314.56
3074.5
2816.63
1967.91
1947.69
1928.13
1909.19
)


20
(
5919.26
5907.01
5870.26
5809
5723.25
5612.99
5478.22
5318.95
5135.16
4926.85
4694.02
4436.66
4154.78
3848.35
3517.39
3161.88
1991.82
1963.95
1936.99
1910.88
)


20
(
6946.31
6930.88
6884.61
6807.5
6699.53
6560.71
6391.04
6190.51
5959.12
5696.87
5403.75
5079.75
4724.88
4339.13
3922.48
3474.94
2002.02
1966.94
1933
1900.13
)


20
(
7881.7
7863.35
7808.29
7716.52
7588.05
7422.86
7220.97
6982.35
6707.02
6394.96
6046.18
5660.66
5238.4
4779.4
4283.66
3751.16
1998.62
1956.88
1916.49
1877.38
)


20
(
8710.91
8689.91
8626.93
8521.97
8375.02
8186.07
7955.13
7682.2
7367.27
7010.33
6611.39
6170.43
5687.46
5162.46
4595.43
3986.38
1981.89
1934.14
1887.94
1843.21
)


20
(
9421.02
9397.72
9327.81
9211.31
9048.19
8838.47
8582.14
8279.19
7929.63
7533.45
7090.65
6601.21
6065.14
5482.43
4853.07
4177.07
1952.25
1899.25
1847.98
1798.33
)


20
(
10001
9975.74
9900.01
9773.8
9597.1
9369.91
9092.23
8764.06
8385.39
7956.21
7476.53
6946.34
6365.63
5734.4
5052.64
4320.36
1910.32
1852.91
1797.37
1743.59
)


20
(
10441.7
10415
10334.6
10200.7
10013.2
9772.11
9477.46
9129.24
8727.43
8272.03
7763.04
7200.46
6584.28
5914.49
5191.09
4414.08
1856.84
1795.93
1737
1679.93
)


20
(
10736.4
10708.5
10624.8
10485.3
10289.9
10038.8
9731.82
9369.04
8950.43
8476
7945.74
7359.64
6717.71
6019.93
5266.3
4456.82
1792.73
1729.27
1667.88
1608.42
)


20
(
10880.4
10851.8
10766.1
10623.2
10423.1
10165.8
9851.35
9479.74
9050.94
8564.96
8021.79
7421.42
6763.86
6049.1
5277.13
4447.96
1719.04
1654.04
1591.15
1530.25
)


20
(
10871.5
10842.7
10756.2
10612.2
10410.5
10151.2
9834.21
9459.62
9027.4
8537.54
7990.03
7384.87
6722.06
6001.59
5223.46
4387.66
1636.98
1571.45
1508.07
1446.68
)


20
(
10709.9
10681.3
10595.5
10452.6
10252.5
9995.18
9680.72
9309.07
8880.24
8394.22
7851.01
7250.61
6593
5878.19
5106.18
4276.95
1547.88
1482.88
1419.98
1359.08
)


20
(
10398.1
10370.2
10286.5
10146.9
9951.57
9700.37
9393.36
9030.52
8611.84
8137.34
7607
7020.82
6378.79
5680.92
4927.2
4117.62
1453.23
1389.76
1328.36
1268.9
)


20
(
9941.25
9914.46
9834.08
9700.12
9512.57
9271.44
8976.72
8628.4
8226.49
7770.99
7261.88
6699.18
6082.86
5412.94
4689.4
3912.24
1354.55
1293.62
1234.68
1177.6
)


20
(
9346.38
9321.12
9245.37
9119.11
8942.34
8715.07
8437.29
8109
7730.2
7300.88
6821.04
6290.68
5709.8
5078.39
4396.45
3663.98
1253.33
1195.91
1140.36
1086.56
)


20
(
8622.49
8599.18
8529.24
8412.67
8249.48
8039.65
7783.2
7480.11
7130.39
6734.03
6291.04
5801.4
5265.11
4682.18
4052.59
3376.35
1150.8
1097.78
1046.49
996.823
)


20
(
7779.92
7758.92
7695.9
7590.86
7443.81
7254.75
7023.67
6750.57
6435.45
6078.31
5679.14
5237.95
4754.72
4229.47
3662.17
3052.84
1047.49
999.719
953.506
908.751
)


20
(
6829.76
6811.39
6756.28
6664.44
6535.86
6370.53
6168.47
5929.67
5654.12
5341.82
4992.78
4606.99
4184.45
3725.15
3229.1
2696.29
942.754
900.983
860.573
821.438
)


20
(
5782.46
5767.02
5720.7
5643.49
5535.41
5396.44
5226.58
5025.84
4794.21
4531.7
4238.29
3914
3558.8
3172.72
2755.73
2307.84
833.815
798.702
764.733
731.836
)


20
(
4646.72
4634.45
4597.64
4536.29
4450.41
4339.98
4205.01
4045.5
3861.45
3652.85
3419.7
3162.01
2879.77
2572.98
2241.64
1885.74
714.454
686.553
659.561
633.421
)


20
(
3427.73
3418.82
3392.11
3347.59
3285.25
3205.11
3107.16
2991.39
2857.82
2706.43
2537.22
2350.2
2145.37
1922.71
1682.24
1423.95
573.887
553.637
534.048
515.077
)


20
(
2130.52
2125.12
2108.92
2081.92
2044.12
1995.52
1936.12
1865.92
1784.91
1693.11
1590.5
1477.09
1352.87
1217.85
1072.02
915.394
399.911
387.631
375.752
364.248
)


20
(
774.79
772.979