/*--------------------------------*- C++ -*----------------------------------*\
| =========                 |                                                 |
| \\      /  F ield         | OpenFOAM: The Open Source CFD Toolbox           |
|  \\    /   O peration     | Version:  2212                                  |
|   \\  /    A nd           | Website:  www.openfoam.com                      |
|    \\/     M anipulation  |                                                 |
\*---------------------------------------------------------------------------*/
FoamFile
{
    version     2.0;
    format      ascii;
    arch        "LSB;label=32;scalar=64";
    class       volScalarField;
    location    "18/neutroRegion";
    object      TClad;
}
// * * * * * * * * * * * * * * * * * * * * * * * * * * * * * * * * * * * * * //

dimensions      [0 0 0 1 0 0 0];

internalField   nonuniform List<scalar> 
350
(
0
0
0
0
0
0
0
0
0
0
0
0
0
0
0
0
0
0
0
0
0
0
0
0
0
0
0
0
0
0
0
0
0
0
0
0
0
0
0
0
0
0
0
0
0
0
0
0
0
0
1474.14
1516.31
1547.13
1566.58
1574.74
1571.85
1558.23
1534.39
1500.91
1458.54
1408.12
1350.62
1287.1
1218.72
1146.67
1072.1
995.994
918.98
841.079
761.321
677.214
584.233
475.896
346.422
198.467
1494.61
1537.5
1568.85
1588.63
1596.93
1593.98
1580.13
1555.87
1521.8
1478.67
1427.34
1368.79
1304.1
1234.46
1161.07
1085.12
1007.63
929.284
850.119
769.182
683.958
589.845
480.223
349.171
199.399
1470.78
1512.86
1543.61
1563.02
1571.17
1568.3
1554.73
1530.97
1497.6
1455.36
1405.09
1347.76
1284.44
1216.26
1144.43
1070.08
994.193
917.39
839.688
760.117
676.187
583.385
475.249
346.014
198.325
1490.01
1532.72
1563.94
1583.64
1591.9
1588.95
1575.14
1550.96
1517.02
1474.06
1422.93
1364.62
1300.19
1230.84
1157.75
1082.12
1004.95
926.906
848.031
767.366
682.399
588.547
479.222
348.534
199.184
1490.01
1532.72
1563.94
1583.64
1591.9
1588.95
1575.14
1550.96
1517.02
1474.06
1422.93
1364.62
1300.19
1230.84
1157.75
1082.12
1004.95
926.906
848.031
767.366
682.399
588.547
479.222
348.534
199.184
1470.78
1512.86
1543.61
1563.02
1571.18
1568.3
1554.74
1530.97
1497.6
1455.36
1405.09
1347.76
1284.44
1216.27
1144.43
1070.08
994.193
917.391
839.689
760.117
676.187
583.386
475.25
346.014
198.325
1494.61
1537.5
1568.85
1588.63
1596.93
1593.98
1580.13
1555.87
1521.8
1478.67
1427.34
1368.79
1304.1
1234.46
1161.07
1085.12
1007.63
929.284
850.119
769.182
683.958
589.845
480.223
349.171
199.399
1474.14
1516.31
1547.13
1566.58
1574.74
1571.84
1558.23
1534.39
1500.91
1458.54
1408.12
1350.62
1287.1
1218.72
1146.67
1072.1
995.994
918.98
841.079
761.321
677.214
584.233
475.896
346.422
198.467
1490.01
1532.72
1563.94
1583.64
1591.9
1588.95
1575.14
1550.96
1517.02
1474.06
1422.93
1364.62
1300.19
1230.84
1157.75
1082.12
1004.95
926.906
848.031
767.366
682.399
588.547
479.222
348.534
199.184
1470.78
1512.86
1543.61
1563.02
1571.17
1568.3
1554.73
1530.97
1497.6
1455.36
1405.09
1347.76
1284.44
1216.26
1144.43
1070.08
994.193
917.39
839.688
760.117
676.187
583.385
475.249
346.014
198.325
1470.78
1512.86
1543.61
1563.02
1571.18
1568.3
1554.74
1530.97
1497.6
1455.36
1405.09
1347.76
1284.44
1216.27
1144.43
1070.08
994.193
917.391
839.689
760.117
676.187
583.386
475.25
346.014
198.325
1490.01
1532.72
1563.94
1583.64
1591.9
1588.95
1575.14
1550.96
1517.02
1474.06
1422.93
1364.62
1300.19
1230.84
1157.75
1082.12
1004.95
926.906
848.031
767.366
682.399
588.547
479.222
348.534
199.184
)
;

boundaryField
{
    outletCentralUnloaded
    {
        type            zeroGradient;
    }
    inletCentralUnloaded
    {
        type            zeroGradient;
    }
    outletFuelElement
    {
        type            zeroGradient;
    }
    inletFuelElement
    {
        type            zeroGradient;
    }
    defaultFaces
    {
        type            zeroGradient;
    }
}


// ************************************************************************* //
