/*--------------------------------*- C++ -*----------------------------------*\
| =========                 |                                                 |
| \\      /  F ield         | OpenFOAM: The Open Source CFD Toolbox           |
|  \\    /   O peration     | Version:  2212                                  |
|   \\  /    A nd           | Website:  www.openfoam.com                      |
|    \\/     M anipulation  |                                                 |
\*---------------------------------------------------------------------------*/
FoamFile
{
    version     2.0;
    format      ascii;
    arch        "LSB;label=32;scalar=64";
    class       surfaceScalarField;
    location    "91/fluidRegion";
    object      alphaPhi;
}
// * * * * * * * * * * * * * * * * * * * * * * * * * * * * * * * * * * * * * //

dimensions      [0 3 -1 0 0 0 0];

oriented        oriented;

internalField   nonuniform List<scalar> 
661
(
-0.000538995
-3.95959e-13
-0.000538948
-1.37021e-13
-0.000538902
3.92371e-13
-0.000538858
7.15263e-13
-0.000538817
5.59691e-13
-0.000538775
-1.21976e-14
-0.00053873
-6.8728e-13
-0.000538678
-1.05928e-12
-0.00053862
-9.09434e-13
-0.00053856
-3.21e-13
-0.000538502
4.06724e-13
-0.000538448
9.50557e-13
-0.0005384
1.10587e-12
-0.000538357
8.72478e-13
-0.000538316
4.09124e-13
-0.000538276
-6.04617e-14
-0.000538234
-3.68921e-13
-0.00053819
-4.70879e-13
-0.000538145
-4.15521e-13
-0.0005381
-3.00193e-13
-0.000538058
-2.04335e-13
-0.000538017
-1.37534e-13
-0.000537978
-7.4581e-14
-0.00053794
2.39023e-14
1.63959e-13
-0.000538995
-0.000538948
-0.000538902
-0.000538858
-0.000538817
-0.000538775
-0.00053873
-0.000538678
-0.00053862
-0.00053856
-0.000538502
-0.000538448
-0.0005384
-0.000538357
-0.000538316
-0.000538276
-0.000538234
-0.00053819
-0.000538145
-0.0005381
-0.000538058
-0.000538017
-0.000537978
-0.00053794
-0.0202316
1.4145e-06
-0.0198033
6.71934e-07
-0.0192586
7.27975e-07
-0.0186066
6.5516e-07
-0.0178567
5.93131e-07
-0.0170189
5.35667e-07
-0.0161035
4.82443e-07
-0.0151209
4.30838e-07
-0.0140818
3.75105e-07
-0.0129975
3.0579e-07
-0.0118797
2.1102e-07
-0.0107413
7.91184e-08
-0.00959658
-9.33846e-08
-0.00846124
-2.92601e-07
-0.00735214
-4.95996e-07
-0.00628645
-6.69381e-07
-0.00528038
-7.85984e-07
-0.00434809
-8.38621e-07
-0.00350116
-8.41007e-07
-0.00274931
-8.17415e-07
-0.00210126
-7.89928e-07
-0.00156638
-7.63761e-07
-0.00115537
-7.2826e-07
-0.00087935
-6.31983e-07
-6.01997e-07
-0.0203616
-3.67624e-08
-3.84985e-08
-0.0199323
-1.71276e-07
-1.78823e-07
-0.0193855
-1.62067e-07
-1.6983e-07
-0.0187304
-1.394e-07
-1.47745e-07
-0.0179768
-1.19785e-07
-1.28692e-07
-0.0171344
-1.01612e-07
-1.11215e-07
-0.0162138
-8.48854e-08
-9.53108e-08
-0.0152252
-6.89583e-08
-8.02571e-08
-0.0141796
-5.23049e-08
-6.45928e-08
-0.0130882
-3.22871e-08
-4.56449e-08
-0.0119628
-5.19827e-09
-1.96965e-08
-0.0108163
3.2336e-08
1.67538e-08
-0.00966307
8.09238e-08
6.40498e-08
-0.00851894
1.41477e-07
1.23303e-07
-0.00740099
2.03912e-07
1.8448e-07
-0.00632664
2.58302e-07
2.37725e-07
-0.00531238
2.95614e-07
2.74003e-07
-0.00437258
3.12768e-07
2.90383e-07
-0.00351898
3.13732e-07
2.9079e-07
-0.00276143
3.05943e-07
2.83087e-07
-0.0021087
2.96411e-07
2.74043e-07
-0.00157023
2.85082e-07
2.64597e-07
-0.00115682
2.65479e-07
2.47388e-07
-0.000879545
2.10176e-07
1.96558e-07
1.59619e-07
1.52569e-07
-0.0202103
6.96923e-07
-0.0197823
6.58165e-07
-0.0192381
6.3384e-07
-0.0185866
5.6479e-07
-0.0178374
5.02956e-07
-0.0170004
4.46022e-07
-0.0160859
3.93179e-07
-0.0151043
3.41398e-07
-0.0140663
2.84194e-07
-0.0129831
2.11319e-07
-0.0118665
1.09959e-07
-0.0107295
-3.03147e-08
-0.00958612
-2.12618e-07
-0.00845216
-4.23231e-07
-0.00734445
-6.35319e-07
-0.00628011
-8.12776e-07
-0.00527531
-9.28269e-07
-0.00434418
-9.75806e-07
-0.00349826
-9.71342e-07
-0.00274728
-9.40775e-07
-0.00209992
-9.05795e-07
-0.00156557
-8.70062e-07
-0.00115493
-8.10725e-07
-0.000879132
-6.72717e-07
-5.48128e-07
-0.0203326
5.68263e-09
-0.0199035
2.59983e-09
-0.0193571
2.85285e-09
-0.0187027
2.77644e-09
-0.0179498
2.78234e-09
-0.0171084
2.71352e-09
-0.0161889
2.5034e-09
-0.0152017
2.27221e-09
-0.0141575
1.91138e-09
-0.0130676
1.39529e-09
-0.0119439
8.16862e-10
-0.0107993
1.20433e-10
-0.00964794
-7.50936e-10
-0.00850579
-1.73964e-09
-0.00738984
-2.87854e-09
-0.00631747
-4.06913e-09
-0.00530507
-5.13568e-09
-0.00436698
-5.90136e-09
-0.00351491
-6.35713e-09
-0.00275867
-6.34632e-09
-0.00210701
-5.8797e-09
-0.00156937
-5.14286e-09
-0.00115651
-4.34431e-09
-0.000879527
-3.1438e-09
-2.06789e-09
-0.0203327
-6.84649e-07
-0.0199035
-6.52657e-07
-0.0193571
-6.27491e-07
-0.0187027
-5.58465e-07
-0.0179498
-4.9651e-07
-0.0171085
-4.39591e-07
-0.0161889
-3.86942e-07
-0.0152017
-3.35401e-07
-0.0141575
-2.78643e-07
-0.0130677
-2.06426e-07
-0.0119439
-1.05834e-07
-0.0107993
3.36322e-08
-0.00964795
2.14782e-07
-0.0085058
4.24003e-07
-0.00738985
6.34464e-07
-0.00631747
8.10159e-07
-0.00530508
9.23958e-07
-0.00436699
9.70043e-07
-0.00351492
9.6429e-07
-0.00275867
9.3283e-07
-0.00210701
8.97298e-07
-0.00156937
8.61382e-07
-0.00115652
8.01904e-07
-0.000879528
6.65364e-07
5.42378e-07
-0.0202103
3.42775e-08
-0.0197824
1.73877e-07
-0.0192381
1.6449e-07
-0.0185866
1.42091e-07
-0.0178374
1.22856e-07
-0.0170004
1.05123e-07
-0.0160859
8.89075e-08
-0.0151043
7.36184e-08
-0.0140663
5.76651e-08
-0.0129831
3.84101e-08
-0.0118665
1.22119e-08
-0.0107295
-2.44002e-08
-0.00958613
-7.18008e-08
-0.00845217
-1.31286e-07
-0.00734446
-1.92766e-07
-0.00628012
-2.46419e-07
-0.00527532
-2.83276e-07
-0.00434418
-3.00397e-07
-0.00349826
-3.0189e-07
-0.00274728
-2.95234e-07
-0.00209992
-2.87265e-07
-0.00156557
-2.77947e-07
-0.00115493
-2.60638e-07
-0.00087913
-2.07274e-07
-1.577e-07
-0.0203616
-1.41398e-06
-4.35389e-08
-0.0199323
-6.71165e-07
-1.79508e-07
-0.0193855
-7.27211e-07
-1.70796e-07
-0.0187304
-6.54393e-07
-1.48518e-07
-0.0179768
-5.92274e-07
-1.29339e-07
-0.0171344
-5.34759e-07
-1.11629e-07
-0.0162138
-4.81516e-07
-9.53497e-08
-0.0152252
-4.29873e-07
-7.98573e-08
-0.0141796
-3.74164e-07
-6.35796e-08
-0.0130882
-3.04917e-07
-4.38406e-08
-0.0119628
-2.10188e-07
-1.69742e-08
-0.0108163
-7.83924e-08
2.03131e-08
-0.00966307
9.387e-08
6.90269e-08
-0.00851894
2.92723e-07
1.29931e-07
-0.00740099
4.95472e-07
1.93094e-07
-0.00632664
6.67896e-07
2.48697e-07
-0.00531238
7.83152e-07
2.87733e-07
-0.00437258
8.33919e-07
3.07248e-07
-0.00351898
8.33566e-07
3.11389e-07
-0.00276143
8.06313e-07
3.07744e-07
-0.0021087
7.74053e-07
3.02846e-07
-0.00157023
7.43028e-07
2.96327e-07
-0.00115682
7.02294e-07
2.80418e-07
-0.000879545
6.06032e-07
2.25639e-07
5.80014e-07
1.73753e-07
-0.0202316
-0.0198033
-0.0192586
-0.0186066
-0.0178567
-0.0170189
-0.0161035
-0.0151209
-0.0140818
-0.0129975
-0.0118797
-0.0107413
-0.00959658
-0.00846124
-0.00735214
-0.00628645
-0.00528038
-0.00434809
-0.00350116
-0.00274931
-0.00210126
-0.00156638
-0.00115537
-0.00087935
-0.0203326
-6.88162e-07
5.74589e-11
-0.0199035
-6.47946e-07
-4.03788e-09
-0.0193571
-6.23136e-07
-4.0635e-09
-0.0187027
-5.53656e-07
-4.35945e-09
-0.0179498
-4.91264e-07
-4.77392e-09
-0.0171084
-4.33792e-07
-5.24926e-09
-0.0161889
-3.80473e-07
-5.76902e-09
-0.0152017
-3.28186e-07
-6.42469e-09
-0.0141575
-2.70571e-07
-7.15523e-09
-0.0130676
-1.97405e-07
-7.95816e-09
-0.0119439
-9.58041e-08
-8.96592e-09
-0.0107993
4.48208e-08
-9.78356e-09
-0.00964794
2.27241e-07
-1.12411e-08
-0.00850579
4.37824e-07
-1.2717e-08
-0.00738984
6.49784e-07
-1.4333e-08
-0.00631747
8.27135e-07
-1.61417e-08
-0.00530507
9.42931e-07
-1.82979e-08
-0.00436698
9.91464e-07
-2.08616e-08
-0.00351491
9.89093e-07
-2.39125e-08
-0.00275867
9.61916e-07
-2.73174e-08
-0.00210701
9.31935e-07
-3.09993e-08
-0.00156937
9.01135e-07
-3.32779e-08
-0.00115651
8.45511e-07
-3.35994e-08
-0.000879527
7.06492e-07
-2.91367e-08
5.74926e-07
-2.11387e-08
-0.0202103
-0.0197823
-0.0192381
-0.0185866
-0.0178374
-0.0170004
-0.0160859
-0.0151043
-0.0140663
-0.0129831
-0.0118665
-0.0107295
-0.00958612
-0.00845216
-0.00734445
-0.00628011
-0.00527531
-0.00434418
-0.00349826
-0.00274728
-0.00209992
-0.00156557
-0.00115493
-0.000879132
-0.0202103
6.87706e-07
-0.0197824
6.55893e-07
-0.0192381
6.30753e-07
-0.0185866
5.61792e-07
-0.0178374
5.00087e-07
-0.0170004
4.43363e-07
-0.0160859
3.90848e-07
-0.0151043
3.39538e-07
-0.0140663
2.82945e-07
-0.0129831
2.10809e-07
-0.0118665
1.10354e-07
-0.0107295
-2.92637e-08
-0.00958613
-2.10048e-07
-0.00845217
-4.19142e-07
-0.00734446
-6.29699e-07
-0.00628012
-8.05695e-07
-0.00527532
-9.1999e-07
-0.00434418
-9.66936e-07
-0.00349826
-9.62822e-07
-0.00274728
-9.33933e-07
-0.00209992
-9.02332e-07
-0.00156557
-8.71195e-07
-0.00115493
-8.17031e-07
-0.00087913
-6.82716e-07
-5.57759e-07
-0.0203327
-0.0199035
-0.0193571
-0.0187027
-0.0179498
-0.0171085
-0.0161889
-0.0152017
-0.0141575
-0.0130677
-0.0119439
-0.0107993
-0.00964795
-0.0085058
-0.00738985
-0.00631747
-0.00530508
-0.00436699
-0.00351492
-0.00275867
-0.00210701
-0.00156937
-0.00115652
-0.000879528
)
;

boundaryField
{
    outletCentralUnloaded
    {
        type            calculated;
        value           nonuniform List<scalar> 2(0.000539042 0.000539042);
    }
    inletCentralUnloaded
    {
        type            calculated;
        value           uniform -0.000540134;
    }
    outletFuelElement
    {
        type            calculated;
        value           nonuniform List<scalar> 
12
(
0.0205725
0.0207057
0.0205517
0.0206759
0.0206759
0.0205517
0.0207057
0.0205725
0.0206759
0.0205517
0.0205517
0.0206759
)
;
    }
    inletFuelElement
    {
        type            calculated;
        value           nonuniform List<scalar> 
12
(
-0.000722059
-0.00072206
-0.000722059
-0.000722059
-0.00072206
-0.000722059
-0.00072206
-0.000722059
-0.000722059
-0.000722059
-0.000722059
-0.00072206
)
;
    }
    defaultFaces
    {
        type            calculated;
        value           nonuniform List<scalar> 
450
(
2.35094e-23
-5.51126e-23
0
2.86564e-23
-9.90409e-24
0
1.71025e-23
2.39757e-23
0
-4.79571e-23
-2.04296e-23
0
-1.63043e-23
-3.60988e-23
0
-4.14153e-23
-1.52148e-23
0
-3.27753e-23
-1.87969e-23
0
-3.41973e-23
-1.6795e-23
0
-2.13591e-23
-3.77392e-25
0
-2.55193e-23
-9.08378e-24
0
-1.13323e-23
-4.39927e-24
0
-5.12932e-24
-1.9457e-24
0
5.47779e-24
3.36019e-24
0
1.93749e-23
5.71687e-24
0
3.57172e-23
9.4735e-24
0
4.62972e-23
1.16869e-23
0
3.48815e-23
-6.19734e-24
0
6.25237e-23
3.75041e-23
0
2.91685e-23
-1.67862e-23
0
-2.02571e-23
-2.33215e-23
0
-2.58992e-23
-1.21274e-23
0
3.87174e-23
-1.51182e-23
0
-1.79564e-23
1.06285e-23
0
-2.57964e-23
-1.91417e-23
0
-1.51528e-23
-1.95638e-23
0
1.80511e-23
0
3.20908e-23
0
1.60454e-23
0
1.60454e-23
0
-1.60454e-23
0
1.2034e-23
0
1.60454e-23
0
1.00284e-23
0
-6.01702e-24
0
4.01135e-24
0
4.51277e-24
0
-1.00284e-24
0
-8.0227e-24
0
-8.0227e-24
0
-1.60454e-23
0
-3.20908e-23
0
4.81362e-23
0
-3.20908e-23
0
0
0
-4.81362e-23
0
-3.20908e-23
0
4.81362e-23
0
0
0
-2.40681e-23
0
-2.40681e-23
0
0
-1.60454e-23
0
-8.0227e-24
8.0227e-24
-8.0227e-24
0
-8.0227e-24
8.0227e-24
0
-2.00567e-24
1.50426e-24
0
1.60454e-23
0
1.60454e-23
-3.20908e-23
3.20908e-23
-1.60454e-23
0
0
-4.81362e-23
-4.81362e-23
0
-8.0227e-24
0
0
0
0
0
0
0
0
0
0
0
0
0
0
0
0
0
0
0
0
0
0
0
0
0
-1.60454e-23
8.0227e-24
8.0227e-24
1.60454e-23
1.60454e-23
4.01135e-23
-1.60454e-23
-1.2034e-23
1.2034e-23
-1.2034e-23
-1.2034e-23
-1.60454e-23
-1.2034e-23
-1.2034e-23
-8.0227e-24
-8.0227e-24
1.80511e-23
-4.01135e-24
-6.01702e-24
-4.01135e-24
-2.50709e-24
-2.00567e-24
2.00567e-24
1.88032e-24
1.00284e-23
8.0227e-24
1.2034e-23
1.2034e-23
2.40681e-23
1.60454e-23
1.60454e-23
1.60454e-23
-1.60454e-23
4.01135e-23
3.20908e-23
2.40681e-23
-4.81362e-23
5.61589e-23
-4.81362e-23
-3.20908e-23
0
-1.60454e-23
-3.20908e-23
4.01135e-23
-8.0227e-24
-4.01135e-23
0
-2.40681e-23
-1.60454e-23
-1.2034e-23
1.88274e-23
0
0
4.67665e-24
0
-8.0227e-24
1.77915e-23
0
-4.81362e-23
-5.04915e-23
0
8.0227e-24
1.3826e-23
0
0
-5.43064e-23
0
0
-4.68016e-23
0
0
-3.54511e-23
0
1.60454e-23
-2.74338e-23
0
-1.60454e-23
-3.02725e-23
0
1.2034e-23
-1.45936e-23
0
8.0227e-24
-6.39951e-24
0
1.00284e-24
5.72075e-24
-0
-2.00567e-24
2.5784e-23
-0
-4.01135e-24
4.21819e-23
-0
0
6.39176e-23
-0
0
4.12892e-23
-0
-1.60454e-23
9.44413e-23
-0
-1.60454e-23
2.27269e-23
-0
-1.60454e-23
-1.43022e-23
-0
1.60454e-23
-1.05045e-23
-0
1.60454e-23
3.27947e-23
-0
1.60454e-23
-3.2293e-23
-0
0
-7.22935e-24
-0
1.60454e-23
-1.80027e-23
-0
1.60454e-23
0
-2.40681e-23
0
-8.0227e-24
0
0
0
4.01135e-24
-4.01135e-24
0
-2.00567e-24
1.00284e-24
0
0
8.0227e-24
1.60454e-23
-3.20908e-23
0
-3.20908e-23
0
1.60454e-23
-3.20908e-23
-1.60454e-23
1.60454e-23
0
2.20624e-23
0
2.40681e-23
0
-8.0227e-24
0
1.60454e-23
0
-1.2034e-23
0
1.2034e-23
0
1.2034e-23
0
1.2034e-23
0
0
0
8.0227e-24
0
2.50709e-24
0
-2.00567e-24
-0
-6.01702e-24
-0
-2.00567e-23
-0
-8.0227e-24
-0
-3.20908e-23
-0
4.81362e-23
-0
-3.20908e-23
-0
3.20908e-23
-0
-1.60454e-23
-0
-4.81362e-23
-0
3.20908e-23
-0
8.0227e-24
-0
-3.20908e-23
-0
-1.60454e-23
-0
-1.40397e-23
0
-2.40681e-23
2.40681e-23
-2.40681e-23
1.60454e-23
-8.0227e-24
-4.01135e-23
0
1.2034e-23
-1.2034e-23
-3.61021e-23
-1.2034e-23
-2.80794e-23
-8.0227e-24
-2.40681e-23
4.01135e-24
-1.2034e-23
-8.0227e-24
-1.60454e-23
-2.00567e-24
-6.01702e-24
5.01419e-25
2.97717e-24
4.01135e-24
1.60454e-23
1.2034e-23
3.61021e-23
1.60454e-23
5.61589e-23
0
7.22043e-23
0
4.01135e-23
1.60454e-23
8.0227e-23
-1.60454e-23
5.61589e-23
-8.0227e-24
-1.60454e-23
8.0227e-24
-1.60454e-23
8.0227e-24
5.61589e-23
1.60454e-23
-1.60454e-23
-8.0227e-24
-1.60454e-23
-8.0227e-24
-2.40681e-23
-0
-0
-0
-0
-0
-0
-0
-0
-0
-0
-0
0
0
0
0
0
0
0
0
0
0
0
0
0
0
)
;
    }
    baffle_master
    {
        type            calculated;
        value           nonuniform List<scalar> 
150
(
-8.9984e-31
0
-5.72334e-30
-3.43267e-32
0
0
-1.98864e-30
0
0
1.02483e-30
0
0
4.09446e-29
0
2.28934e-29
1.07409e-31
0
-1.78854e-31
3.75891e-30
0
0
-3.10004e-30
0
0
1.09968e-29
0
0
-3.37754e-30
0
0
-3.00968e-30
0
0
2.2511e-30
0
0
-7.29011e-30
0
0
-4.35818e-30
0
0
1.28685e-30
0
-5.72334e-30
1.47344e-31
0
0
3.19367e-29
0
2.28934e-29
-1.12288e-30
0
1.14467e-29
2.39848e-29
0
2.28934e-29
-9.79333e-31
0
5.72334e-30
-1.8065e-30
0
2.86167e-30
-9.01181e-30
0
-5.72334e-30
5.51208e-31
0
-1.43084e-30
-2.4213e-31
0
-3.57709e-31
9.33069e-31
0
-2.86167e-30
0
-1.53446e-29
0
2.86167e-30
-4.12674e-30
0
0
1.19707e-29
-0
0
3.61079e-29
-0
0
-2.00778e-29
-0
0
-5.11026e-31
0
2.28934e-29
-1.5182e-29
0
2.28934e-29
-6.53462e-29
0
-2.28934e-29
-2.67888e-29
0
5.72334e-30
-9.17355e-30
0
-5.72334e-30
1.71467e-29
-0
-2.28934e-29
2.03908e-29
-0
0
3.3721e-29
-0
-1.14467e-29
4.38095e-29
-0
-5.72334e-30
1.58173e-29
-0
0
-2.01012e-30
0
-5.72334e-30
-1.78287e-29
0
1.14467e-29
-2.02832e-29
0
-1.14467e-29
9.25536e-31
0
5.72334e-30
9.06976e-30
0
-2.86167e-30
5.45275e-30
0
-5.72334e-30
8.55373e-30
0
-2.86167e-30
-1.93605e-30
0
-7.15418e-31
-6.77829e-31
-0
0
-5.34596e-30
-0
)
;
    }
    baffle_slave
    {
        type            calculated;
        value           nonuniform List<scalar> 
150
(
-4.38741e-25
-0
0
-3.00851e-24
-0
0
3.50993e-24
-0
0
1.50426e-24
-0
0
-2.30653e-23
-0
-1.60454e-23
6.01702e-24
-0
0
-3.50993e-24
-0
0
5.01419e-25
-0
-8.0227e-24
0
-0
0
0
-0
4.01135e-24
5.01419e-25
-0
-2.00567e-24
0
0
-2.50709e-25
0
0
4.01135e-24
0
0
0
0
0
-8.0227e-24
5.01419e-24
0
1.60454e-23
-5.21475e-23
0
-4.81362e-23
5.01419e-24
0
0
-3.40965e-23
0
-4.81362e-23
3.00851e-24
0
1.60454e-23
-5.01419e-24
0
-1.60454e-23
3.1088e-23
0
1.60454e-23
-5.01419e-24
0
0
5.01419e-25
0
-1.60454e-23
2.50709e-25
0
-8.0227e-24
-7.35561e-24
5.21475e-23
0
-3.17768e-24
2.23131e-23
0
8.13633e-25
1.52933e-23
0
-9.4409e-24
2.25638e-23
0
-1.37939e-23
-3.28429e-23
0
-4.01841e-24
1.50426e-23
0
-8.58581e-24
1.42904e-23
0
-1.02879e-24
1.27862e-23
0
1.18173e-23
1.15326e-23
0
-5.257e-24
8.77483e-24
0
-1.41602e-24
4.76348e-24
0
5.36827e-25
4.51277e-24
0
7.22891e-25
-6.26773e-25
0
7.79656e-24
-4.63812e-24
0
6.96019e-24
-1.22691e-23
0
1.72226e-23
-1.67975e-23
0
-4.60317e-23
-1.51679e-23
0
1.32206e-23
-1.78004e-23
0
-3.51982e-23
2.00567e-24
0
3.688e-24
9.02554e-24
0
-1.17478e-23
1.60454e-23
0
-3.26238e-23
2.60738e-23
0
-1.5437e-23
-1.2034e-23
0
-1.21083e-23
9.02554e-24
0
-2.57272e-24
1.35383e-23
0
)
;
    }
}


// ************************************************************************* //
