/*--------------------------------*- C++ -*----------------------------------*\
| =========                 |                                                 |
| \\      /  F ield         | OpenFOAM: The Open Source CFD Toolbox           |
|  \\    /   O peration     | Version:  2212                                  |
|   \\  /    A nd           | Website:  www.openfoam.com                      |
|    \\/     M anipulation  |                                                 |
\*---------------------------------------------------------------------------*/
FoamFile
{
    version     2.0;
    format      ascii;
    arch        "LSB;label=32;scalar=64";
    class       volScalarField;
    location    "91/fluidRegion";
    object      htc;
}
// * * * * * * * * * * * * * * * * * * * * * * * * * * * * * * * * * * * * * //

dimensions      [1 0 -3 -1 0 0 0];

internalField   nonuniform List<scalar> 
350
(
3101.5
3101.51
3101.51
3101.52
3101.55
3101.58
3101.6
3101.6
3101.57
3101.53
3101.48
3101.44
3101.43
3101.44
3101.47
3101.5
3101.53
3101.56
3101.57
3101.59
3101.61
3101.64
3101.68
3101.72
3106.9
3101.5
3101.51
3101.51
3101.52
3101.55
3101.58
3101.6
3101.6
3101.57
3101.53
3101.48
3101.44
3101.43
3101.44
3101.47
3101.5
3101.53
3101.56
3101.57
3101.59
3101.61
3101.64
3101.68
3101.72
3106.9
27258.6
27177
26989.6
26677.1
26241
25683.5
25007.3
24216.5
23316.1
22313.3
21217.6
20041.6
18800.2
17510.5
16188.8
14849.2
13501.8
12154.9
10817.6
9505.95
8248.04
7090.42
6104.28
5383.48
4944.21
27347.6
27265.6
27078.8
26766.4
26329.8
25771.3
25093.5
24300.3
23396.7
22389.5
21288.2
20105.1
18855.7
17557.2
16227
14879.6
13525.9
12173.6
10831.7
9515.52
8253.03
7090.92
6101.24
5379.23
4942.25
27244.6
27162.5
26975.1
26662.6
26226.7
25669.3
24993.5
24203.1
23303.3
22301.2
21206.4
20031.5
18791.4
17503
16182.6
14844.1
13497.8
12151.6
10815
9503.93
8246.63
7089.58
6103.86
5383.22
4944.07
27327.9
27246
27059
26746.5
26310
25751.6
25074.2
24281.5
23378.6
22372.3
21272.2
20090.7
18843.1
17546.6
16218.4
14872.8
13520.5
12169.4
10828.5
9513.42
8251.97
7090.91
6102.04
5380.33
4942.77
27327.9
27246
27059
26746.5
26310
25751.6
25074.2
24281.5
23378.6
22372.3
21272.2
20090.7
18843.1
17546.6
16218.4
14872.8
13520.5
12169.4
10828.5
9513.42
8251.97
7090.91
6102.04
5380.33
4942.77
27244.6
27162.6
26975.1
26662.7
26226.7
25669.3
24993.5
24203.1
23303.3
22301.2
21206.4
20031.5
18791.4
17503
16182.6
14844.1
13497.8
12151.6
10815
9503.92
8246.62
7089.57
6103.85
5383.21
4944.06
27347.6
27265.6
27078.8
26766.4
26329.8
25771.3
25093.5
24300.3
23396.7
22389.5
21288.2
20105.1
18855.7
17557.2
16227
14879.6
13525.9
12173.6
10831.7
9515.52
8253.03
7090.92
6101.24
5379.23
4942.25
27258.6
27177
26989.6
26677.1
26241
25683.5
25007.3
24216.5
23316.1
22313.3
21217.6
20041.6
18800.2
17510.5
16188.8
14849.2
13501.8
12154.9
10817.6
9505.95
8248.04
7090.42
6104.28
5383.48
4944.22
27327.9
27246
27059
26746.5
26310
25751.6
25074.2
24281.5
23378.6
22372.3
21272.2
20090.7
18843.1
17546.6
16218.4
14872.8
13520.5
12169.4
10828.5
9513.42
8251.97
7090.91
6102.04
5380.33
4942.77
27244.6
27162.5
26975.1
26662.6
26226.7
25669.3
24993.5
24203.1
23303.3
22301.2
21206.4
20031.5
18791.4
17503
16182.6
14844.1
13497.8
12151.6
10815
9503.93
8246.63
7089.58
6103.86
5383.22
4944.07
27244.6
27162.6
26975.1
26662.7
26226.7
25669.3
24993.5
24203.1
23303.3
22301.2
21206.4
20031.5
18791.4
17503
16182.6
14844.1
13497.8
12151.6
10815
9503.92
8246.63
7089.57
6103.85
5383.2
4944.06
27327.9
27246
27059
26746.5
26310
25751.6
25074.2
24281.5
23378.6
22372.3
21272.2
20090.7
18843.1
17546.6
16218.4
14872.8
13520.5
12169.4
10828.5
9513.42
8251.97
7090.91
6102.05
5380.33
4942.77
)
;

boundaryField
{
    outletCentralUnloaded
    {
        type            zeroGradient;
    }
    inletCentralUnloaded
    {
        type            zeroGradient;
    }
    outletFuelElement
    {
        type            zeroGradient;
    }
    inletFuelElement
    {
        type            zeroGradient;
    }
    defaultFaces
    {
        type            zeroGradient;
    }
    baffle_master
    {
        type            zeroGradient;
    }
    baffle_slave
    {
        type            zeroGradient;
    }
}


// ************************************************************************* //
