/*--------------------------------*- C++ -*----------------------------------*\
| =========                 |                                                 |
| \\      /  F ield         | OpenFOAM: The Open Source CFD Toolbox           |
|  \\    /   O peration     | Version:  2212                                  |
|   \\  /    A nd           | Website:  www.openfoam.com                      |
|    \\/     M anipulation  |                                                 |
\*---------------------------------------------------------------------------*/
FoamFile
{
    version     2.0;
    format      ascii;
    arch        "LSB;label=32;scalar=64";
    class       volScalarField;
    location    "79/fluidRegion";
    object      heatFlux.structure;
}
// * * * * * * * * * * * * * * * * * * * * * * * * * * * * * * * * * * * * * //

dimensions      [1 0 -3 0 0 0 0];

internalField   nonuniform List<scalar> 
350
(
-258322
-258325
-258328
-258329
-258330
-258329
-258327
-258325
-258323
-258323
-258324
-258328
-258333
-258340
-258348
-258355
-258361
-258365
-258368
-258370
-258372
-258373
-258375
-258377
-258807
-258322
-258325
-258328
-258329
-258330
-258329
-258327
-258325
-258323
-258323
-258324
-258328
-258333
-258340
-258348
-258355
-258361
-258365
-258368
-258370
-258372
-258373
-258375
-258377
-258807
450374
1.34416e+06
2.21675e+06
3.05437e+06
3.84383e+06
4.57266e+06
5.22938e+06
5.80363e+06
6.28634e+06
6.66992e+06
6.94831e+06
7.11712e+06
7.17369e+06
7.11713e+06
6.94832e+06
6.66994e+06
6.28637e+06
5.80365e+06
5.22939e+06
4.5727e+06
3.84387e+06
3.05445e+06
2.2168e+06
1.34419e+06
450448
455532
1.35956e+06
2.24214e+06
3.08936e+06
3.88786e+06
4.62504e+06
5.28928e+06
5.87011e+06
6.35835e+06
6.74633e+06
7.0279e+06
7.19865e+06
7.25587e+06
7.19866e+06
7.02792e+06
6.74634e+06
6.35838e+06
5.87014e+06
5.28929e+06
4.62508e+06
3.88791e+06
3.08944e+06
2.24219e+06
1.35959e+06
455607
449553
1.34171e+06
2.21271e+06
3.0488e+06
3.83682e+06
4.56432e+06
5.21984e+06
5.79304e+06
6.27488e+06
6.65776e+06
6.93564e+06
7.10414e+06
7.16061e+06
7.10415e+06
6.93565e+06
6.65777e+06
6.2749e+06
5.79307e+06
5.21985e+06
4.56436e+06
3.83686e+06
3.04888e+06
2.21276e+06
1.34174e+06
449626
454345
1.35601e+06
2.2363e+06
3.08131e+06
3.87772e+06
4.61299e+06
5.27549e+06
5.8548e+06
6.34178e+06
6.72874e+06
7.00958e+06
7.17988e+06
7.23695e+06
7.17989e+06
7.00959e+06
6.72876e+06
6.3418e+06
5.85483e+06
5.2755e+06
4.61303e+06
3.87777e+06
3.08139e+06
2.23635e+06
1.35604e+06
454420
454345
1.35601e+06
2.2363e+06
3.08131e+06
3.87772e+06
4.61298e+06
5.27549e+06
5.8548e+06
6.34178e+06
6.72874e+06
7.00958e+06
7.17988e+06
7.23695e+06
7.17989e+06
7.00959e+06
6.72876e+06
6.3418e+06
5.85483e+06
5.2755e+06
4.61302e+06
3.87777e+06
3.08139e+06
2.23635e+06
1.35604e+06
454420
449553
1.34171e+06
2.21271e+06
3.0488e+06
3.83682e+06
4.56432e+06
5.21984e+06
5.79304e+06
6.27488e+06
6.65776e+06
6.93564e+06
7.10414e+06
7.16061e+06
7.10415e+06
6.93565e+06
6.65777e+06
6.2749e+06
5.79307e+06
5.21985e+06
4.56436e+06
3.83686e+06
3.04888e+06
2.21276e+06
1.34174e+06
449626
455532
1.35956e+06
2.24214e+06
3.08936e+06
3.88786e+06
4.62504e+06
5.28928e+06
5.87011e+06
6.35835e+06
6.74633e+06
7.0279e+06
7.19865e+06
7.25587e+06
7.19865e+06
7.02792e+06
6.74634e+06
6.35838e+06
5.87014e+06
5.28929e+06
4.62508e+06
3.8879e+06
3.08944e+06
2.24219e+06
1.35959e+06
455607
450374
1.34416e+06
2.21675e+06
3.05437e+06
3.84383e+06
4.57266e+06
5.22938e+06
5.80363e+06
6.28634e+06
6.66992e+06
6.94831e+06
7.11712e+06
7.17369e+06
7.11713e+06
6.94832e+06
6.66994e+06
6.28637e+06
5.80365e+06
5.22939e+06
4.5727e+06
3.84387e+06
3.05445e+06
2.2168e+06
1.34419e+06
450447
454345
1.35601e+06
2.2363e+06
3.08131e+06
3.87772e+06
4.61299e+06
5.27549e+06
5.8548e+06
6.34178e+06
6.72874e+06
7.00958e+06
7.17988e+06
7.23695e+06
7.17989e+06
7.00959e+06
6.72876e+06
6.3418e+06
5.85483e+06
5.2755e+06
4.61303e+06
3.87777e+06
3.08139e+06
2.23635e+06
1.35604e+06
454420
449553
1.34171e+06
2.21271e+06
3.0488e+06
3.83682e+06
4.56432e+06
5.21984e+06
5.79304e+06
6.27488e+06
6.65776e+06
6.93564e+06
7.10414e+06
7.16061e+06
7.10415e+06
6.93565e+06
6.65777e+06
6.2749e+06
5.79307e+06
5.21985e+06
4.56436e+06
3.83686e+06
3.04888e+06
2.21276e+06
1.34174e+06
449626
449553
1.34171e+06
2.21271e+06
3.0488e+06
3.83682e+06
4.56432e+06
5.21984e+06
5.79304e+06
6.27488e+06
6.65776e+06
6.93564e+06
7.10414e+06
7.16061e+06
7.10415e+06
6.93565e+06
6.65777e+06
6.2749e+06
5.79307e+06
5.21985e+06
4.56436e+06
3.83686e+06
3.04888e+06
2.21276e+06
1.34174e+06
449626
454345
1.35601e+06
2.2363e+06
3.08131e+06
3.87772e+06
4.61299e+06
5.27549e+06
5.8548e+06
6.34178e+06
6.72874e+06
7.00958e+06
7.17988e+06
7.23695e+06
7.17989e+06
7.00959e+06
6.72876e+06
6.3418e+06
5.85483e+06
5.2755e+06
4.61302e+06
3.87777e+06
3.08139e+06
2.23635e+06
1.35604e+06
454420
)
;

boundaryField
{
    outletCentralUnloaded
    {
        type            zeroGradient;
    }
    inletCentralUnloaded
    {
        type            zeroGradient;
    }
    outletFuelElement
    {
        type            zeroGradient;
    }
    inletFuelElement
    {
        type            zeroGradient;
    }
    defaultFaces
    {
        type            zeroGradient;
    }
    baffle_master
    {
        type            zeroGradient;
    }
    baffle_slave
    {
        type            zeroGradient;
    }
}


// ************************************************************************* //
