/*--------------------------------*- C++ -*----------------------------------*\
| =========                 |                                                 |
| \\      /  F ield         | OpenFOAM: The Open Source CFD Toolbox           |
|  \\    /   O peration     | Version:  2212                                  |
|   \\  /    A nd           | Website:  www.openfoam.com                      |
|    \\/     M anipulation  |                                                 |
\*---------------------------------------------------------------------------*/
FoamFile
{
    version     2.0;
    format      ascii;
    arch        "LSB;label=32;scalar=64";
    class       volScalarField;
    location    "79/fluidRegion";
    object      p_rgh;
}
// * * * * * * * * * * * * * * * * * * * * * * * * * * * * * * * * * * * * * //

dimensions      [1 -1 -2 0 0 0 0];

internalField   nonuniform List<scalar> 
350
(
3.44743e+06
3.44772e+06
3.44802e+06
3.44831e+06
3.44861e+06
3.4489e+06
3.4492e+06
3.44949e+06
3.44979e+06
3.45009e+06
3.45039e+06
3.45068e+06
3.45098e+06
3.45128e+06
3.45157e+06
3.45186e+06
3.45216e+06
3.45245e+06
3.45275e+06
3.45304e+06
3.45334e+06
3.45363e+06
3.45393e+06
3.45422e+06
3.45451e+06
3.44743e+06
3.44772e+06
3.44802e+06
3.44831e+06
3.44861e+06
3.4489e+06
3.4492e+06
3.44949e+06
3.44979e+06
3.45009e+06
3.45039e+06
3.45068e+06
3.45098e+06
3.45128e+06
3.45157e+06
3.45186e+06
3.45216e+06
3.45245e+06
3.45275e+06
3.45304e+06
3.45334e+06
3.45363e+06
3.45393e+06
3.45422e+06
3.45451e+06
3.47385e+06
3.5257e+06
3.57694e+06
3.62725e+06
3.67635e+06
3.72393e+06
3.76975e+06
3.81356e+06
3.85517e+06
3.89437e+06
3.93101e+06
3.96496e+06
3.9961e+06
4.02435e+06
4.04967e+06
4.07206e+06
4.09155e+06
4.10825e+06
4.12229e+06
4.13384e+06
4.1431e+06
4.1503e+06
4.15568e+06
4.15954e+06
4.16221e+06
3.47385e+06
3.5257e+06
3.57694e+06
3.62725e+06
3.67635e+06
3.72393e+06
3.76975e+06
3.81356e+06
3.85517e+06
3.89437e+06
3.93101e+06
3.96496e+06
3.9961e+06
4.02435e+06
4.04967e+06
4.07206e+06
4.09155e+06
4.10825e+06
4.12229e+06
4.13384e+06
4.1431e+06
4.1503e+06
4.15568e+06
4.15954e+06
4.16221e+06
3.47385e+06
3.5257e+06
3.57694e+06
3.62725e+06
3.67635e+06
3.72393e+06
3.76975e+06
3.81356e+06
3.85517e+06
3.89437e+06
3.93101e+06
3.96496e+06
3.9961e+06
4.02435e+06
4.04967e+06
4.07206e+06
4.09155e+06
4.10825e+06
4.12229e+06
4.13384e+06
4.1431e+06
4.1503e+06
4.15568e+06
4.15954e+06
4.16221e+06
3.47385e+06
3.5257e+06
3.57694e+06
3.62725e+06
3.67635e+06
3.72393e+06
3.76975e+06
3.81356e+06
3.85517e+06
3.89437e+06
3.93101e+06
3.96496e+06
3.9961e+06
4.02435e+06
4.04967e+06
4.07206e+06
4.09155e+06
4.10825e+06
4.12229e+06
4.13384e+06
4.1431e+06
4.1503e+06
4.15568e+06
4.15954e+06
4.16221e+06
3.47385e+06
3.5257e+06
3.57694e+06
3.62725e+06
3.67635e+06
3.72393e+06
3.76975e+06
3.81356e+06
3.85517e+06
3.89437e+06
3.93101e+06
3.96496e+06
3.9961e+06
4.02435e+06
4.04967e+06
4.07206e+06
4.09155e+06
4.10825e+06
4.12229e+06
4.13384e+06
4.1431e+06
4.1503e+06
4.15568e+06
4.15954e+06
4.16221e+06
3.47385e+06
3.5257e+06
3.57694e+06
3.62725e+06
3.67635e+06
3.72393e+06
3.76975e+06
3.81356e+06
3.85517e+06
3.89437e+06
3.93101e+06
3.96496e+06
3.9961e+06
4.02435e+06
4.04967e+06
4.07206e+06
4.09155e+06
4.10825e+06
4.12229e+06
4.13384e+06
4.1431e+06
4.1503e+06
4.15568e+06
4.15954e+06
4.16221e+06
3.47385e+06
3.5257e+06
3.57694e+06
3.62725e+06
3.67635e+06
3.72393e+06
3.76975e+06
3.81356e+06
3.85517e+06
3.89437e+06
3.93101e+06
3.96496e+06
3.9961e+06
4.02435e+06
4.04967e+06
4.07206e+06
4.09155e+06
4.10825e+06
4.12229e+06
4.13384e+06
4.1431e+06
4.1503e+06
4.15568e+06
4.15954e+06
4.16221e+06
3.47385e+06
3.5257e+06
3.57694e+06
3.62725e+06
3.67635e+06
3.72393e+06
3.76975e+06
3.81356e+06
3.85517e+06
3.89437e+06
3.93101e+06
3.96496e+06
3.9961e+06
4.02435e+06
4.04967e+06
4.07206e+06
4.09155e+06
4.10825e+06
4.12229e+06
4.13384e+06
4.1431e+06
4.1503e+06
4.15568e+06
4.15954e+06
4.16221e+06
3.47385e+06
3.5257e+06
3.57694e+06
3.62725e+06
3.67635e+06
3.72393e+06
3.76975e+06
3.81356e+06
3.85517e+06
3.89437e+06
3.93101e+06
3.96496e+06
3.9961e+06
4.02435e+06
4.04967e+06
4.07206e+06
4.09155e+06
4.10825e+06
4.12229e+06
4.13384e+06
4.1431e+06
4.1503e+06
4.15568e+06
4.15954e+06
4.16221e+06
3.47385e+06
3.5257e+06
3.57694e+06
3.62725e+06
3.67635e+06
3.72393e+06
3.76975e+06
3.81356e+06
3.85517e+06
3.89437e+06
3.93101e+06
3.96496e+06
3.9961e+06
4.02435e+06
4.04967e+06
4.07206e+06
4.09155e+06
4.10825e+06
4.12229e+06
4.13384e+06
4.1431e+06
4.1503e+06
4.15568e+06
4.15954e+06
4.16221e+06
3.47385e+06
3.5257e+06
3.57694e+06
3.62725e+06
3.67635e+06
3.72393e+06
3.76975e+06
3.81356e+06
3.85517e+06
3.89437e+06
3.93101e+06
3.96496e+06
3.9961e+06
4.02435e+06
4.04967e+06
4.07206e+06
4.09155e+06
4.10825e+06
4.12229e+06
4.13384e+06
4.1431e+06
4.1503e+06
4.15568e+06
4.15954e+06
4.16221e+06
3.47385e+06
3.5257e+06
3.57694e+06
3.62725e+06
3.67635e+06
3.72393e+06
3.76975e+06
3.81356e+06
3.85517e+06
3.89437e+06
3.93101e+06
3.96496e+06
3.9961e+06
4.02435e+06
4.04967e+06
4.07206e+06
4.09155e+06
4.10825e+06
4.12229e+06
4.13384e+06
4.1431e+06
4.1503e+06
4.15568e+06
4.15954e+06
4.16221e+06
)
;

boundaryField
{
    outletCentralUnloaded
    {
        type            fixedValue;
        value           uniform 3.44728e+06;
    }
    inletCentralUnloaded
    {
        type            zeroGradient;
    }
    outletFuelElement
    {
        type            fixedValue;
        value           uniform 3.44728e+06;
    }
    inletFuelElement
    {
        type            zeroGradient;
    }
    defaultFaces
    {
        type            zeroGradient;
    }
    baffle_master
    {
        type            zeroGradient;
    }
    baffle_slave
    {
        type            zeroGradient;
    }
}


// ************************************************************************* //
