/*--------------------------------*- C++ -*----------------------------------*\
| =========                 |                                                 |
| \\      /  F ield         | OpenFOAM: The Open Source CFD Toolbox           |
|  \\    /   O peration     | Version:  2212                                  |
|   \\  /    A nd           | Website:  www.openfoam.com                      |
|    \\/     M anipulation  |                                                 |
\*---------------------------------------------------------------------------*/
FoamFile
{
    version     2.0;
    format      ascii;
    arch        "LSB;label=32;scalar=64";
    class       volScalarField;
    location    "97/neutroRegion";
    object      TCool;
}
// * * * * * * * * * * * * * * * * * * * * * * * * * * * * * * * * * * * * * //

dimensions      [0 0 0 1 0 0 0];

internalField   nonuniform List<scalar> 
350
(
83.289
83.2896
83.2901
83.2906
83.2911
83.2916
83.2921
83.2925
83.2929
83.2933
83.2937
83.2941
83.2945
83.2949
83.2954
83.2959
83.2964
83.2969
83.2973
83.2977
83.2982
83.2986
83.2991
83.2997
83.3002
83.289
83.2896
83.2901
83.2906
83.2911
83.2916
83.2921
83.2925
83.2929
83.2933
83.2937
83.2941
83.2945
83.2949
83.2954
83.2959
83.2964
83.2969
83.2973
83.2977
83.2982
83.2986
83.2991
83.2997
83.3002
1823.67
1817.49
1798.9
1768.11
1725.49
1671.53
1606.83
1532.16
1448.38
1356.51
1257.7
1153.27
1044.75
933.888
822.635
713.094
607.37
507.428
414.979
331.463
258.126
196.165
146.806
111.212
90.0853
1851.93
1845.96
1827.36
1796.36
1753.31
1698.69
1633.15
1557.43
1472.43
1379.17
1278.8
1172.66
1062.28
949.437
836.124
724.492
616.72
514.84
420.625
335.556
260.902
197.875
147.71
111.576
90.1627
1819.08
1812.88
1794.31
1763.58
1721.05
1667.2
1602.66
1528.17
1444.6
1352.97
1254.42
1150.27
1042.05
931.504
820.579
711.366
605.962
506.32
414.141
330.86
257.721
195.918
146.676
111.159
90.073
1845.57
1839.54
1820.93
1789.97
1747
1692.52
1627.16
1551.67
1466.94
1373.98
1273.96
1168.21
1058.25
945.858
833.014
721.861
614.559
513.126
419.318
334.607
260.258
197.478
147.5
111.492
90.1449
1845.57
1839.54
1820.93
1789.97
1747
1692.52
1627.16
1551.67
1466.94
1373.98
1273.96
1168.21
1058.25
945.858
833.014
721.861
614.559
513.126
419.318
334.607
260.258
197.478
147.5
111.492
90.1449
1819.08
1812.88
1794.31
1763.58
1721.05
1667.21
1602.66
1528.17
1444.6
1352.97
1254.42
1150.27
1042.05
931.505
820.58
711.367
605.963
506.321
414.141
330.86
257.721
195.918
146.676
111.159
90.073
1851.93
1845.96
1827.36
1796.36
1753.31
1698.69
1633.15
1557.43
1472.43
1379.17
1278.8
1172.66
1062.28
949.437
836.124
724.492
616.72
514.84
420.625
335.556
260.902
197.875
147.71
111.576
90.1627
1823.67
1817.49
1798.9
1768.11
1725.49
1671.53
1606.83
1532.15
1448.38
1356.51
1257.7
1153.27
1044.75
933.888
822.635
713.094
607.37
507.428
414.979
331.463
258.126
196.165
146.806
111.212
90.0853
1845.57
1839.54
1820.93
1789.97
1747
1692.52
1627.16
1551.67
1466.94
1373.98
1273.96
1168.21
1058.25
945.858
833.014
721.861
614.559
513.126
419.318
334.607
260.258
197.478
147.5
111.492
90.145
1819.08
1812.88
1794.31
1763.58
1721.05
1667.2
1602.66
1528.17
1444.6
1352.97
1254.42
1150.27
1042.05
931.504
820.579
711.366
605.962
506.32
414.141
330.86
257.721
195.918
146.676
111.159
90.073
1819.08
1812.88
1794.31
1763.58
1721.05
1667.21
1602.66
1528.17
1444.6
1352.97
1254.42
1150.27
1042.05
931.505
820.58
711.367
605.963
506.32
414.141
330.86
257.721
195.918
146.676
111.159
90.073
1845.57
1839.54
1820.93
1789.97
1747
1692.52
1627.16
1551.67
1466.94
1373.98
1273.96
1168.21
1058.25
945.858
833.014
721.861
614.559
513.126
419.317
334.607
260.258
197.478
147.5
111.492
90.1449
)
;

boundaryField
{
    outletCentralUnloaded
    {
        type            zeroGradient;
    }
    inletCentralUnloaded
    {
        type            zeroGradient;
    }
    outletFuelElement
    {
        type            zeroGradient;
    }
    inletFuelElement
    {
        type            zeroGradient;
    }
    defaultFaces
    {
        type            zeroGradient;
    }
}


// ************************************************************************* //
