/*--------------------------------*- C++ -*----------------------------------*\
| =========                 |                                                 |
| \\      /  F ield         | OpenFOAM: The Open Source CFD Toolbox           |
|  \\    /   O peration     | Version:  2212                                  |
|   \\  /    A nd           | Website:  www.openfoam.com                      |
|    \\/     M anipulation  |                                                 |
\*---------------------------------------------------------------------------*/
FoamFile
{
    version     2.0;
    format      ascii;
    arch        "LSB;label=32;scalar=64";
    class       volTensorField;
    location    "140/fluidRegion";
    object      KdTotU;
}
// * * * * * * * * * * * * * * * * * * * * * * * * * * * * * * * * * * * * * //

dimensions      [1 -2 -2 0 0 0 0];

internalField   nonuniform List<tensor> 
17
(
(5252.12 0 0 0 5252.12 0 0 0 5252.12)
(5252.12 0 0 0 5252.12 0 0 0 5252.12)
(7107.95 0 0 0 7107.95 0 0 0 7107.95)
(8720.4 0 0 0 8720.4 0 0 0 8720.4)
(9355.75 0 0 0 9355.75 0 0 0 9355.75)
(9776.2 0 0 0 9776.2 0 0 0 9776.2)
(10103.9 0 0 0 10103.9 0 0 0 10103.9)
(10404.5 0 0 0 10404.5 0 0 0 10404.5)
(10703.3 0 0 0 10703.3 0 0 0 10703.3)
(11014.7 0 0 0 11014.7 0 0 0 11014.7)
(11347.4 0 0 0 11347.4 0 0 0 11347.4)
(11708.2 0 0 0 11708.2 0 0 0 11708.2)
(12102.8 0 0 0 12102.8 0 0 0 12102.8)
(12537.3 0 0 0 12537.3 0 0 0 12537.3)
(13018 0 0 0 13018 0 0 0 13018)
(13553.9 0 0 0 13553.9 0 0 0 13553.9)
(14131.9 0 0 0 14131.9 0 0 0 14131.9)
)
;

boundaryField
{
    inlet
    {
        type            zeroGradient;
    }
    outlet
    {
        type            zeroGradient;
    }
    fixedWalls
    {
        type            zeroGradient;
    }
}


// ************************************************************************* //
