/*--------------------------------*- C++ -*----------------------------------*\
| =========                 |                                                 |
| \\      /  F ield         | OpenFOAM: The Open Source CFD Toolbox           |
|  \\    /   O peration     | Version:  2212                                  |
|   \\  /    A nd           | Website:  www.openfoam.com                      |
|    \\/     M anipulation  |                                                 |
\*---------------------------------------------------------------------------*/
FoamFile
{
    version     2.0;
    format      ascii;
    arch        "LSB;label=32;scalar=64";
    class       volScalarField;
    location    "140/fluidRegion";
    object      p;
}
// * * * * * * * * * * * * * * * * * * * * * * * * * * * * * * * * * * * * * //

dimensions      [1 -1 -2 0 0 0 0];

internalField   nonuniform List<scalar> 
17
(
1.47814e+07
1.47805e+07
1.47789e+07
1.47762e+07
1.47732e+07
1.47702e+07
1.47671e+07
1.4764e+07
1.47608e+07
1.47575e+07
1.47541e+07
1.47507e+07
1.47471e+07
1.47435e+07
1.47398e+07
1.47359e+07
1.47319e+07
)
;

boundaryField
{
    inlet
    {
        type            calculated;
        value           uniform 1.47818e+07;
    }
    outlet
    {
        type            calculated;
        value           uniform 1.47299e+07;
    }
    fixedWalls
    {
        type            calculated;
        value           nonuniform List<scalar> 
68
(
1.47814e+07
1.47805e+07
1.47789e+07
1.47762e+07
1.47732e+07
1.47702e+07
1.47671e+07
1.4764e+07
1.47608e+07
1.47575e+07
1.47541e+07
1.47507e+07
1.47471e+07
1.47435e+07
1.47398e+07
1.47359e+07
1.47319e+07
1.47814e+07
1.47805e+07
1.47789e+07
1.47762e+07
1.47732e+07
1.47702e+07
1.47671e+07
1.4764e+07
1.47608e+07
1.47575e+07
1.47541e+07
1.47507e+07
1.47471e+07
1.47435e+07
1.47398e+07
1.47359e+07
1.47319e+07
1.47814e+07
1.47805e+07
1.47789e+07
1.47762e+07
1.47732e+07
1.47702e+07
1.47671e+07
1.4764e+07
1.47608e+07
1.47575e+07
1.47541e+07
1.47507e+07
1.47471e+07
1.47435e+07
1.47398e+07
1.47359e+07
1.47319e+07
1.47814e+07
1.47805e+07
1.47789e+07
1.47762e+07
1.47732e+07
1.47702e+07
1.47671e+07
1.4764e+07
1.47608e+07
1.47575e+07
1.47541e+07
1.47507e+07
1.47471e+07
1.47435e+07
1.47398e+07
1.47359e+07
1.47319e+07
)
;
    }
}


// ************************************************************************* //
