/*--------------------------------*- C++ -*----------------------------------*\
| =========                 |                                                 |
| \\      /  F ield         | OpenFOAM: The Open Source CFD Toolbox           |
|  \\    /   O peration     | Version:  2212                                  |
|   \\  /    A nd           | Website:  www.openfoam.com                      |
|    \\/     M anipulation  |                                                 |
\*---------------------------------------------------------------------------*/
FoamFile
{
    version     2.0;
    format      ascii;
    arch        "LSB;label=32;scalar=64";
    class       volScalarField;
    location    "140/fluidRegion";
    object      p_rgh;
}
// * * * * * * * * * * * * * * * * * * * * * * * * * * * * * * * * * * * * * //

dimensions      [1 -1 -2 0 0 0 0];

internalField   nonuniform List<scalar> 
17
(
1.47815e+07
1.47809e+07
1.47799e+07
1.47778e+07
1.47754e+07
1.4773e+07
1.47706e+07
1.4768e+07
1.47654e+07
1.47627e+07
1.476e+07
1.47571e+07
1.47542e+07
1.47511e+07
1.47479e+07
1.47446e+07
1.47412e+07
)
;

boundaryField
{
    inlet
    {
        type            fixedFluxPressure;
        gradient        uniform 12087.9;
        value           uniform 1.47818e+07;
    }
    outlet
    {
        type            fixedValue;
        value           uniform 1.47394e+07;
    }
    fixedWalls
    {
        type            fixedFluxPressure;
        gradient        uniform 0;
        value           nonuniform List<scalar> 
68
(
1.47815e+07
1.47809e+07
1.47799e+07
1.47778e+07
1.47754e+07
1.4773e+07
1.47706e+07
1.4768e+07
1.47654e+07
1.47627e+07
1.476e+07
1.47571e+07
1.47542e+07
1.47511e+07
1.47479e+07
1.47446e+07
1.47412e+07
1.47815e+07
1.47809e+07
1.47799e+07
1.47778e+07
1.47754e+07
1.4773e+07
1.47706e+07
1.4768e+07
1.47654e+07
1.47627e+07
1.476e+07
1.47571e+07
1.47542e+07
1.47511e+07
1.47479e+07
1.47446e+07
1.47412e+07
1.47815e+07
1.47809e+07
1.47799e+07
1.47778e+07
1.47754e+07
1.4773e+07
1.47706e+07
1.4768e+07
1.47654e+07
1.47627e+07
1.476e+07
1.47571e+07
1.47542e+07
1.47511e+07
1.47479e+07
1.47446e+07
1.47412e+07
1.47815e+07
1.47809e+07
1.47799e+07
1.47778e+07
1.47754e+07
1.4773e+07
1.47706e+07
1.4768e+07
1.47654e+07
1.47627e+07
1.476e+07
1.47571e+07
1.47542e+07
1.47511e+07
1.47479e+07
1.47446e+07
1.47412e+07
)
;
    }
}


// ************************************************************************* //
