/*--------------------------------*- C++ -*----------------------------------*\
| =========                 |                                                 |
| \\      /  F ield         | OpenFOAM: The Open Source CFD Toolbox           |
|  \\    /   O peration     | Version:  2212                                  |
|   \\  /    A nd           | Website:  www.openfoam.com                      |
|    \\/     M anipulation  |                                                 |
\*---------------------------------------------------------------------------*/
FoamFile
{
    version     2.0;
    format      ascii;
    arch        "LSB;label=32;scalar=64";
    class       volTensorField;
    location    "60/fluidRegion";
    object      Kd;
}
// * * * * * * * * * * * * * * * * * * * * * * * * * * * * * * * * * * * * * //

dimensions      [1 -3 -1 0 0 0 0];

internalField   nonuniform List<tensor> 
350
(
(84.7383 0 0 0 84.7383 0 0 0 84.7383)
(84.7392 0 0 0 84.7392 0 0 0 84.7392)
(84.7406 0 0 0 84.7406 0 0 0 84.7406)
(84.742 0 0 0 84.742 0 0 0 84.742)
(84.7431 0 0 0 84.7431 0 0 0 84.7431)
(84.7438 0 0 0 84.7438 0 0 0 84.7438)
(84.7441 0 0 0 84.7441 0 0 0 84.7441)
(84.7443 0 0 0 84.7443 0 0 0 84.7443)
(84.7444 0 0 0 84.7444 0 0 0 84.7444)
(84.7442 0 0 0 84.7442 0 0 0 84.7442)
(84.7439 0 0 0 84.7439 0 0 0 84.7439)
(84.7433 0 0 0 84.7433 0 0 0 84.7433)
(84.7426 0 0 0 84.7426 0 0 0 84.7426)
(84.742 0 0 0 84.742 0 0 0 84.742)
(84.7416 0 0 0 84.7416 0 0 0 84.7416)
(84.7413 0 0 0 84.7413 0 0 0 84.7413)
(84.7409 0 0 0 84.7409 0 0 0 84.7409)
(84.7404 0 0 0 84.7404 0 0 0 84.7404)
(84.7396 0 0 0 84.7396 0 0 0 84.7396)
(84.7388 0 0 0 84.7388 0 0 0 84.7388)
(84.7383 0 0 0 84.7383 0 0 0 84.7383)
(84.7382 0 0 0 84.7382 0 0 0 84.7382)
(84.7388 0 0 0 84.7388 0 0 0 84.7388)
(84.7399 0 0 0 84.7399 0 0 0 84.7399)
(84.8732 0 0 0 84.8732 0 0 0 84.8732)
(84.7383 0 0 0 84.7383 0 0 0 84.7383)
(84.7392 0 0 0 84.7392 0 0 0 84.7392)
(84.7406 0 0 0 84.7406 0 0 0 84.7406)
(84.742 0 0 0 84.742 0 0 0 84.742)
(84.7431 0 0 0 84.7431 0 0 0 84.7431)
(84.7438 0 0 0 84.7438 0 0 0 84.7438)
(84.7441 0 0 0 84.7441 0 0 0 84.7441)
(84.7443 0 0 0 84.7443 0 0 0 84.7443)
(84.7444 0 0 0 84.7444 0 0 0 84.7444)
(84.7442 0 0 0 84.7442 0 0 0 84.7442)
(84.7439 0 0 0 84.7439 0 0 0 84.7439)
(84.7433 0 0 0 84.7433 0 0 0 84.7433)
(84.7426 0 0 0 84.7426 0 0 0 84.7426)
(84.742 0 0 0 84.742 0 0 0 84.742)
(84.7416 0 0 0 84.7416 0 0 0 84.7416)
(84.7413 0 0 0 84.7413 0 0 0 84.7413)
(84.7409 0 0 0 84.7409 0 0 0 84.7409)
(84.7404 0 0 0 84.7404 0 0 0 84.7404)
(84.7396 0 0 0 84.7396 0 0 0 84.7396)
(84.7388 0 0 0 84.7388 0 0 0 84.7388)
(84.7383 0 0 0 84.7383 0 0 0 84.7383)
(84.7382 0 0 0 84.7382 0 0 0 84.7382)
(84.7388 0 0 0 84.7388 0 0 0 84.7388)
(84.7399 0 0 0 84.7399 0 0 0 84.7399)
(84.8732 0 0 0 84.8732 0 0 0 84.8732)
(682.643 0 0 0 682.643 0 0 0 682.643)
(682.189 0 0 0 682.189 0 0 0 682.189)
(682.2 0 0 0 682.2 0 0 0 682.2)
(682.202 0 0 0 682.202 0 0 0 682.202)
(682.193 0 0 0 682.193 0 0 0 682.193)
(682.171 0 0 0 682.171 0 0 0 682.171)
(682.135 0 0 0 682.135 0 0 0 682.135)
(682.083 0 0 0 682.083 0 0 0 682.083)
(682.014 0 0 0 682.014 0 0 0 682.014)
(681.924 0 0 0 681.924 0 0 0 681.924)
(681.814 0 0 0 681.814 0 0 0 681.814)
(681.683 0 0 0 681.683 0 0 0 681.683)
(681.531 0 0 0 681.531 0 0 0 681.531)
(681.358 0 0 0 681.358 0 0 0 681.358)
(681.161 0 0 0 681.161 0 0 0 681.161)
(680.932 0 0 0 680.932 0 0 0 680.932)
(680.652 0 0 0 680.652 0 0 0 680.652)
(680.305 0 0 0 680.305 0 0 0 680.305)
(679.883 0 0 0 679.883 0 0 0 679.883)
(679.44 0 0 0 679.44 0 0 0 679.44)
(679.156 0 0 0 679.156 0 0 0 679.156)
(679.583 0 0 0 679.583 0 0 0 679.583)
(682.052 0 0 0 682.052 0 0 0 682.052)
(688.933 0 0 0 688.933 0 0 0 688.933)
(693.448 0 0 0 693.448 0 0 0 693.448)
(678.103 0 0 0 678.103 0 0 0 678.103)
(677.577 0 0 0 677.577 0 0 0 677.577)
(677.55 0 0 0 677.55 0 0 0 677.55)
(677.513 0 0 0 677.513 0 0 0 677.513)
(677.468 0 0 0 677.468 0 0 0 677.468)
(677.413 0 0 0 677.413 0 0 0 677.413)
(677.346 0 0 0 677.346 0 0 0 677.346)
(677.266 0 0 0 677.266 0 0 0 677.266)
(677.169 0 0 0 677.169 0 0 0 677.169)
(677.056 0 0 0 677.056 0 0 0 677.056)
(676.926 0 0 0 676.926 0 0 0 676.926)
(676.783 0 0 0 676.783 0 0 0 676.783)
(676.633 0 0 0 676.633 0 0 0 676.633)
(676.486 0 0 0 676.486 0 0 0 676.486)
(676.35 0 0 0 676.35 0 0 0 676.35)
(676.222 0 0 0 676.222 0 0 0 676.222)
(676.094 0 0 0 676.094 0 0 0 676.094)
(675.947 0 0 0 675.947 0 0 0 675.947)
(675.776 0 0 0 675.776 0 0 0 675.776)
(675.637 0 0 0 675.637 0 0 0 675.637)
(675.726 0 0 0 675.726 0 0 0 675.726)
(676.624 0 0 0 676.624 0 0 0 676.624)
(679.722 0 0 0 679.722 0 0 0 679.722)
(687.444 0 0 0 687.444 0 0 0 687.444)
(692.963 0 0 0 692.963 0 0 0 692.963)
(683.401 0 0 0 683.401 0 0 0 683.401)
(682.943 0 0 0 682.943 0 0 0 682.943)
(682.959 0 0 0 682.959 0 0 0 682.959)
(682.964 0 0 0 682.964 0 0 0 682.964)
(682.956 0 0 0 682.956 0 0 0 682.956)
(682.936 0 0 0 682.936 0 0 0 682.936)
(682.901 0 0 0 682.901 0 0 0 682.901)
(682.851 0 0 0 682.851 0 0 0 682.851)
(682.782 0 0 0 682.782 0 0 0 682.782)
(682.692 0 0 0 682.692 0 0 0 682.692)
(682.581 0 0 0 682.581 0 0 0 682.581)
(682.446 0 0 0 682.446 0 0 0 682.446)
(682.288 0 0 0 682.288 0 0 0 682.288)
(682.104 0 0 0 682.104 0 0 0 682.104)
(681.891 0 0 0 681.891 0 0 0 681.891)
(681.638 0 0 0 681.638 0 0 0 681.638)
(681.327 0 0 0 681.327 0 0 0 681.327)
(680.939 0 0 0 680.939 0 0 0 680.939)
(680.468 0 0 0 680.468 0 0 0 680.468)
(679.965 0 0 0 679.965 0 0 0 679.965)
(679.609 0 0 0 679.609 0 0 0 679.609)
(679.945 0 0 0 679.945 0 0 0 679.945)
(682.299 0 0 0 682.299 0 0 0 682.299)
(689.045 0 0 0 689.045 0 0 0 689.045)
(693.465 0 0 0 693.465 0 0 0 693.465)
(679.119 0 0 0 679.119 0 0 0 679.119)
(678.613 0 0 0 678.613 0 0 0 678.613)
(678.597 0 0 0 678.597 0 0 0 678.597)
(678.571 0 0 0 678.571 0 0 0 678.571)
(678.536 0 0 0 678.536 0 0 0 678.536)
(678.49 0 0 0 678.49 0 0 0 678.49)
(678.432 0 0 0 678.432 0 0 0 678.432)
(678.36 0 0 0 678.36 0 0 0 678.36)
(678.272 0 0 0 678.272 0 0 0 678.272)
(678.166 0 0 0 678.166 0 0 0 678.166)
(678.042 0 0 0 678.042 0 0 0 678.042)
(677.903 0 0 0 677.903 0 0 0 677.903)
(677.755 0 0 0 677.755 0 0 0 677.755)
(677.604 0 0 0 677.604 0 0 0 677.604)
(677.455 0 0 0 677.455 0 0 0 677.455)
(677.306 0 0 0 677.306 0 0 0 677.306)
(677.145 0 0 0 677.145 0 0 0 677.145)
(676.954 0 0 0 676.954 0 0 0 676.954)
(676.727 0 0 0 676.727 0 0 0 676.727)
(676.52 0 0 0 676.52 0 0 0 676.52)
(676.525 0 0 0 676.525 0 0 0 676.525)
(677.317 0 0 0 677.317 0 0 0 677.317)
(680.272 0 0 0 680.272 0 0 0 680.272)
(687.803 0 0 0 687.803 0 0 0 687.803)
(693.083 0 0 0 693.083 0 0 0 693.083)
(679.119 0 0 0 679.119 0 0 0 679.119)
(678.613 0 0 0 678.613 0 0 0 678.613)
(678.597 0 0 0 678.597 0 0 0 678.597)
(678.571 0 0 0 678.571 0 0 0 678.571)
(678.536 0 0 0 678.536 0 0 0 678.536)
(678.49 0 0 0 678.49 0 0 0 678.49)
(678.432 0 0 0 678.432 0 0 0 678.432)
(678.36 0 0 0 678.36 0 0 0 678.36)
(678.272 0 0 0 678.272 0 0 0 678.272)
(678.166 0 0 0 678.166 0 0 0 678.166)
(678.042 0 0 0 678.042 0 0 0 678.042)
(677.903 0 0 0 677.903 0 0 0 677.903)
(677.755 0 0 0 677.755 0 0 0 677.755)
(677.604 0 0 0 677.604 0 0 0 677.604)
(677.455 0 0 0 677.455 0 0 0 677.455)
(677.306 0 0 0 677.306 0 0 0 677.306)
(677.145 0 0 0 677.145 0 0 0 677.145)
(676.954 0 0 0 676.954 0 0 0 676.954)
(676.726 0 0 0 676.726 0 0 0 676.726)
(676.52 0 0 0 676.52 0 0 0 676.52)
(676.525 0 0 0 676.525 0 0 0 676.525)
(677.317 0 0 0 677.317 0 0 0 677.317)
(680.272 0 0 0 680.272 0 0 0 680.272)
(687.803 0 0 0 687.803 0 0 0 687.803)
(693.083 0 0 0 693.083 0 0 0 693.083)
(683.401 0 0 0 683.401 0 0 0 683.401)
(682.943 0 0 0 682.943 0 0 0 682.943)
(682.959 0 0 0 682.959 0 0 0 682.959)
(682.963 0 0 0 682.963 0 0 0 682.963)
(682.956 0 0 0 682.956 0 0 0 682.956)
(682.936 0 0 0 682.936 0 0 0 682.936)
(682.901 0 0 0 682.901 0 0 0 682.901)
(682.85 0 0 0 682.85 0 0 0 682.85)
(682.781 0 0 0 682.781 0 0 0 682.781)
(682.692 0 0 0 682.692 0 0 0 682.692)
(682.58 0 0 0 682.58 0 0 0 682.58)
(682.446 0 0 0 682.446 0 0 0 682.446)
(682.287 0 0 0 682.287 0 0 0 682.287)
(682.104 0 0 0 682.104 0 0 0 682.104)
(681.891 0 0 0 681.891 0 0 0 681.891)
(681.638 0 0 0 681.638 0 0 0 681.638)
(681.326 0 0 0 681.326 0 0 0 681.326)
(680.938 0 0 0 680.938 0 0 0 680.938)
(680.467 0 0 0 680.467 0 0 0 680.467)
(679.964 0 0 0 679.964 0 0 0 679.964)
(679.608 0 0 0 679.608 0 0 0 679.608)
(679.943 0 0 0 679.943 0 0 0 679.943)
(682.298 0 0 0 682.298 0 0 0 682.298)
(689.044 0 0 0 689.044 0 0 0 689.044)
(693.464 0 0 0 693.464 0 0 0 693.464)
(678.103 0 0 0 678.103 0 0 0 678.103)
(677.577 0 0 0 677.577 0 0 0 677.577)
(677.55 0 0 0 677.55 0 0 0 677.55)
(677.513 0 0 0 677.513 0 0 0 677.513)
(677.468 0 0 0 677.468 0 0 0 677.468)
(677.413 0 0 0 677.413 0 0 0 677.413)
(677.346 0 0 0 677.346 0 0 0 677.346)
(677.266 0 0 0 677.266 0 0 0 677.266)
(677.169 0 0 0 677.169 0 0 0 677.169)
(677.056 0 0 0 677.056 0 0 0 677.056)
(676.926 0 0 0 676.926 0 0 0 676.926)
(676.783 0 0 0 676.783 0 0 0 676.783)
(676.633 0 0 0 676.633 0 0 0 676.633)
(676.486 0 0 0 676.486 0 0 0 676.486)
(676.35 0 0 0 676.35 0 0 0 676.35)
(676.222 0 0 0 676.222 0 0 0 676.222)
(676.094 0 0 0 676.094 0 0 0 676.094)
(675.947 0 0 0 675.947 0 0 0 675.947)
(675.776 0 0 0 675.776 0 0 0 675.776)
(675.637 0 0 0 675.637 0 0 0 675.637)
(675.726 0 0 0 675.726 0 0 0 675.726)
(676.624 0 0 0 676.624 0 0 0 676.624)
(679.722 0 0 0 679.722 0 0 0 679.722)
(687.443 0 0 0 687.443 0 0 0 687.443)
(692.963 0 0 0 692.963 0 0 0 692.963)
(682.643 0 0 0 682.643 0 0 0 682.643)
(682.189 0 0 0 682.189 0 0 0 682.189)
(682.2 0 0 0 682.2 0 0 0 682.2)
(682.202 0 0 0 682.202 0 0 0 682.202)
(682.193 0 0 0 682.193 0 0 0 682.193)
(682.171 0 0 0 682.171 0 0 0 682.171)
(682.135 0 0 0 682.135 0 0 0 682.135)
(682.083 0 0 0 682.083 0 0 0 682.083)
(682.014 0 0 0 682.014 0 0 0 682.014)
(681.924 0 0 0 681.924 0 0 0 681.924)
(681.814 0 0 0 681.814 0 0 0 681.814)
(681.683 0 0 0 681.683 0 0 0 681.683)
(681.531 0 0 0 681.531 0 0 0 681.531)
(681.358 0 0 0 681.358 0 0 0 681.358)
(681.161 0 0 0 681.161 0 0 0 681.161)
(680.932 0 0 0 680.932 0 0 0 680.932)
(680.652 0 0 0 680.652 0 0 0 680.652)
(680.305 0 0 0 680.305 0 0 0 680.305)
(679.883 0 0 0 679.883 0 0 0 679.883)
(679.44 0 0 0 679.44 0 0 0 679.44)
(679.156 0 0 0 679.156 0 0 0 679.156)
(679.582 0 0 0 679.582 0 0 0 679.582)
(682.051 0 0 0 682.051 0 0 0 682.051)
(688.933 0 0 0 688.933 0 0 0 688.933)
(693.448 0 0 0 693.448 0 0 0 693.448)
(679.119 0 0 0 679.119 0 0 0 679.119)
(678.613 0 0 0 678.613 0 0 0 678.613)
(678.597 0 0 0 678.597 0 0 0 678.597)
(678.571 0 0 0 678.571 0 0 0 678.571)
(678.536 0 0 0 678.536 0 0 0 678.536)
(678.49 0 0 0 678.49 0 0 0 678.49)
(678.432 0 0 0 678.432 0 0 0 678.432)
(678.36 0 0 0 678.36 0 0 0 678.36)
(678.272 0 0 0 678.272 0 0 0 678.272)
(678.166 0 0 0 678.166 0 0 0 678.166)
(678.042 0 0 0 678.042 0 0 0 678.042)
(677.903 0 0 0 677.903 0 0 0 677.903)
(677.755 0 0 0 677.755 0 0 0 677.755)
(677.604 0 0 0 677.604 0 0 0 677.604)
(677.455 0 0 0 677.455 0 0 0 677.455)
(677.306 0 0 0 677.306 0 0 0 677.306)
(677.145 0 0 0 677.145 0 0 0 677.145)
(676.954 0 0 0 676.954 0 0 0 676.954)
(676.726 0 0 0 676.726 0 0 0 676.726)
(676.52 0 0 0 676.52 0 0 0 676.52)
(676.525 0 0 0 676.525 0 0 0 676.525)
(677.317 0 0 0 677.317 0 0 0 677.317)
(680.272 0 0 0 680.272 0 0 0 680.272)
(687.803 0 0 0 687.803 0 0 0 687.803)
(693.083 0 0 0 693.083 0 0 0 693.083)
(683.401 0 0 0 683.401 0 0 0 683.401)
(682.943 0 0 0 682.943 0 0 0 682.943)
(682.959 0 0 0 682.959 0 0 0 682.959)
(682.964 0 0 0 682.964 0 0 0 682.964)
(682.956 0 0 0 682.956 0 0 0 682.956)
(682.936 0 0 0 682.936 0 0 0 682.936)
(682.901 0 0 0 682.901 0 0 0 682.901)
(682.851 0 0 0 682.851 0 0 0 682.851)
(682.782 0 0 0 682.782 0 0 0 682.782)
(682.692 0 0 0 682.692 0 0 0 682.692)
(682.581 0 0 0 682.581 0 0 0 682.581)
(682.446 0 0 0 682.446 0 0 0 682.446)
(682.288 0 0 0 682.288 0 0 0 682.288)
(682.104 0 0 0 682.104 0 0 0 682.104)
(681.891 0 0 0 681.891 0 0 0 681.891)
(681.638 0 0 0 681.638 0 0 0 681.638)
(681.327 0 0 0 681.327 0 0 0 681.327)
(680.939 0 0 0 680.939 0 0 0 680.939)
(680.468 0 0 0 680.468 0 0 0 680.468)
(679.965 0 0 0 679.965 0 0 0 679.965)
(679.609 0 0 0 679.609 0 0 0 679.609)
(679.945 0 0 0 679.945 0 0 0 679.945)
(682.3 0 0 0 682.3 0 0 0 682.3)
(689.046 0 0 0 689.046 0 0 0 689.046)
(693.465 0 0 0 693.465 0 0 0 693.465)
(683.401 0 0 0 683.401 0 0 0 683.401)
(682.943 0 0 0 682.943 0 0 0 682.943)
(682.959 0 0 0 682.959 0 0 0 682.959)
(682.963 0 0 0 682.963 0 0 0 682.963)
(682.956 0 0 0 682.956 0 0 0 682.956)
(682.936 0 0 0 682.936 0 0 0 682.936)
(682.901 0 0 0 682.901 0 0 0 682.901)
(682.85 0 0 0 682.85 0 0 0 682.85)
(682.781 0 0 0 682.781 0 0 0 682.781)
(682.692 0 0 0 682.692 0 0 0 682.692)
(682.58 0 0 0 682.58 0 0 0 682.58)
(682.446 0 0 0 682.446 0 0 0 682.446)
(682.287 0 0 0 682.287 0 0 0 682.287)
(682.104 0 0 0 682.104 0 0 0 682.104)
(681.891 0 0 0 681.891 0 0 0 681.891)
(681.638 0 0 0 681.638 0 0 0 681.638)
(681.326 0 0 0 681.326 0 0 0 681.326)
(680.938 0 0 0 680.938 0 0 0 680.938)
(680.467 0 0 0 680.467 0 0 0 680.467)
(679.964 0 0 0 679.964 0 0 0 679.964)
(679.608 0 0 0 679.608 0 0 0 679.608)
(679.943 0 0 0 679.943 0 0 0 679.943)
(682.298 0 0 0 682.298 0 0 0 682.298)
(689.044 0 0 0 689.044 0 0 0 689.044)
(693.464 0 0 0 693.464 0 0 0 693.464)
(679.119 0 0 0 679.119 0 0 0 679.119)
(678.613 0 0 0 678.613 0 0 0 678.613)
(678.597 0 0 0 678.597 0 0 0 678.597)
(678.571 0 0 0 678.571 0 0 0 678.571)
(678.536 0 0 0 678.536 0 0 0 678.536)
(678.49 0 0 0 678.49 0 0 0 678.49)
(678.433 0 0 0 678.433 0 0 0 678.433)
(678.36 0 0 0 678.36 0 0 0 678.36)
(678.272 0 0 0 678.272 0 0 0 678.272)
(678.166 0 0 0 678.166 0 0 0 678.166)
(678.042 0 0 0 678.042 0 0 0 678.042)
(677.903 0 0 0 677.903 0 0 0 677.903)
(677.755 0 0 0 677.755 0 0 0 677.755)
(677.604 0 0 0 677.604 0 0 0 677.604)
(677.455 0 0 0 677.455 0 0 0 677.455)
(677.306 0 0 0 677.306 0 0 0 677.306)
(677.145 0 0 0 677.145 0 0 0 677.145)
(676.954 0 0 0 676.954 0 0 0 676.954)
(676.726 0 0 0 676.726 0 0 0 676.726)
(676.52 0 0 0 676.52 0 0 0 676.52)
(676.524 0 0 0 676.524 0 0 0 676.524)
(677.316 0 0 0 677.316 0 0 0 677.316)
(680.271 0 0 0 680.271 0 0 0 680.271)
(687.803 0 0 0 687.803 0 0 0 687.803)
(693.083 0 0 0 693.083 0 0 0 693.083)
)
;

boundaryField
{
    outletCentralUnloaded
    {
        type            zeroGradient;
    }
    inletCentralUnloaded
    {
        type            zeroGradient;
    }
    outletFuelElement
    {
        type            zeroGradient;
    }
    inletFuelElement
    {
        type            zeroGradient;
    }
    defaultFaces
    {
        type            zeroGradient;
    }
    baffle_master
    {
        type            zeroGradient;
    }
    baffle_slave
    {
        type            zeroGradient;
    }
}


// ************************************************************************* //
