/*--------------------------------*- C++ -*----------------------------------*\
| =========                 |                                                 |
| \\      /  F ield         | OpenFOAM: The Open Source CFD Toolbox           |
|  \\    /   O peration     | Version:  2212                                  |
|   \\  /    A nd           | Website:  www.openfoam.com                      |
|    \\/     M anipulation  |                                                 |
\*---------------------------------------------------------------------------*/
FoamFile
{
    version     2.0;
    format      ascii;
    arch        "LSB;label=32;scalar=64";
    class       volScalarField;
    location    "60/fluidRegion";
    object      nut;
}
// * * * * * * * * * * * * * * * * * * * * * * * * * * * * * * * * * * * * * //

dimensions      [0 2 -1 0 0 0 0];

internalField   nonuniform List<scalar> 
350
(
0.000537597
0.000537553
0.000537512
0.000537472
0.000537431
0.000537388
0.000537344
0.000537299
0.000537256
0.000537214
0.000537173
0.000537134
0.000537096
0.000537061
0.00053703
0.000537004
0.000536985
0.000536978
0.000536991
0.000537036
0.000537134
0.000537312
0.000537613
0.000538101
0.00053949
0.000537597
0.000537553
0.000537512
0.000537472
0.000537431
0.000537388
0.000537344
0.000537299
0.000537256
0.000537214
0.000537173
0.000537134
0.000537096
0.000537061
0.00053703
0.000537004
0.000536985
0.000536978
0.000536991
0.000537036
0.000537134
0.000537312
0.000537613
0.000538101
0.00053949
0.0104212
0.0102018
0.00993019
0.00960271
0.00922429
0.0088001
0.0083355
0.00783596
0.00730714
0.00675489
0.00618538
0.00560518
0.00502143
0.00444187
0.00387477
0.00332863
0.00281161
0.00233109
0.0018933
0.00150347
0.00116618
0.000885903
0.000666896
0.000511766
0.000416365
0.0104886
0.010268
0.00999548
0.00966653
0.00928622
0.00885976
0.00839251
0.00788998
0.00735787
0.00680204
0.00622867
0.00564437
0.00505631
0.00447232
0.00390075
0.0033502
0.00282898
0.00234457
0.00190331
0.00151047
0.00117069
0.000888463
0.000668084
0.000512148
0.000416431
0.0104103
0.0101909
0.00991952
0.00959231
0.00921423
0.00879045
0.0083263
0.00782727
0.00729901
0.00674737
0.00617849
0.00559896
0.0050159
0.00443705
0.00387067
0.00332522
0.00280886
0.00232894
0.00189168
0.00150231
0.0011654
0.000885413
0.000666614
0.000511618
0.000416316
0.0104737
0.0102534
0.00998098
0.00965233
0.00927241
0.00884643
0.00837974
0.00787786
0.00734646
0.00679142
0.0062189
0.00563551
0.00504841
0.00446541
0.00389484
0.00334529
0.00282502
0.0023415
0.00190103
0.00150887
0.00116967
0.000887886
0.000667822
0.000512071
0.000416422
0.0104737
0.0102534
0.00998098
0.00965233
0.00927241
0.00884643
0.00837974
0.00787786
0.00734646
0.00679142
0.0062189
0.00563551
0.00504841
0.00446541
0.00389484
0.00334529
0.00282502
0.0023415
0.00190103
0.00150887
0.00116967
0.000887886
0.000667822
0.000512071
0.000416422
0.0104103
0.0101909
0.00991952
0.00959232
0.00921424
0.00879046
0.00832631
0.00782728
0.00729902
0.00674737
0.00617849
0.00559896
0.0050159
0.00443705
0.00387067
0.00332522
0.00280886
0.00232894
0.00189168
0.00150231
0.0011654
0.000885412
0.000666612
0.000511616
0.000416315
0.0104886
0.010268
0.00999548
0.00966653
0.00928622
0.00885976
0.00839251
0.00788998
0.00735787
0.00680204
0.00622867
0.00564437
0.00505631
0.00447232
0.00390075
0.0033502
0.00282898
0.00234457
0.00190331
0.00151047
0.00117069
0.000888462
0.000668084
0.000512148
0.000416431
0.0104212
0.0102018
0.00993019
0.0096027
0.00922429
0.0088001
0.0083355
0.00783596
0.00730714
0.00675489
0.00618538
0.00560518
0.00502143
0.00444187
0.00387477
0.00332863
0.00281161
0.00233109
0.0018933
0.00150347
0.00116618
0.000885901
0.000666893
0.000511764
0.000416362
0.0104737
0.0102534
0.00998098
0.00965233
0.00927241
0.00884643
0.00837974
0.00787786
0.00734646
0.00679142
0.0062189
0.00563551
0.00504841
0.00446541
0.00389484
0.00334529
0.00282502
0.0023415
0.00190103
0.00150887
0.00116967
0.000887886
0.000667822
0.000512071
0.000416421
0.0104103
0.0101909
0.00991952
0.00959231
0.00921423
0.00879045
0.0083263
0.00782727
0.00729901
0.00674737
0.00617849
0.00559896
0.0050159
0.00443705
0.00387067
0.00332522
0.00280886
0.00232894
0.00189169
0.00150231
0.0011654
0.000885416
0.000666618
0.000511623
0.000416321
0.0104103
0.0101909
0.00991952
0.00959232
0.00921424
0.00879046
0.00832631
0.00782728
0.00729901
0.00674737
0.00617849
0.00559896
0.0050159
0.00443705
0.00387067
0.00332522
0.00280886
0.00232894
0.00189168
0.00150231
0.0011654
0.000885412
0.000666612
0.000511617
0.000416316
0.0104737
0.0102534
0.00998098
0.00965233
0.00927241
0.00884643
0.00837974
0.00787786
0.00734646
0.00679142
0.0062189
0.00563551
0.00504841
0.00446541
0.00389484
0.00334529
0.00282502
0.0023415
0.00190103
0.00150887
0.00116966
0.000887883
0.000667819
0.000512068
0.000416418
)
;

boundaryField
{
    outletCentralUnloaded
    {
        type            zeroGradient;
    }
    inletCentralUnloaded
    {
        type            zeroGradient;
    }
    outletFuelElement
    {
        type            zeroGradient;
    }
    inletFuelElement
    {
        type            zeroGradient;
    }
    defaultFaces
    {
        type            zeroGradient;
    }
    baffle_master
    {
        type            calculated;
        value           nonuniform List<scalar> 
150
(
0.000537597
0.000537597
0.000537597
0.000537553
0.000537553
0.000537553
0.000537512
0.000537512
0.000537512
0.000537472
0.000537472
0.000537472
0.000537431
0.000537431
0.000537431
0.000537388
0.000537388
0.000537388
0.000537344
0.000537344
0.000537344
0.000537299
0.000537299
0.000537299
0.000537256
0.000537256
0.000537256
0.000537214
0.000537214
0.000537214
0.000537173
0.000537173
0.000537173
0.000537134
0.000537134
0.000537134
0.000537096
0.000537096
0.000537096
0.000537061
0.000537061
0.000537061
0.00053703
0.00053703
0.00053703
0.000537004
0.000537004
0.000537004
0.000536985
0.000536985
0.000536985
0.000536978
0.000536978
0.000536978
0.000536991
0.000536991
0.000536991
0.000537036
0.000537036
0.000537036
0.000537134
0.000537134
0.000537134
0.000537312
0.000537312
0.000537312
0.000537613
0.000537613
0.000537613
0.000538101
0.000538101
0.000538101
0.00053949
0.00053949
0.00053949
0.000537597
0.000537597
0.000537597
0.000537553
0.000537553
0.000537553
0.000537512
0.000537512
0.000537512
0.000537472
0.000537472
0.000537472
0.000537431
0.000537431
0.000537431
0.000537388
0.000537388
0.000537388
0.000537344
0.000537344
0.000537344
0.000537299
0.000537299
0.000537299
0.000537256
0.000537256
0.000537256
0.000537214
0.000537214
0.000537214
0.000537173
0.000537173
0.000537173
0.000537134
0.000537134
0.000537134
0.000537096
0.000537096
0.000537096
0.000537061
0.000537061
0.000537061
0.00053703
0.00053703
0.00053703
0.000537004
0.000537004
0.000537004
0.000536985
0.000536985
0.000536985
0.000536978
0.000536978
0.000536978
0.000536991
0.000536991
0.000536991
0.000537036
0.000537036
0.000537036
0.000537134
0.000537134
0.000537134
0.000537312
0.000537312
0.000537312
0.000537613
0.000537613
0.000537613
0.000538101
0.000538101
0.000538101
0.00053949
0.00053949
0.00053949
)
;
    }
    baffle_slave
    {
        type            calculated;
        value           nonuniform List<scalar> 
150
(
0.0104886
0.0104737
0.0104737
0.010268
0.0102534
0.0102534
0.00999548
0.00998098
0.00998098
0.00966653
0.00965233
0.00965233
0.00928622
0.00927241
0.00927241
0.00885976
0.00884643
0.00884643
0.00839251
0.00837974
0.00837974
0.00788998
0.00787786
0.00787786
0.00735787
0.00734646
0.00734646
0.00680204
0.00679142
0.00679142
0.00622867
0.0062189
0.0062189
0.00564437
0.00563551
0.00563551
0.00505631
0.00504841
0.00504841
0.00447232
0.00446541
0.00446541
0.00390075
0.00389484
0.00389484
0.0033502
0.00334529
0.00334529
0.00282898
0.00282502
0.00282502
0.00234457
0.0023415
0.0023415
0.00190331
0.00190103
0.00190103
0.00151047
0.00150887
0.00150887
0.00117069
0.00116967
0.00116966
0.000888463
0.000887886
0.000887883
0.000668084
0.000667822
0.000667819
0.000512148
0.000512071
0.000512068
0.000416431
0.000416422
0.000416418
0.0104737
0.0104886
0.0104737
0.0102534
0.010268
0.0102534
0.00998098
0.00999548
0.00998098
0.00965233
0.00966653
0.00965233
0.00927241
0.00928622
0.00927241
0.00884643
0.00885976
0.00884643
0.00837974
0.00839251
0.00837974
0.00787786
0.00788998
0.00787786
0.00734646
0.00735787
0.00734646
0.00679142
0.00680204
0.00679142
0.0062189
0.00622867
0.0062189
0.00563551
0.00564437
0.00563551
0.00504841
0.00505631
0.00504841
0.00446541
0.00447232
0.00446541
0.00389484
0.00390075
0.00389484
0.00334529
0.0033502
0.00334529
0.00282502
0.00282898
0.00282502
0.0023415
0.00234457
0.0023415
0.00190103
0.00190331
0.00190103
0.00150887
0.00151047
0.00150887
0.00116967
0.00117069
0.00116967
0.000887886
0.000888462
0.000887886
0.000667822
0.000668084
0.000667822
0.000512071
0.000512148
0.000512071
0.000416422
0.000416431
0.000416421
)
;
    }
}


// ************************************************************************* //
