/*--------------------------------*- C++ -*----------------------------------*\
| =========                 |                                                 |
| \\      /  F ield         | OpenFOAM: The Open Source CFD Toolbox           |
|  \\    /   O peration     | Version:  2212                                  |
|   \\  /    A nd           | Website:  www.openfoam.com                      |
|    \\/     M anipulation  |                                                 |
\*---------------------------------------------------------------------------*/
FoamFile
{
    version     2.0;
    format      ascii;
    arch        "LSB;label=32;scalar=64";
    class       volScalarField;
    location    "60/fluidRegion";
    object      p;
}
// * * * * * * * * * * * * * * * * * * * * * * * * * * * * * * * * * * * * * //

dimensions      [1 -1 -2 0 0 0 0];

internalField   nonuniform List<scalar> 
350
(
3.44743e+06
3.44773e+06
3.44802e+06
3.44832e+06
3.44862e+06
3.44891e+06
3.44921e+06
3.4495e+06
3.4498e+06
3.45009e+06
3.45038e+06
3.45068e+06
3.45097e+06
3.45126e+06
3.45156e+06
3.45186e+06
3.45215e+06
3.45245e+06
3.45275e+06
3.45304e+06
3.45334e+06
3.45364e+06
3.45393e+06
3.45423e+06
3.45451e+06
3.44743e+06
3.44773e+06
3.44802e+06
3.44832e+06
3.44862e+06
3.44891e+06
3.44921e+06
3.4495e+06
3.4498e+06
3.45009e+06
3.45038e+06
3.45068e+06
3.45097e+06
3.45126e+06
3.45156e+06
3.45186e+06
3.45215e+06
3.45245e+06
3.45275e+06
3.45304e+06
3.45334e+06
3.45364e+06
3.45393e+06
3.45423e+06
3.45451e+06
3.47385e+06
3.52568e+06
3.57691e+06
3.62722e+06
3.6763e+06
3.72388e+06
3.76969e+06
3.8135e+06
3.8551e+06
3.89429e+06
3.93093e+06
3.96487e+06
3.99601e+06
4.02426e+06
4.04958e+06
4.07196e+06
4.09145e+06
4.10815e+06
4.12218e+06
4.13373e+06
4.143e+06
4.1502e+06
4.15558e+06
4.15943e+06
4.16211e+06
3.47385e+06
3.52568e+06
3.57691e+06
3.62722e+06
3.6763e+06
3.72388e+06
3.76969e+06
3.8135e+06
3.8551e+06
3.89429e+06
3.93093e+06
3.96487e+06
3.99601e+06
4.02426e+06
4.04958e+06
4.07196e+06
4.09145e+06
4.10815e+06
4.12218e+06
4.13373e+06
4.143e+06
4.1502e+06
4.15558e+06
4.15943e+06
4.16211e+06
3.47385e+06
3.52568e+06
3.57691e+06
3.62722e+06
3.6763e+06
3.72388e+06
3.76969e+06
3.8135e+06
3.8551e+06
3.89429e+06
3.93093e+06
3.96487e+06
3.99601e+06
4.02426e+06
4.04958e+06
4.07196e+06
4.09145e+06
4.10815e+06
4.12218e+06
4.13373e+06
4.143e+06
4.1502e+06
4.15558e+06
4.15943e+06
4.16211e+06
3.47385e+06
3.52568e+06
3.57691e+06
3.62722e+06
3.6763e+06
3.72388e+06
3.76969e+06
3.8135e+06
3.8551e+06
3.89429e+06
3.93093e+06
3.96487e+06
3.99601e+06
4.02426e+06
4.04958e+06
4.07196e+06
4.09145e+06
4.10815e+06
4.12218e+06
4.13373e+06
4.143e+06
4.1502e+06
4.15558e+06
4.15943e+06
4.16211e+06
3.47385e+06
3.52568e+06
3.57691e+06
3.62722e+06
3.6763e+06
3.72388e+06
3.76969e+06
3.8135e+06
3.8551e+06
3.89429e+06
3.93093e+06
3.96487e+06
3.99601e+06
4.02426e+06
4.04958e+06
4.07196e+06
4.09145e+06
4.10815e+06
4.12218e+06
4.13373e+06
4.143e+06
4.1502e+06
4.15558e+06
4.15943e+06
4.16211e+06
3.47385e+06
3.52568e+06
3.57691e+06
3.62722e+06
3.6763e+06
3.72388e+06
3.76969e+06
3.8135e+06
3.8551e+06
3.89429e+06
3.93093e+06
3.96487e+06
3.99601e+06
4.02426e+06
4.04958e+06
4.07196e+06
4.09145e+06
4.10815e+06
4.12218e+06
4.13373e+06
4.143e+06
4.1502e+06
4.15558e+06
4.15943e+06
4.16211e+06
3.47385e+06
3.52568e+06
3.57691e+06
3.62722e+06
3.6763e+06
3.72388e+06
3.76969e+06
3.8135e+06
3.8551e+06
3.89429e+06
3.93093e+06
3.96487e+06
3.99601e+06
4.02426e+06
4.04958e+06
4.07196e+06
4.09145e+06
4.10815e+06
4.12218e+06
4.13373e+06
4.143e+06
4.1502e+06
4.15558e+06
4.15943e+06
4.16211e+06
3.47385e+06
3.52568e+06
3.57691e+06
3.62722e+06
3.6763e+06
3.72388e+06
3.76969e+06
3.8135e+06
3.8551e+06
3.89429e+06
3.93093e+06
3.96487e+06
3.99601e+06
4.02426e+06
4.04958e+06
4.07196e+06
4.09145e+06
4.10815e+06
4.12218e+06
4.13373e+06
4.143e+06
4.1502e+06
4.15558e+06
4.15943e+06
4.16211e+06
3.47385e+06
3.52568e+06
3.57691e+06
3.62722e+06
3.6763e+06
3.72388e+06
3.76969e+06
3.8135e+06
3.8551e+06
3.89429e+06
3.93093e+06
3.96487e+06
3.99601e+06
4.02426e+06
4.04958e+06
4.07196e+06
4.09145e+06
4.10815e+06
4.12218e+06
4.13373e+06
4.143e+06
4.1502e+06
4.15558e+06
4.15943e+06
4.16211e+06
3.47385e+06
3.52568e+06
3.57691e+06
3.62722e+06
3.6763e+06
3.72388e+06
3.76969e+06
3.8135e+06
3.8551e+06
3.89429e+06
3.93093e+06
3.96487e+06
3.99601e+06
4.02426e+06
4.04958e+06
4.07196e+06
4.09145e+06
4.10815e+06
4.12218e+06
4.13373e+06
4.143e+06
4.1502e+06
4.15558e+06
4.15943e+06
4.16211e+06
3.47385e+06
3.52568e+06
3.57691e+06
3.62722e+06
3.6763e+06
3.72388e+06
3.76969e+06
3.8135e+06
3.8551e+06
3.89429e+06
3.93093e+06
3.96487e+06
3.99601e+06
4.02426e+06
4.04958e+06
4.07196e+06
4.09145e+06
4.10815e+06
4.12218e+06
4.13373e+06
4.143e+06
4.1502e+06
4.15558e+06
4.15943e+06
4.16211e+06
3.47385e+06
3.52568e+06
3.57691e+06
3.62722e+06
3.6763e+06
3.72388e+06
3.76969e+06
3.8135e+06
3.8551e+06
3.89429e+06
3.93093e+06
3.96487e+06
3.99601e+06
4.02426e+06
4.04958e+06
4.07196e+06
4.09145e+06
4.10815e+06
4.12218e+06
4.13373e+06
4.143e+06
4.1502e+06
4.15558e+06
4.15943e+06
4.16211e+06
)
;

boundaryField
{
    outletCentralUnloaded
    {
        type            fixedValue;
        value           uniform 3.44728e+06;
    }
    inletCentralUnloaded
    {
        type            zeroGradient;
    }
    outletFuelElement
    {
        type            fixedValue;
        value           uniform 3.44728e+06;
    }
    inletFuelElement
    {
        type            zeroGradient;
    }
    defaultFaces
    {
        type            zeroGradient;
    }
    baffle_master
    {
        type            zeroGradient;
    }
    baffle_slave
    {
        type            zeroGradient;
    }
}


// ************************************************************************* //
