/*--------------------------------*- C++ -*----------------------------------*\
| =========                 |                                                 |
| \\      /  F ield         | OpenFOAM: The Open Source CFD Toolbox           |
|  \\    /   O peration     | Version:  2212                                  |
|   \\  /    A nd           | Website:  www.openfoam.com                      |
|    \\/     M anipulation  |                                                 |
\*---------------------------------------------------------------------------*/
FoamFile
{
    version     2.0;
    format      ascii;
    arch        "LSB;label=32;scalar=64";
    class       volScalarField;
    location    "60/fluidRegion";
    object      Re;
}
// * * * * * * * * * * * * * * * * * * * * * * * * * * * * * * * * * * * * * //

dimensions      [0 0 0 0 0 0 0];

internalField   nonuniform List<scalar> 
350
(
174022
174025
174028
174032
174035
174037
174038
174039
174039
174038
174037
174036
174034
174032
174031
174030
174029
174028
174026
174024
174022
174022
174023
174026
174392
174022
174025
174028
174032
174035
174037
174038
174039
174039
174038
174037
174036
174034
174032
174031
174030
174029
174028
174026
174024
174022
174022
174023
174026
174392
55430.9
55381.7
55382.9
55383.1
55382.1
55379.7
55375.8
55370.2
55362.7
55353.1
55341.2
55326.9
55310.5
55291.7
55270.5
55245.7
55215.4
55177.9
55132.2
55084.4
55053.7
55099.8
55366.9
56113
56603.7
54939.9
54883.1
54880.1
54876.2
54871.3
54865.4
54858.1
54849.5
54839.1
54826.8
54812.8
54797.3
54781.2
54765.3
54750.5
54736.8
54722.9
54707.1
54688.6
54673.7
54683.2
54780.2
55114.8
55951.2
56551
55513
55463.4
55465.1
55465.6
55464.8
55462.6
55458.8
55453.3
55445.9
55436.2
55424.1
55409.5
55392.4
55372.5
55349.5
55322.1
55288.4
55246.4
55195.5
55141.1
55102.6
55138.9
55393.7
56125.1
56605.6
55049.6
54995
54993.2
54990.4
54986.7
54981.7
54975.5
54967.7
54958.1
54946.6
54933.3
54918.3
54902.2
54885.9
54869.9
54853.8
54836.4
54815.8
54791.2
54768.9
54769.4
54855
55174.3
55990.2
56564.1
55049.6
54995
54993.2
54990.4
54986.7
54981.7
54975.5
54967.7
54958.1
54946.6
54933.3
54918.3
54902.2
54885.9
54869.9
54853.8
54836.4
54815.8
54791.2
54768.9
54769.4
54855
55174.3
55990.2
56564.1
55513
55463.4
55465
55465.6
55464.8
55462.6
55458.8
55453.3
55445.8
55436.2
55424.1
55409.5
55392.4
55372.5
55349.5
55322
55288.3
55246.4
55195.4
55141
55102.5
55138.8
55393.5
56125
56605.5
54939.9
54883.1
54880.1
54876.2
54871.3
54865.4
54858.1
54849.5
54839.1
54826.8
54812.8
54797.3
54781.2
54765.3
54750.5
54736.8
54722.9
54707.1
54688.6
54673.7
54683.2
54780.2
55114.8
55951.2
56551
55430.9
55381.7
55382.9
55383.1
55382.1
55379.7
55375.8
55370.2
55362.7
55353.1
55341.2
55326.9
55310.5
55291.7
55270.5
55245.7
55215.4
55177.9
55132.2
55084.4
55053.7
55099.7
55366.8
56112.9
56603.7
55049.6
54995
54993.2
54990.4
54986.7
54981.7
54975.5
54967.7
54958.1
54946.6
54933.3
54918.3
54902.2
54885.9
54869.9
54853.8
54836.4
54815.8
54791.2
54768.9
54769.4
54855
55174.3
55990.2
56564.1
55513
55463.4
55465.1
55465.6
55464.8
55462.6
55458.8
55453.3
55445.9
55436.2
55424.1
55409.5
55392.4
55372.5
55349.5
55322.1
55288.4
55246.4
55195.5
55141.1
55102.6
55138.9
55393.7
56125.2
56605.7
55513
55463.4
55465.1
55465.6
55464.8
55462.6
55458.8
55453.3
55445.8
55436.2
55424.1
55409.5
55392.4
55372.5
55349.5
55322
55288.3
55246.4
55195.4
55141
55102.5
55138.8
55393.5
56125
56605.5
55049.6
54995
54993.2
54990.5
54986.7
54981.7
54975.5
54967.7
54958.1
54946.6
54933.3
54918.3
54902.2
54885.9
54869.9
54853.8
54836.4
54815.8
54791.2
54768.9
54769.4
54854.9
55174.3
55990.2
56564.1
)
;

boundaryField
{
    outletCentralUnloaded
    {
        type            zeroGradient;
    }
    inletCentralUnloaded
    {
        type            zeroGradient;
    }
    outletFuelElement
    {
        type            zeroGradient;
    }
    inletFuelElement
    {
        type            zeroGradient;
    }
    defaultFaces
    {
        type            zeroGradient;
    }
    baffle_master
    {
        type            zeroGradient;
    }
    baffle_slave
    {
        type            zeroGradient;
    }
}


// ************************************************************************* //
