/*--------------------------------*- C++ -*----------------------------------*\
| =========                 |                                                 |
| \\      /  F ield         | OpenFOAM: The Open Source CFD Toolbox           |
|  \\    /   O peration     | Version:  2212                                  |
|   \\  /    A nd           | Website:  www.openfoam.com                      |
|    \\/     M anipulation  |                                                 |
\*---------------------------------------------------------------------------*/
FoamFile
{
    version     2.0;
    format      ascii;
    arch        "LSB;label=32;scalar=64";
    class       volScalarField;
    location    "60/fluidRegion";
    object      T;
}
// * * * * * * * * * * * * * * * * * * * * * * * * * * * * * * * * * * * * * //

dimensions      [0 0 0 1 0 0 0];

internalField   nonuniform List<scalar> 
350
(
83.2889
83.2894
83.2899
83.2904
83.2908
83.2913
83.2918
83.2922
83.2927
83.2932
83.2937
83.2942
83.2947
83.2952
83.2957
83.2962
83.2967
83.2972
83.2976
83.2979
83.2982
83.2985
83.2988
83.2992
83.2997
83.2889
83.2894
83.2899
83.2904
83.2908
83.2913
83.2918
83.2922
83.2927
83.2932
83.2937
83.2942
83.2947
83.2952
83.2957
83.2962
83.2967
83.2972
83.2976
83.2979
83.2982
83.2985
83.2988
83.2992
83.2997
1823.38
1817.22
1798.65
1767.88
1725.28
1671.33
1606.65
1531.99
1448.23
1356.38
1257.58
1153.17
1044.66
933.807
822.566
713.036
607.323
507.391
414.95
331.438
258.113
196.16
146.802
111.209
90.0856
1851.63
1845.68
1827.11
1796.13
1753.09
1698.49
1632.96
1557.26
1472.28
1379.03
1278.67
1172.55
1062.18
949.353
836.052
724.433
616.671
514.801
420.595
335.53
260.889
197.869
147.705
111.573
90.163
1818.79
1812.62
1794.06
1763.35
1720.84
1667.01
1602.48
1528
1444.45
1352.83
1254.3
1150.16
1041.96
931.423
820.51
711.308
605.915
506.282
414.112
330.835
257.708
195.912
146.671
111.156
90.0732
1845.28
1839.27
1820.68
1789.73
1746.78
1692.32
1626.97
1551.5
1466.79
1373.85
1273.84
1168.1
1058.16
945.775
832.943
721.802
614.51
513.087
419.288
334.582
260.245
197.472
147.495
111.488
90.1452
1845.28
1839.27
1820.68
1789.73
1746.78
1692.32
1626.97
1551.5
1466.79
1373.85
1273.84
1168.1
1058.16
945.775
832.943
721.802
614.51
513.087
419.288
334.582
260.245
197.472
147.495
111.488
90.1452
1818.8
1812.62
1794.06
1763.36
1720.84
1667.01
1602.48
1528
1444.45
1352.83
1254.3
1150.17
1041.96
931.424
820.511
711.309
605.916
506.283
414.112
330.836
257.708
195.913
146.672
111.156
90.0732
1851.63
1845.68
1827.11
1796.13
1753.09
1698.49
1632.96
1557.26
1472.28
1379.03
1278.67
1172.55
1062.18
949.353
836.052
724.433
616.671
514.801
420.595
335.53
260.889
197.869
147.705
111.573
90.163
1823.38
1817.22
1798.65
1767.88
1725.28
1671.33
1606.65
1531.99
1448.23
1356.38
1257.58
1153.17
1044.66
933.807
822.566
713.036
607.323
507.391
414.95
331.438
258.113
196.16
146.802
111.209
90.0856
1845.28
1839.27
1820.68
1789.73
1746.78
1692.32
1626.97
1551.5
1466.79
1373.85
1273.84
1168.1
1058.16
945.775
832.943
721.802
614.51
513.087
419.288
334.582
260.245
197.472
147.495
111.488
90.1452
1818.79
1812.62
1794.06
1763.35
1720.84
1667.01
1602.48
1528
1444.45
1352.83
1254.3
1150.16
1041.96
931.423
820.51
711.309
605.915
506.282
414.112
330.835
257.708
195.912
146.672
111.156
90.0732
1818.8
1812.62
1794.06
1763.36
1720.84
1667.01
1602.48
1528
1444.45
1352.83
1254.3
1150.17
1041.96
931.424
820.511
711.309
605.916
506.283
414.112
330.836
257.708
195.913
146.672
111.156
90.0732
1845.28
1839.27
1820.68
1789.73
1746.78
1692.32
1626.97
1551.5
1466.79
1373.85
1273.84
1168.1
1058.16
945.775
832.943
721.802
614.51
513.087
419.288
334.582
260.245
197.472
147.495
111.488
90.1452
)
;

boundaryField
{
    outletCentralUnloaded
    {
        type            zeroGradient;
    }
    inletCentralUnloaded
    {
        type            fixedValue;
        value           uniform 83.3;
    }
    outletFuelElement
    {
        type            zeroGradient;
    }
    inletFuelElement
    {
        type            fixedValue;
        value           uniform 83.3;
    }
    defaultFaces
    {
        type            zeroGradient;
    }
    baffle_master
    {
        type            zeroGradient;
    }
    baffle_slave
    {
        type            zeroGradient;
    }
}


// ************************************************************************* //
