/*--------------------------------*- C++ -*----------------------------------*\
| =========                 |                                                 |
| \\      /  F ield         | OpenFOAM: The Open Source CFD Toolbox           |
|  \\    /   O peration     | Version:  2212                                  |
|   \\  /    A nd           | Website:  www.openfoam.com                      |
|    \\/     M anipulation  |                                                 |
\*---------------------------------------------------------------------------*/
FoamFile
{
    version     2.0;
    format      ascii;
    arch        "LSB;label=32;scalar=64";
    class       volScalarField;
    location    "60/fluidRegion";
    object      T.fuelAvForNeutronics;
}
// * * * * * * * * * * * * * * * * * * * * * * * * * * * * * * * * * * * * * //

dimensions      [0 0 0 1 0 0 0];

internalField   nonuniform List<scalar> 
350
(
0
0
0
0
0
0
0
0
0
0
0
0
0
0
0
0
0
0
0
0
0
0
0
0
0
0
0
0
0
0
0
0
0
0
0
0
0
0
0
0
0
0
0
0
0
0
0
0
0
0
2221.66
3008.73
3765.09
4479.2
5140.14
5737.73
6262.77
6707.15
7064
7327.77
7494.38
7561.26
7527.38
7393.35
7161.34
6835.05
6419.54
5920.96
5346.04
4701.62
3993.4
3224.76
2395.32
1504.14
564.418
2254.4
3050.66
3815.78
4538.1
5206.55
5810.84
6341.68
6790.86
7151.42
7417.79
7585.81
7652.89
7618.02
7481.78
7246.4
6915.63
6494.63
5989.63
5407.53
4755.28
4038.68
3261.13
2422.16
1520.66
569.963
2216.36
3001.98
3756.96
4469.79
5129.55
5726.09
6250.23
6693.86
7050.12
7313.5
7479.9
7546.74
7513.03
7379.35
7147.88
6822.31
6407.67
5910.1
5336.33
4693.15
3986.26
3219.04
2391.12
1501.56
563.543
2247.02
3041.14
3804.23
4524.65
5191.35
5794.09
6323.58
6771.64
7131.34
7397.09
7564.78
7631.81
7597.16
7461.42
7226.81
6897.07
6477.33
5973.81
5393.37
4742.92
4028.24
3252.75
2415.98
1516.85
568.685
2247.02
3041.14
3804.23
4524.65
5191.35
5794.09
6323.58
6771.64
7131.34
7397.09
7564.78
7631.81
7597.16
7461.42
7226.81
6897.07
6477.33
5973.81
5393.37
4742.92
4028.24
3252.75
2415.98
1516.85
568.685
2216.36
3001.98
3756.96
4469.79
5129.55
5726.09
6250.23
6693.86
7050.13
7313.5
7479.9
7546.74
7513.03
7379.36
7147.88
6822.31
6407.68
5910.1
5336.33
4693.15
3986.26
3219.04
2391.12
1501.56
563.543
2254.4
3050.66
3815.78
4538.1
5206.55
5810.84
6341.68
6790.86
7151.42
7417.79
7585.81
7652.89
7618.02
7481.78
7246.4
6915.63
6494.63
5989.63
5407.53
4755.28
4038.68
3261.13
2422.17
1520.66
569.963
2221.66
3008.73
3765.09
4479.2
5140.14
5737.73
6262.77
6707.15
7064
7327.77
7494.38
7561.25
7527.38
7393.35
7161.34
6835.05
6419.54
5920.95
5346.04
4701.62
3993.4
3224.76
2395.33
1504.14
564.418
2247.02
3041.14
3804.23
4524.65
5191.35
5794.09
6323.58
6771.64
7131.34
7397.09
7564.78
7631.81
7597.16
7461.42
7226.81
6897.07
6477.33
5973.81
5393.37
4742.92
4028.24
3252.75
2415.98
1516.85
568.685
2216.36
3001.98
3756.96
4469.79
5129.55
5726.09
6250.23
6693.86
7050.12
7313.5
7479.9
7546.74
7513.03
7379.35
7147.88
6822.31
6407.67
5910.1
5336.33
4693.15
3986.26
3219.04
2391.12
1501.56
563.543
2216.36
3001.98
3756.96
4469.79
5129.55
5726.09
6250.23
6693.86
7050.13
7313.5
7479.9
7546.74
7513.03
7379.36
7147.88
6822.31
6407.67
5910.1
5336.33
4693.15
3986.26
3219.04
2391.12
1501.56
563.543
2247.02
3041.14
3804.23
4524.65
5191.35
5794.09
6323.58
6771.64
7131.34
7397.09
7564.78
7631.81
7597.16
7461.42
7226.81
6897.07
6477.33
5973.81
5393.37
4742.92
4028.24
3252.75
2415.98
1516.85
568.685
)
;

boundaryField
{
    outletCentralUnloaded
    {
        type            zeroGradient;
    }
    inletCentralUnloaded
    {
        type            zeroGradient;
    }
    outletFuelElement
    {
        type            zeroGradient;
    }
    inletFuelElement
    {
        type            zeroGradient;
    }
    defaultFaces
    {
        type            zeroGradient;
    }
    baffle_master
    {
        type            zeroGradient;
    }
    baffle_slave
    {
        type            zeroGradient;
    }
}


// ************************************************************************* //
