/*--------------------------------*- C++ -*----------------------------------*\
| =========                 |                                                 |
| \\      /  F ield         | OpenFOAM: The Open Source CFD Toolbox           |
|  \\    /   O peration     | Version:  2212                                  |
|   \\  /    A nd           | Website:  www.openfoam.com                      |
|    \\/     M anipulation  |                                                 |
\*---------------------------------------------------------------------------*/
FoamFile
{
    version     2.0;
    format      ascii;
    arch        "LSB;label=32;scalar=64";
    class       volScalarField;
    location    "60/fluidRegion";
    object      Tcav.nuclearFuelPin;
}
// * * * * * * * * * * * * * * * * * * * * * * * * * * * * * * * * * * * * * //

dimensions      [0 0 0 1 0 0 0];

internalField   nonuniform List<scalar> 
350
(
0
0
0
0
0
0
0
0
0
0
0
0
0
0
0
0
0
0
0
0
0
0
0
0
0
0
0
0
0
0
0
0
0
0
0
0
0
0
0
0
0
0
0
0
0
0
0
0
0
0
1845.54
1883.65
1908.8
1921.02
1920.41
1907.25
1881.97
1845.13
1797.44
1739.76
1673.05
1598.41
1517.08
1430.39
1339.77
1246.68
1152.53
1058.36
964.585
870.374
772.813
665.606
538.005
377.904
186.913
1873.99
1912.71
1938.25
1950.63
1949.95
1936.5
1910.71
1873.15
1824.55
1765.77
1697.8
1621.76
1538.88
1450.53
1358.15
1263.26
1167.28
1071.34
975.892
880.15
781.199
672.662
543.572
381.522
188.136
1840.92
1878.95
1904.06
1916.27
1915.69
1902.6
1877.41
1840.7
1793.18
1735.68
1669.18
1594.78
1513.7
1427.27
1336.93
1244.14
1150.26
1056.38
962.862
868.89
771.548
664.553
537.186
377.377
186.727
1867.59
1906.15
1931.6
1943.92
1943.24
1929.84
1904.15
1866.75
1818.35
1759.81
1692.12
1616.4
1533.87
1445.89
1353.91
1259.44
1163.87
1068.34
973.277
877.889
779.259
671.028
542.282
380.682
187.853
1867.59
1906.15
1931.6
1943.92
1943.24
1929.84
1904.15
1866.75
1818.35
1759.81
1692.12
1616.4
1533.87
1445.89
1353.91
1259.44
1163.87
1068.34
973.277
877.889
779.259
671.028
542.282
380.682
187.853
1840.92
1878.95
1904.07
1916.27
1915.69
1902.6
1877.41
1840.7
1793.18
1735.68
1669.18
1594.78
1513.7
1427.27
1336.93
1244.14
1150.27
1056.38
962.863
868.891
771.549
664.554
537.187
377.377
186.727
1873.99
1912.71
1938.25
1950.63
1949.95
1936.5
1910.71
1873.15
1824.55
1765.77
1697.8
1621.76
1538.88
1450.53
1358.15
1263.26
1167.28
1071.34
975.892
880.15
781.199
672.662
543.572
381.522
188.136
1845.54
1883.65
1908.8
1921.02
1920.41
1907.25
1881.97
1845.13
1797.44
1739.76
1673.05
1598.41
1517.08
1430.39
1339.77
1246.68
1152.53
1058.36
964.585
870.374
772.813
665.606
538.005
377.904
186.913
1867.59
1906.15
1931.6
1943.92
1943.24
1929.84
1904.15
1866.75
1818.35
1759.81
1692.12
1616.4
1533.87
1445.89
1353.91
1259.44
1163.87
1068.34
973.277
877.889
779.259
671.028
542.282
380.682
187.853
1840.92
1878.95
1904.06
1916.27
1915.69
1902.6
1877.41
1840.7
1793.18
1735.68
1669.18
1594.78
1513.7
1427.27
1336.93
1244.14
1150.26
1056.38
962.862
868.891
771.548
664.553
537.186
377.377
186.727
1840.92
1878.95
1904.07
1916.27
1915.69
1902.6
1877.41
1840.7
1793.18
1735.68
1669.18
1594.78
1513.7
1427.27
1336.93
1244.14
1150.27
1056.38
962.863
868.891
771.549
664.554
537.187
377.377
186.727
1867.59
1906.15
1931.6
1943.92
1943.24
1929.84
1904.15
1866.75
1818.35
1759.81
1692.12
1616.4
1533.87
1445.89
1353.91
1259.44
1163.87
1068.34
973.277
877.889
779.259
671.028
542.282
380.682
187.853
)
;

boundaryField
{
    outletCentralUnloaded
    {
        type            zeroGradient;
    }
    inletCentralUnloaded
    {
        type            zeroGradient;
    }
    outletFuelElement
    {
        type            zeroGradient;
    }
    inletFuelElement
    {
        type            zeroGradient;
    }
    defaultFaces
    {
        type            zeroGradient;
    }
    baffle_master
    {
        type            zeroGradient;
    }
    baffle_slave
    {
        type            zeroGradient;
    }
}


// ************************************************************************* //
