/*--------------------------------*- C++ -*----------------------------------*\
| =========                 |                                                 |
| \\      /  F ield         | OpenFOAM: The Open Source CFD Toolbox           |
|  \\    /   O peration     | Version:  2212                                  |
|   \\  /    A nd           | Website:  www.openfoam.com                      |
|    \\/     M anipulation  |                                                 |
\*---------------------------------------------------------------------------*/
FoamFile
{
    version     2.0;
    format      ascii;
    arch        "LSB;label=32;scalar=64";
    class       volScalarField;
    location    "60/fluidRegion";
    object      Tci.nuclearFuelPin;
}
// * * * * * * * * * * * * * * * * * * * * * * * * * * * * * * * * * * * * * //

dimensions      [0 0 0 1 0 0 0];

internalField   nonuniform List<scalar> 
350
(
0
0
0
0
0
0
0
0
0
0
0
0
0
0
0
0
0
0
0
0
0
0
0
0
0
0
0
0
0
0
0
0
0
0
0
0
0
0
0
0
0
0
0
0
0
0
0
0
0
0
1851.64
1901.87
1938.87
1962.45
1972.56
1969.29
1952.92
1923.88
1882.74
1830.26
1767.33
1694.99
1614.43
1526.97
1434.05
1337.19
1237.83
1137.12
1035.55
932.426
824.974
707.054
568.086
396.145
193.027
1880.15
1931.14
1968.66
1992.53
2002.69
1999.25
1982.47
1952.8
1910.83
1857.31
1793.17
1719.44
1637.34
1548.21
1453.52
1354.81
1253.57
1151
1047.67
942.913
833.958
714.585
573.998
399.972
194.32
1847
1897.14
1934.08
1957.63
1967.74
1964.52
1948.24
1919.3
1878.32
1826.02
1763.29
1691.18
1610.86
1523.67
1431.05
1334.48
1235.41
1134.99
1033.7
930.829
823.614
705.926
567.213
395.584
192.83
1873.74
1924.54
1961.93
1985.72
1995.85
1992.43
1975.73
1946.19
1904.4
1851.12
1787.24
1713.82
1632.07
1543.32
1449.03
1350.74
1249.93
1147.79
1044.87
940.488
831.88
712.842
572.629
399.084
194.021
1873.74
1924.54
1961.93
1985.72
1995.85
1992.43
1975.73
1946.19
1904.4
1851.12
1787.24
1713.82
1632.07
1543.32
1449.03
1350.74
1249.93
1147.79
1044.87
940.488
831.88
712.842
572.629
399.084
194.021
1847.01
1897.14
1934.08
1957.63
1967.75
1964.53
1948.24
1919.31
1878.32
1826.02
1763.29
1691.18
1610.87
1523.67
1431.05
1334.48
1235.42
1134.99
1033.7
930.83
823.615
705.927
567.213
395.585
192.83
1880.15
1931.14
1968.66
1992.53
2002.69
1999.25
1982.47
1952.8
1910.83
1857.31
1793.17
1719.44
1637.34
1548.21
1453.52
1354.81
1253.57
1151
1047.67
942.913
833.958
714.585
573.998
399.972
194.32
1851.64
1901.87
1938.87
1962.45
1972.56
1969.29
1952.92
1923.87
1882.74
1830.26
1767.33
1694.99
1614.43
1526.97
1434.05
1337.19
1237.83
1137.12
1035.55
932.426
824.974
707.055
568.087
396.145
193.027
1873.74
1924.54
1961.93
1985.72
1995.85
1992.43
1975.73
1946.19
1904.4
1851.12
1787.24
1713.82
1632.07
1543.32
1449.03
1350.74
1249.93
1147.79
1044.87
940.488
831.88
712.842
572.629
399.084
194.021
1847
1897.14
1934.08
1957.63
1967.74
1964.52
1948.24
1919.3
1878.32
1826.02
1763.29
1691.18
1610.86
1523.67
1431.05
1334.48
1235.41
1134.99
1033.7
930.829
823.614
705.926
567.213
395.584
192.83
1847.01
1897.14
1934.08
1957.63
1967.74
1964.52
1948.24
1919.31
1878.32
1826.02
1763.29
1691.18
1610.87
1523.67
1431.05
1334.48
1235.42
1134.99
1033.7
930.83
823.615
705.927
567.213
395.585
192.83
1873.74
1924.54
1961.93
1985.72
1995.85
1992.43
1975.73
1946.19
1904.4
1851.12
1787.24
1713.82
1632.07
1543.32
1449.03
1350.74
1249.93
1147.79
1044.87
940.488
831.88
712.842
572.629
399.084
194.021
)
;

boundaryField
{
    outletCentralUnloaded
    {
        type            zeroGradient;
    }
    inletCentralUnloaded
    {
        type            zeroGradient;
    }
    outletFuelElement
    {
        type            zeroGradient;
    }
    inletFuelElement
    {
        type            zeroGradient;
    }
    defaultFaces
    {
        type            zeroGradient;
    }
    baffle_master
    {
        type            zeroGradient;
    }
    baffle_slave
    {
        type            zeroGradient;
    }
}


// ************************************************************************* //
