/*--------------------------------*- C++ -*----------------------------------*\
| =========                 |                                                 |
| \\      /  F ield         | OpenFOAM: The Open Source CFD Toolbox           |
|  \\    /   O peration     | Version:  2212                                  |
|   \\  /    A nd           | Website:  www.openfoam.com                      |
|    \\/     M anipulation  |                                                 |
\*---------------------------------------------------------------------------*/
FoamFile
{
    version     2.0;
    format      ascii;
    arch        "LSB;label=32;scalar=64";
    class       volScalarField;
    location    "60/fluidRegion";
    object      Tco.nuclearFuelPin;
}
// * * * * * * * * * * * * * * * * * * * * * * * * * * * * * * * * * * * * * //

dimensions      [0 0 0 1 0 0 0];

internalField   nonuniform List<scalar> 
350
(
0
0
0
0
0
0
0
0
0
0
0
0
0
0
0
0
0
0
0
0
0
0
0
0
0
0
0
0
0
0
0
0
0
0
0
0
0
0
0
0
0
0
0
0
0
0
0
0
0
0
1839.86
1866.63
1880.74
1882.34
1871.73
1849.34
1815.73
1771.62
1717.82
1655.27
1585.03
1508.26
1426.21
1340.23
1251.75
1162.19
1072.89
984.843
898.342
812.449
724.12
626.914
509.924
360.876
181.206
1868.24
1895.5
1909.87
1911.51
1900.71
1877.92
1843.71
1798.8
1744.01
1680.32
1608.78
1530.57
1446.97
1359.34
1269.13
1177.8
1086.74
996.981
908.889
821.562
731.949
633.527
515.17
364.299
182.363
1835.25
1861.97
1876.05
1877.66
1867.1
1844.79
1811.3
1767.33
1713.69
1651.34
1581.32
1504.79
1422.99
1337.28
1249.07
1159.8
1070.78
982.994
896.74
811.071
722.945
625.932
509.156
360.38
181.03
1861.85
1888.99
1903.28
1904.9
1894.13
1871.42
1837.34
1792.59
1738.02
1674.58
1603.33
1525.45
1442.2
1354.94
1265.12
1174.2
1083.54
994.175
906.45
819.453
730.137
631.995
513.953
363.504
182.096
1861.85
1888.99
1903.28
1904.9
1894.13
1871.42
1837.34
1792.59
1738.02
1674.58
1603.33
1525.45
1442.2
1354.94
1265.12
1174.2
1083.54
994.175
906.45
819.453
730.137
631.995
513.953
363.504
182.096
1835.25
1861.97
1876.05
1877.66
1867.1
1844.79
1811.3
1767.33
1713.7
1651.35
1581.33
1504.79
1422.99
1337.28
1249.07
1159.8
1070.78
982.994
896.74
811.072
722.945
625.933
509.157
360.381
181.03
1868.24
1895.5
1909.87
1911.51
1900.71
1877.92
1843.71
1798.8
1744.01
1680.32
1608.78
1530.57
1446.97
1359.34
1269.13
1177.8
1086.74
996.981
908.889
821.562
731.949
633.527
515.17
364.299
182.363
1839.86
1866.63
1880.74
1882.34
1871.73
1849.34
1815.73
1771.62
1717.82
1655.27
1585.03
1508.26
1426.21
1340.23
1251.75
1162.19
1072.89
984.843
898.342
812.449
724.12
626.914
509.924
360.876
181.206
1861.85
1888.99
1903.28
1904.9
1894.13
1871.42
1837.34
1792.59
1738.02
1674.58
1603.33
1525.45
1442.2
1354.94
1265.12
1174.2
1083.54
994.175
906.45
819.453
730.137
631.995
513.953
363.504
182.096
1835.25
1861.97
1876.05
1877.66
1867.1
1844.79
1811.3
1767.33
1713.69
1651.34
1581.32
1504.79
1422.99
1337.28
1249.07
1159.8
1070.78
982.994
896.74
811.071
722.945
625.932
509.156
360.38
181.03
1835.25
1861.97
1876.05
1877.66
1867.1
1844.79
1811.3
1767.33
1713.7
1651.35
1581.33
1504.79
1422.99
1337.28
1249.07
1159.8
1070.78
982.994
896.74
811.072
722.945
625.932
509.157
360.381
181.03
1861.85
1888.99
1903.28
1904.9
1894.13
1871.42
1837.34
1792.59
1738.02
1674.58
1603.33
1525.45
1442.2
1354.94
1265.12
1174.2
1083.54
994.175
906.45
819.453
730.137
631.995
513.953
363.504
182.096
)
;

boundaryField
{
    outletCentralUnloaded
    {
        type            zeroGradient;
    }
    inletCentralUnloaded
    {
        type            zeroGradient;
    }
    outletFuelElement
    {
        type            zeroGradient;
    }
    inletFuelElement
    {
        type            zeroGradient;
    }
    defaultFaces
    {
        type            zeroGradient;
    }
    baffle_master
    {
        type            zeroGradient;
    }
    baffle_slave
    {
        type            zeroGradient;
    }
}


// ************************************************************************* //
