/*--------------------------------*- C++ -*----------------------------------*\
| =========                 |                                                 |
| \\      /  F ield         | OpenFOAM: The Open Source CFD Toolbox           |
|  \\    /   O peration     | Version:  2212                                  |
|   \\  /    A nd           | Website:  www.openfoam.com                      |
|    \\/     M anipulation  |                                                 |
\*---------------------------------------------------------------------------*/
FoamFile
{
    version     2.0;
    format      ascii;
    arch        "LSB;label=32;scalar=64";
    class       volScalarField;
    location    "60/fluidRegion";
    object      Tfi.nuclearFuelPin;
}
// * * * * * * * * * * * * * * * * * * * * * * * * * * * * * * * * * * * * * //

dimensions      [0 0 0 1 0 0 0];

internalField   nonuniform List<scalar> 
350
(
0
0
0
0
0
0
0
0
0
0
0
0
0
0
0
0
0
0
0
0
0
0
0
0
0
0
0
0
0
0
0
0
0
0
0
0
0
0
0
0
0
0
0
0
0
0
0
0
0
0
2423.07
3611.51
4759.73
5850.01
6865.47
7790.37
8610.34
9312.62
9886.26
10322.3
10614
10756.7
10748.2
10588.8
10281.1
9829.82
9242.11
8526.8
7694.04
6754.77
5719.3
4596.19
3390.65
2107.69
766.733
2458.11
3660.34
4821.81
5924.6
6951.63
7886.99
8716.13
9426.16
10006
10446.6
10741.1
10884.9
10875.8
10713.9
10401.9
9944.71
9349.52
8625.32
7782.43
6831.95
5784.34
4648.27
3428.89
2131.12
774.595
2417.4
3603.67
4749.79
5838.1
6851.74
7774.99
8593.52
9294.57
9867.24
10302.6
10593.8
10736.3
10728
10569
10261.9
9811.61
9225.09
8511.19
7680.05
6742.55
5709.01
4587.97
3384.63
2104.01
765.49
2450.19
3649.24
4807.64
5907.53
6931.89
7864.83
8691.84
9400.07
9978.48
10418
10711.9
10855.4
10846.4
10685.1
10374.1
9918.25
9324.78
8602.63
7762.07
6814.17
5769.36
4636.27
3420.08
2125.72
772.784
2450.19
3649.24
4807.64
5907.53
6931.89
7864.83
8691.84
9400.07
9978.48
10418
10711.9
10855.4
10846.4
10685.1
10374.1
9918.25
9324.78
8602.63
7762.07
6814.17
5769.36
4636.27
3420.08
2125.72
772.784
2417.41
3603.67
4749.79
5838.1
6851.74
7774.99
8593.52
9294.57
9867.24
10302.6
10593.8
10736.3
10728
10569
10261.9
9811.62
9225.09
8511.19
7680.05
6742.55
5709.01
4587.97
3384.63
2104.01
765.49
2458.11
3660.34
4821.81
5924.6
6951.63
7886.99
8716.13
9426.16
10006
10446.6
10741.1
10884.9
10875.8
10713.9
10401.9
9944.71
9349.52
8625.32
7782.43
6831.95
5784.34
4648.27
3428.89
2131.12
774.595
2423.07
3611.51
4759.73
5850.01
6865.47
7790.37
8610.34
9312.62
9886.26
10322.3
10614
10756.7
10748.2
10588.8
10281.1
9829.82
9242.11
8526.8
7694.04
6754.77
5719.29
4596.2
3390.65
2107.69
766.734
2450.19
3649.24
4807.64
5907.53
6931.89
7864.83
8691.84
9400.07
9978.48
10418
10711.9
10855.4
10846.4
10685.1
10374.1
9918.25
9324.78
8602.63
7762.07
6814.17
5769.36
4636.27
3420.08
2125.72
772.784
2417.4
3603.67
4749.79
5838.1
6851.74
7774.99
8593.52
9294.57
9867.24
10302.6
10593.8
10736.3
10728
10569
10261.9
9811.61
9225.09
8511.19
7680.05
6742.55
5709.01
4587.97
3384.63
2104.01
765.49
2417.41
3603.67
4749.79
5838.1
6851.74
7774.99
8593.52
9294.57
9867.24
10302.6
10593.8
10736.3
10728
10569
10261.9
9811.62
9225.09
8511.19
7680.05
6742.55
5709.01
4587.97
3384.63
2104.01
765.49
2450.19
3649.24
4807.64
5907.53
6931.89
7864.83
8691.84
9400.07
9978.48
10418
10711.9
10855.4
10846.4
10685.1
10374.1
9918.25
9324.78
8602.63
7762.07
6814.17
5769.36
4636.27
3420.08
2125.72
772.784
)
;

boundaryField
{
    outletCentralUnloaded
    {
        type            zeroGradient;
    }
    inletCentralUnloaded
    {
        type            zeroGradient;
    }
    outletFuelElement
    {
        type            zeroGradient;
    }
    inletFuelElement
    {
        type            zeroGradient;
    }
    defaultFaces
    {
        type            zeroGradient;
    }
    baffle_master
    {
        type            zeroGradient;
    }
    baffle_slave
    {
        type            zeroGradient;
    }
}


// ************************************************************************* //
