/*--------------------------------*- C++ -*----------------------------------*\
| =========                 |                                                 |
| \\      /  F ield         | OpenFOAM: The Open Source CFD Toolbox           |
|  \\    /   O peration     | Version:  2212                                  |
|   \\  /    A nd           | Website:  www.openfoam.com                      |
|    \\/     M anipulation  |                                                 |
\*---------------------------------------------------------------------------*/
FoamFile
{
    version     2.0;
    format      ascii;
    arch        "LSB;label=32;scalar=64";
    class       volScalarField;
    location    "43/neutroRegion";
    object      TClad;
}
// * * * * * * * * * * * * * * * * * * * * * * * * * * * * * * * * * * * * * //

dimensions      [0 0 0 1 0 0 0];

internalField   nonuniform List<scalar> 
350
(
0
0
0
0
0
0
0
0
0
0
0
0
0
0
0
0
0
0
0
0
0
0
0
0
0
0
0
0
0
0
0
0
0
0
0
0
0
0
0
0
0
0
0
0
0
0
0
0
0
0
1839.88
1878.27
1903.71
1916.2
1915.86
1902.97
1877.96
1841.38
1793.95
1736.52
1670.06
1595.68
1514.58
1428.13
1337.73
1244.87
1150.92
1056.95
963.339
869.271
771.811
664.693
537.248
377.511
187.142
1868.17
1907.19
1933.02
1945.68
1945.28
1932.11
1906.59
1869.3
1820.97
1762.45
1694.74
1618.95
1536.32
1448.21
1356.07
1261.4
1165.64
1069.89
974.616
879.023
780.177
671.73
542.798
381.115
188.361
1835.28
1873.59
1898.99
1911.47
1911.16
1898.34
1873.41
1836.97
1789.7
1732.45
1666.2
1592.05
1511.21
1425.02
1334.9
1242.33
1148.66
1054.97
961.62
867.79
770.549
663.642
536.432
376.986
186.957
1861.81
1900.66
1926.39
1939
1938.6
1925.48
1900.06
1862.92
1814.79
1756.51
1689.08
1613.6
1531.32
1443.58
1351.84
1257.59
1162.24
1066.9
972.009
876.767
778.241
670.1
541.512
380.279
188.079
1861.81
1900.66
1926.39
1939
1938.6
1925.48
1900.06
1862.92
1814.79
1756.51
1689.08
1613.6
1531.32
1443.58
1351.84
1257.59
1162.24
1066.9
972.009
876.767
778.241
670.1
541.512
380.279
188.079
1835.28
1873.59
1898.99
1911.47
1911.16
1898.34
1873.42
1836.97
1789.7
1732.45
1666.2
1592.05
1511.21
1425.02
1334.9
1242.33
1148.67
1054.97
961.621
867.791
770.55
663.643
536.433
376.986
186.957
1868.17
1907.19
1933.02
1945.68
1945.28
1932.11
1906.59
1869.3
1820.97
1762.45
1694.74
1618.95
1536.32
1448.2
1356.07
1261.4
1165.64
1069.89
974.616
879.023
780.177
671.73
542.798
381.115
188.361
1839.88
1878.27
1903.71
1916.2
1915.86
1902.97
1877.96
1841.38
1793.95
1736.52
1670.06
1595.67
1514.58
1428.13
1337.73
1244.87
1150.92
1056.95
963.339
869.271
771.811
664.693
537.249
377.511
187.142
1861.81
1900.66
1926.39
1939
1938.6
1925.48
1900.06
1862.92
1814.79
1756.51
1689.08
1613.6
1531.32
1443.58
1351.84
1257.59
1162.24
1066.9
972.009
876.767
778.241
670.1
541.512
380.279
188.079
1835.28
1873.59
1898.99
1911.47
1911.16
1898.34
1873.41
1836.97
1789.7
1732.45
1666.2
1592.05
1511.21
1425.02
1334.9
1242.33
1148.66
1054.97
961.62
867.79
770.549
663.643
536.432
376.986
186.957
1835.28
1873.59
1898.99
1911.47
1911.16
1898.34
1873.42
1836.97
1789.7
1732.45
1666.2
1592.05
1511.21
1425.02
1334.9
1242.33
1148.67
1054.97
961.621
867.791
770.55
663.643
536.433
376.986
186.957
1861.81
1900.66
1926.39
1939
1938.6
1925.48
1900.06
1862.92
1814.79
1756.51
1689.08
1613.6
1531.32
1443.58
1351.84
1257.59
1162.24
1066.9
972.009
876.767
778.241
670.1
541.512
380.279
188.079
)
;

boundaryField
{
    outletCentralUnloaded
    {
        type            zeroGradient;
    }
    inletCentralUnloaded
    {
        type            zeroGradient;
    }
    outletFuelElement
    {
        type            zeroGradient;
    }
    inletFuelElement
    {
        type            zeroGradient;
    }
    defaultFaces
    {
        type            zeroGradient;
    }
}


// ************************************************************************* //
