/*--------------------------------*- C++ -*----------------------------------*\
| =========                 |                                                 |
| \\      /  F ield         | OpenFOAM: The Open Source CFD Toolbox           |
|  \\    /   O peration     | Version:  2212                                  |
|   \\  /    A nd           | Website:  www.openfoam.com                      |
|    \\/     M anipulation  |                                                 |
\*---------------------------------------------------------------------------*/
FoamFile
{
    version     2.0;
    format      ascii;
    arch        "LSB;label=32;scalar=64";
    class       volScalarField;
    location    "68/fluidRegion";
    object      epsilon;
}
// * * * * * * * * * * * * * * * * * * * * * * * * * * * * * * * * * * * * * //

dimensions      [0 2 -3 0 0 0 0];

internalField   nonuniform List<scalar> 
350
(
66.985
66.969
66.9531
66.937
66.9208
66.9043
66.8877
66.8711
66.8545
66.838
66.8217
66.806
66.791
66.7771
66.7648
66.755
66.7488
66.7483
66.7564
66.7778
66.8195
66.8924
67.0125
67.2047
67.5065
66.985
66.969
66.9531
66.937
66.9208
66.9043
66.8877
66.8711
66.8545
66.838
66.8217
66.806
66.791
66.7771
66.7648
66.755
66.7488
66.7483
66.7564
66.7778
66.8195
66.8924
67.0125
67.2047
67.5065
7.65523e+06
7.04461e+06
6.36877e+06
5.64895e+06
4.91299e+06
4.18645e+06
3.49149e+06
2.84615e+06
2.26393e+06
1.75367e+06
1.31969e+06
962142
677472
459124
298343
185117
109166
60858.6
31886
15619
7152.31
3117.59
1385.81
735.662
547.111
7.82099e+06
7.1986e+06
6.50965e+06
5.77526e+06
5.02398e+06
4.28194e+06
3.57183e+06
2.91216e+06
2.31677e+06
1.79478e+06
1.35068e+06
984682
693214
469629
305003
189102
111401
62022.5
32441.4
15857.5
7241.95
3145.96
1393
737.106
547.534
7.62812e+06
7.01935e+06
6.34577e+06
5.6284e+06
4.895e+06
4.17103e+06
3.47857e+06
2.83557e+06
2.25549e+06
1.74712e+06
1.31478e+06
958580
674990
457472
297297
184490
108814
60674.5
31797.3
15580.1
7137.08
3112.32
1384.18
735.171
546.935
7.78427e+06
7.16443e+06
6.4783e+06
5.74708e+06
4.99916e+06
4.26054e+06
3.55379e+06
2.8973e+06
2.30485e+06
1.78549e+06
1.34367e+06
979566
689634
467236
303483
188191
110890
61756.2
32314.3
15802.9
7221.51
3139.54
1391.41
736.807
547.454
7.78427e+06
7.16443e+06
6.4783e+06
5.74708e+06
4.99916e+06
4.26054e+06
3.55379e+06
2.8973e+06
2.30485e+06
1.78549e+06
1.34367e+06
979566
689635
467236
303484
188192
110890
61756.2
32314.3
15802.9
7221.5
3139.54
1391.41
736.807
547.454
7.62813e+06
7.01936e+06
6.34578e+06
5.62841e+06
4.89501e+06
4.17104e+06
3.47858e+06
2.83558e+06
2.25549e+06
1.74713e+06
1.31478e+06
958582
674992
457472
297298
184491
108814
60674.6
31797.3
15580.1
7137.07
3112.31
1384.18
735.168
546.933
7.82099e+06
7.1986e+06
6.50965e+06
5.77526e+06
5.02398e+06
4.28194e+06
3.57183e+06
2.91216e+06
2.31677e+06
1.79478e+06
1.35068e+06
984682
693214
469629
305003
189102
111401
62022.5
32441.4
15857.5
7241.94
3145.96
1393
737.106
547.534
7.65523e+06
7.04461e+06
6.36877e+06
5.64895e+06
4.91299e+06
4.18645e+06
3.49149e+06
2.84615e+06
2.26393e+06
1.75367e+06
1.31969e+06
962142
677472
459124
298343
185116
109166
60858.6
31886
15619
7152.31
3117.59
1385.81
735.66
547.109
7.78427e+06
7.16443e+06
6.4783e+06
5.74708e+06
4.99916e+06
4.26054e+06
3.55379e+06
2.8973e+06
2.30485e+06
1.78549e+06
1.34367e+06
979566
689635
467236
303484
188192
110890
61756.2
32314.3
15802.9
7221.51
3139.54
1391.41
736.807
547.454
7.62812e+06
7.01935e+06
6.34577e+06
5.6284e+06
4.895e+06
4.17103e+06
3.47857e+06
2.83557e+06
2.25549e+06
1.74712e+06
1.31478e+06
958580
674991
457472
297297
184490
108814
60674.5
31797.3
15580.1
7137.08
3112.32
1384.18
735.175
546.938
7.62813e+06
7.01936e+06
6.34578e+06
5.62841e+06
4.89501e+06
4.17104e+06
3.47858e+06
2.83558e+06
2.25549e+06
1.74713e+06
1.31478e+06
958582
674992
457472
297298
184491
108814
60674.6
31797.3
15580.1
7137.07
3112.31
1384.18
735.168
546.934
7.78427e+06
7.16443e+06
6.4783e+06
5.74708e+06
4.99916e+06
4.26054e+06
3.55379e+06
2.8973e+06
2.30485e+06
1.78549e+06
1.34367e+06
979566
689634
467236
303483
188191
110890
61756.1
32314.3
15802.9
7221.5
3139.53
1391.4
736.805
547.453
)
;

boundaryField
{
    outletCentralUnloaded
    {
        type            zeroGradient;
    }
    inletCentralUnloaded
    {
        type            zeroGradient;
    }
    outletFuelElement
    {
        type            zeroGradient;
    }
    inletFuelElement
    {
        type            zeroGradient;
    }
    defaultFaces
    {
        type            zeroGradient;
    }
    baffle_master
    {
        type            zeroGradient;
    }
    baffle_slave
    {
        type            zeroGradient;
    }
}


// ************************************************************************* //
