/*--------------------------------*- C++ -*----------------------------------*\
| =========                 |                                                 |
| \\      /  F ield         | OpenFOAM: The Open Source CFD Toolbox           |
|  \\    /   O peration     | Version:  2212                                  |
|   \\  /    A nd           | Website:  www.openfoam.com                      |
|    \\/     M anipulation  |                                                 |
\*---------------------------------------------------------------------------*/
FoamFile
{
    version     2.0;
    format      ascii;
    arch        "LSB;label=32;scalar=64";
    class       volScalarField;
    location    "68/fluidRegion";
    object      htc;
}
// * * * * * * * * * * * * * * * * * * * * * * * * * * * * * * * * * * * * * //

dimensions      [1 0 -3 -1 0 0 0];

internalField   nonuniform List<scalar> 
350
(
3101.6
3101.59
3101.54
3101.49
3101.43
3101.39
3101.36
3101.34
3101.34
3101.35
3101.37
3101.41
3101.45
3101.5
3101.57
3101.64
3101.71
3101.78
3101.83
3101.88
3101.9
3101.9
3101.88
3101.85
3106.95
3101.6
3101.59
3101.54
3101.49
3101.43
3101.39
3101.36
3101.34
3101.34
3101.35
3101.37
3101.41
3101.45
3101.5
3101.57
3101.64
3101.71
3101.78
3101.83
3101.88
3101.9
3101.9
3101.88
3101.85
3106.95
27257.8
27176.2
26988.8
26676.4
26240.3
25682.8
25006.7
24215.9
23315.6
22312.8
21217.2
20041.1
18799.9
17510.2
16188.5
14848.9
13501.6
12154.7
10817.4
9505.81
8247.93
7090.34
6104.22
5383.44
4944.18
27346.7
27264.8
27078
26765.6
26329.1
25770.6
25092.9
24299.7
23396.2
22389
21287.7
20104.7
18855.3
17556.9
16226.7
14879.4
13525.6
12173.4
10831.5
9515.38
8252.91
7090.84
6101.18
5379.2
4942.21
27243.7
27161.7
26974.3
26661.9
26226
25668.7
24992.9
24202.5
23302.7
22300.7
21206
20031.1
18791.1
17502.7
16182.3
14843.9
13497.5
12151.4
10814.8
9503.79
8246.52
7089.5
6103.81
5383.18
4944.04
27327
27245.2
27058.2
26745.8
26309.3
25751
25073.6
24280.9
23378
22371.8
21271.8
20090.3
18842.7
17546.3
16218.1
14872.5
13520.2
12169.2
10828.4
9513.28
8251.86
7090.83
6101.99
5380.3
4942.73
27327
27245.2
27058.2
26745.8
26309.3
25751
25073.6
24280.9
23378
22371.8
21271.8
20090.3
18842.7
17546.3
16218.1
14872.5
13520.2
12169.2
10828.4
9513.28
8251.86
7090.83
6101.99
5380.3
4942.73
27243.7
27161.7
26974.3
26661.9
26226
25668.7
24992.9
24202.5
23302.7
22300.7
21206
20031.1
18791.1
17502.7
16182.4
14843.9
13497.5
12151.4
10814.8
9503.78
8246.51
7089.49
6103.8
5383.17
4944.03
27346.7
27264.8
27078
26765.6
26329.1
25770.6
25092.9
24299.7
23396.2
22389
21287.7
20104.7
18855.3
17556.9
16226.7
14879.4
13525.6
12173.4
10831.5
9515.38
8252.91
7090.84
6101.18
5379.2
4942.21
27257.8
27176.2
26988.8
26676.4
26240.3
25682.8
25006.7
24215.9
23315.6
22312.8
21217.2
20041.1
18799.9
17510.2
16188.5
14848.9
13501.6
12154.7
10817.4
9505.81
8247.92
7090.34
6104.22
5383.44
4944.18
27327
27245.2
27058.2
26745.8
26309.3
25751
25073.6
24280.9
23378
22371.8
21271.8
20090.3
18842.7
17546.3
16218.1
14872.5
13520.2
12169.2
10828.4
9513.28
8251.86
7090.83
6101.99
5380.3
4942.73
27243.7
27161.7
26974.3
26661.9
26226
25668.7
24992.9
24202.5
23302.7
22300.7
21206
20031.1
18791.1
17502.7
16182.4
14843.9
13497.5
12151.4
10814.8
9503.79
8246.52
7089.5
6103.81
5383.18
4944.04
27243.7
27161.7
26974.3
26661.9
26226
25668.7
24992.9
24202.5
23302.7
22300.7
21206
20031.1
18791.1
17502.7
16182.4
14843.9
13497.5
12151.4
10814.8
9503.78
8246.51
7089.49
6103.8
5383.17
4944.03
27327
27245.2
27058.2
26745.8
26309.3
25751
25073.6
24280.9
23378
22371.8
21271.8
20090.3
18842.7
17546.3
16218.1
14872.5
13520.2
12169.2
10828.4
9513.28
8251.86
7090.83
6101.99
5380.3
4942.73
)
;

boundaryField
{
    outletCentralUnloaded
    {
        type            zeroGradient;
    }
    inletCentralUnloaded
    {
        type            zeroGradient;
    }
    outletFuelElement
    {
        type            zeroGradient;
    }
    inletFuelElement
    {
        type            zeroGradient;
    }
    defaultFaces
    {
        type            zeroGradient;
    }
    baffle_master
    {
        type            zeroGradient;
    }
    baffle_slave
    {
        type            zeroGradient;
    }
}


// ************************************************************************* //
