/*--------------------------------*- C++ -*----------------------------------*\
| =========                 |                                                 |
| \\      /  F ield         | OpenFOAM: The Open Source CFD Toolbox           |
|  \\    /   O peration     | Version:  2212                                  |
|   \\  /    A nd           | Website:  www.openfoam.com                      |
|    \\/     M anipulation  |                                                 |
\*---------------------------------------------------------------------------*/
FoamFile
{
    version     2.0;
    format      ascii;
    arch        "LSB;label=32;scalar=64";
    class       volScalarField;
    location    "68/fluidRegion";
    object      k;
}
// * * * * * * * * * * * * * * * * * * * * * * * * * * * * * * * * * * * * * //

dimensions      [0 2 -2 0 0 0 0];

internalField   nonuniform List<scalar> 
350
(
0.421089
0.42102
0.420954
0.420888
0.420823
0.420755
0.420685
0.420614
0.420544
0.420476
0.420411
0.420349
0.420291
0.420238
0.420193
0.42016
0.420147
0.420165
0.420228
0.420363
0.420607
0.421017
0.421681
0.422733
0.424377
0.421089
0.42102
0.420954
0.420888
0.420823
0.420755
0.420685
0.420614
0.420544
0.420476
0.420411
0.420349
0.420291
0.420238
0.420193
0.42016
0.420147
0.420165
0.420228
0.420363
0.420607
0.421017
0.421681
0.422733
0.424377
406.886
384.283
358.578
330.282
300.179
269.048
237.636
206.644
176.71
148.396
122.179
98.4399
77.4513
59.3696
44.2263
31.9288
22.2719
14.962
9.64994
5.96604
3.55017
2.07279
1.25016
0.853304
0.71326
412.61
389.741
363.732
335.081
304.586
273.036
241.19
209.758
179.389
150.655
124.041
99.9344
78.6161
60.2472
44.8627
32.3707
22.564
15.1443
9.75618
6.02287
3.57737
2.08399
1.25393
0.854332
0.713647
405.939
383.377
357.727
329.492
299.457
268.397
237.058
206.14
176.277
148.033
121.881
98.201
77.2656
59.2299
44.1251
31.8585
22.2254
14.9328
9.63272
5.95662
3.54545
2.07065
1.24928
0.852961
0.713127
411.353
388.54
362.595
334.02
303.609
272.15
240.398
209.063
178.79
150.148
123.622
99.5975
78.3529
60.0485
44.7183
32.2702
22.4975
15.1028
9.73197
6.00993
3.57118
2.08146
1.2531
0.854118
0.713572
411.353
388.54
362.595
334.02
303.609
272.15
240.398
209.063
178.79
150.148
123.622
99.5975
78.3529
60.0485
44.7183
32.2703
22.4975
15.1028
9.73197
6.00993
3.57118
2.08146
1.2531
0.854118
0.713572
405.939
383.378
357.727
329.493
299.457
268.397
237.059
206.14
176.278
148.033
121.881
98.2011
77.2658
59.23
44.1252
31.8586
22.2254
14.9328
9.63274
5.95663
3.54545
2.07065
1.24928
0.852961
0.713127
412.61
389.741
363.732
335.081
304.586
273.036
241.19
209.758
179.389
150.655
124.041
99.9343
78.6161
60.2472
44.8626
32.3707
22.564
15.1443
9.75618
6.02288
3.57737
2.08399
1.25393
0.854332
0.713647
406.886
384.283
358.578
330.282
300.179
269.048
237.636
206.644
176.71
148.396
122.179
98.4399
77.4513
59.3696
44.2263
31.9288
22.2719
14.962
9.64994
5.96605
3.55018
2.0728
1.25017
0.853309
0.713263
411.353
388.54
362.595
334.02
303.609
272.15
240.398
209.063
178.79
150.148
123.622
99.5975
78.3529
60.0485
44.7183
32.2703
22.4975
15.1028
9.73197
6.00993
3.57119
2.08147
1.2531
0.85412
0.713573
405.939
383.377
357.727
329.492
299.457
268.397
237.058
206.14
176.277
148.033
121.881
98.201
77.2656
59.2299
44.1251
31.8585
22.2254
14.9328
9.6327
5.9566
3.54543
2.07064
1.24927
0.852954
0.713122
405.939
383.378
357.727
329.493
299.457
268.397
237.059
206.14
176.278
148.033
121.881
98.2012
77.2658
59.2301
44.1252
31.8586
22.2254
14.9328
9.63275
5.95663
3.54545
2.07065
1.24928
0.85296
0.713125
411.353
388.54
362.595
334.02
303.609
272.15
240.398
209.063
178.79
150.148
123.622
99.5975
78.353
60.0485
44.7183
32.2703
22.4975
15.1028
9.73198
6.00994
3.5712
2.08148
1.25311
0.854126
0.713577
)
;

boundaryField
{
    outletCentralUnloaded
    {
        type            zeroGradient;
    }
    inletCentralUnloaded
    {
        type            zeroGradient;
    }
    outletFuelElement
    {
        type            zeroGradient;
    }
    inletFuelElement
    {
        type            zeroGradient;
    }
    defaultFaces
    {
        type            zeroGradient;
    }
    baffle_master
    {
        type            zeroGradient;
    }
    baffle_slave
    {
        type            zeroGradient;
    }
}


// ************************************************************************* //
