/*--------------------------------*- C++ -*----------------------------------*\
| =========                 |                                                 |
| \\      /  F ield         | OpenFOAM: The Open Source CFD Toolbox           |
|  \\    /   O peration     | Version:  2212                                  |
|   \\  /    A nd           | Website:  www.openfoam.com                      |
|    \\/     M anipulation  |                                                 |
\*---------------------------------------------------------------------------*/
FoamFile
{
    version     2.0;
    format      ascii;
    arch        "LSB;label=32;scalar=64";
    class       volTensorField;
    location    "68/fluidRegion";
    object      Kd;
}
// * * * * * * * * * * * * * * * * * * * * * * * * * * * * * * * * * * * * * //

dimensions      [1 -3 -1 0 0 0 0];

internalField   nonuniform List<tensor> 
350
(
(84.7477 0 0 0 84.7477 0 0 0 84.7477)
(84.7469 0 0 0 84.7469 0 0 0 84.7469)
(84.7454 0 0 0 84.7454 0 0 0 84.7454)
(84.7436 0 0 0 84.7436 0 0 0 84.7436)
(84.7417 0 0 0 84.7417 0 0 0 84.7417)
(84.7401 0 0 0 84.7401 0 0 0 84.7401)
(84.7388 0 0 0 84.7388 0 0 0 84.7388)
(84.738 0 0 0 84.738 0 0 0 84.738)
(84.7375 0 0 0 84.7375 0 0 0 84.7375)
(84.7374 0 0 0 84.7374 0 0 0 84.7374)
(84.7376 0 0 0 84.7376 0 0 0 84.7376)
(84.7381 0 0 0 84.7381 0 0 0 84.7381)
(84.7388 0 0 0 84.7388 0 0 0 84.7388)
(84.7397 0 0 0 84.7397 0 0 0 84.7397)
(84.7409 0 0 0 84.7409 0 0 0 84.7409)
(84.7422 0 0 0 84.7422 0 0 0 84.7422)
(84.7437 0 0 0 84.7437 0 0 0 84.7437)
(84.745 0 0 0 84.745 0 0 0 84.745)
(84.746 0 0 0 84.746 0 0 0 84.746)
(84.7467 0 0 0 84.7467 0 0 0 84.7467)
(84.7468 0 0 0 84.7468 0 0 0 84.7468)
(84.7464 0 0 0 84.7464 0 0 0 84.7464)
(84.7456 0 0 0 84.7456 0 0 0 84.7456)
(84.7443 0 0 0 84.7443 0 0 0 84.7443)
(84.8746 0 0 0 84.8746 0 0 0 84.8746)
(84.7477 0 0 0 84.7477 0 0 0 84.7477)
(84.7469 0 0 0 84.7469 0 0 0 84.7469)
(84.7454 0 0 0 84.7454 0 0 0 84.7454)
(84.7436 0 0 0 84.7436 0 0 0 84.7436)
(84.7417 0 0 0 84.7417 0 0 0 84.7417)
(84.7401 0 0 0 84.7401 0 0 0 84.7401)
(84.7388 0 0 0 84.7388 0 0 0 84.7388)
(84.738 0 0 0 84.738 0 0 0 84.738)
(84.7375 0 0 0 84.7375 0 0 0 84.7375)
(84.7374 0 0 0 84.7374 0 0 0 84.7374)
(84.7376 0 0 0 84.7376 0 0 0 84.7376)
(84.7381 0 0 0 84.7381 0 0 0 84.7381)
(84.7388 0 0 0 84.7388 0 0 0 84.7388)
(84.7397 0 0 0 84.7397 0 0 0 84.7397)
(84.7409 0 0 0 84.7409 0 0 0 84.7409)
(84.7422 0 0 0 84.7422 0 0 0 84.7422)
(84.7437 0 0 0 84.7437 0 0 0 84.7437)
(84.745 0 0 0 84.745 0 0 0 84.745)
(84.746 0 0 0 84.746 0 0 0 84.746)
(84.7467 0 0 0 84.7467 0 0 0 84.7467)
(84.7468 0 0 0 84.7468 0 0 0 84.7468)
(84.7464 0 0 0 84.7464 0 0 0 84.7464)
(84.7456 0 0 0 84.7456 0 0 0 84.7456)
(84.7443 0 0 0 84.7443 0 0 0 84.7443)
(84.8746 0 0 0 84.8746 0 0 0 84.8746)
(682.654 0 0 0 682.654 0 0 0 682.654)
(682.201 0 0 0 682.201 0 0 0 682.201)
(682.212 0 0 0 682.212 0 0 0 682.212)
(682.214 0 0 0 682.214 0 0 0 682.214)
(682.205 0 0 0 682.205 0 0 0 682.205)
(682.183 0 0 0 682.183 0 0 0 682.183)
(682.147 0 0 0 682.147 0 0 0 682.147)
(682.095 0 0 0 682.095 0 0 0 682.095)
(682.025 0 0 0 682.025 0 0 0 682.025)
(681.936 0 0 0 681.936 0 0 0 681.936)
(681.826 0 0 0 681.826 0 0 0 681.826)
(681.695 0 0 0 681.695 0 0 0 681.695)
(681.542 0 0 0 681.542 0 0 0 681.542)
(681.369 0 0 0 681.369 0 0 0 681.369)
(681.173 0 0 0 681.173 0 0 0 681.173)
(680.943 0 0 0 680.943 0 0 0 680.943)
(680.664 0 0 0 680.664 0 0 0 680.664)
(680.317 0 0 0 680.317 0 0 0 680.317)
(679.895 0 0 0 679.895 0 0 0 679.895)
(679.452 0 0 0 679.452 0 0 0 679.452)
(679.168 0 0 0 679.168 0 0 0 679.168)
(679.594 0 0 0 679.594 0 0 0 679.594)
(682.063 0 0 0 682.063 0 0 0 682.063)
(688.946 0 0 0 688.946 0 0 0 688.946)
(693.464 0 0 0 693.464 0 0 0 693.464)
(678.113 0 0 0 678.113 0 0 0 678.113)
(677.589 0 0 0 677.589 0 0 0 677.589)
(677.561 0 0 0 677.561 0 0 0 677.561)
(677.525 0 0 0 677.525 0 0 0 677.525)
(677.48 0 0 0 677.48 0 0 0 677.48)
(677.425 0 0 0 677.425 0 0 0 677.425)
(677.358 0 0 0 677.358 0 0 0 677.358)
(677.277 0 0 0 677.277 0 0 0 677.277)
(677.181 0 0 0 677.181 0 0 0 677.181)
(677.068 0 0 0 677.068 0 0 0 677.068)
(676.937 0 0 0 676.937 0 0 0 676.937)
(676.794 0 0 0 676.794 0 0 0 676.794)
(676.645 0 0 0 676.645 0 0 0 676.645)
(676.498 0 0 0 676.498 0 0 0 676.498)
(676.361 0 0 0 676.361 0 0 0 676.361)
(676.234 0 0 0 676.234 0 0 0 676.234)
(676.105 0 0 0 676.105 0 0 0 676.105)
(675.958 0 0 0 675.958 0 0 0 675.958)
(675.787 0 0 0 675.787 0 0 0 675.787)
(675.648 0 0 0 675.648 0 0 0 675.648)
(675.737 0 0 0 675.737 0 0 0 675.737)
(676.635 0 0 0 676.635 0 0 0 676.635)
(679.732 0 0 0 679.732 0 0 0 679.732)
(687.455 0 0 0 687.455 0 0 0 687.455)
(692.979 0 0 0 692.979 0 0 0 692.979)
(683.413 0 0 0 683.413 0 0 0 683.413)
(682.956 0 0 0 682.956 0 0 0 682.956)
(682.971 0 0 0 682.971 0 0 0 682.971)
(682.976 0 0 0 682.976 0 0 0 682.976)
(682.968 0 0 0 682.968 0 0 0 682.968)
(682.948 0 0 0 682.948 0 0 0 682.948)
(682.913 0 0 0 682.913 0 0 0 682.913)
(682.863 0 0 0 682.863 0 0 0 682.863)
(682.794 0 0 0 682.794 0 0 0 682.794)
(682.704 0 0 0 682.704 0 0 0 682.704)
(682.593 0 0 0 682.593 0 0 0 682.593)
(682.458 0 0 0 682.458 0 0 0 682.458)
(682.3 0 0 0 682.3 0 0 0 682.3)
(682.116 0 0 0 682.116 0 0 0 682.116)
(681.903 0 0 0 681.903 0 0 0 681.903)
(681.65 0 0 0 681.65 0 0 0 681.65)
(681.339 0 0 0 681.339 0 0 0 681.339)
(680.951 0 0 0 680.951 0 0 0 680.951)
(680.479 0 0 0 680.479 0 0 0 680.479)
(679.977 0 0 0 679.977 0 0 0 679.977)
(679.621 0 0 0 679.621 0 0 0 679.621)
(679.956 0 0 0 679.956 0 0 0 679.956)
(682.31 0 0 0 682.31 0 0 0 682.31)
(689.057 0 0 0 689.057 0 0 0 689.057)
(693.481 0 0 0 693.481 0 0 0 693.481)
(679.129 0 0 0 679.129 0 0 0 679.129)
(678.625 0 0 0 678.625 0 0 0 678.625)
(678.608 0 0 0 678.608 0 0 0 678.608)
(678.583 0 0 0 678.583 0 0 0 678.583)
(678.548 0 0 0 678.548 0 0 0 678.548)
(678.502 0 0 0 678.502 0 0 0 678.502)
(678.444 0 0 0 678.444 0 0 0 678.444)
(678.372 0 0 0 678.372 0 0 0 678.372)
(678.283 0 0 0 678.283 0 0 0 678.283)
(678.177 0 0 0 678.177 0 0 0 678.177)
(678.053 0 0 0 678.053 0 0 0 678.053)
(677.915 0 0 0 677.915 0 0 0 677.915)
(677.766 0 0 0 677.766 0 0 0 677.766)
(677.615 0 0 0 677.615 0 0 0 677.615)
(677.467 0 0 0 677.467 0 0 0 677.467)
(677.318 0 0 0 677.318 0 0 0 677.318)
(677.156 0 0 0 677.156 0 0 0 677.156)
(676.965 0 0 0 676.965 0 0 0 676.965)
(676.738 0 0 0 676.738 0 0 0 676.738)
(676.531 0 0 0 676.531 0 0 0 676.531)
(676.536 0 0 0 676.536 0 0 0 676.536)
(677.328 0 0 0 677.328 0 0 0 677.328)
(680.283 0 0 0 680.283 0 0 0 680.283)
(687.815 0 0 0 687.815 0 0 0 687.815)
(693.099 0 0 0 693.099 0 0 0 693.099)
(679.129 0 0 0 679.129 0 0 0 679.129)
(678.625 0 0 0 678.625 0 0 0 678.625)
(678.608 0 0 0 678.608 0 0 0 678.608)
(678.583 0 0 0 678.583 0 0 0 678.583)
(678.548 0 0 0 678.548 0 0 0 678.548)
(678.502 0 0 0 678.502 0 0 0 678.502)
(678.444 0 0 0 678.444 0 0 0 678.444)
(678.372 0 0 0 678.372 0 0 0 678.372)
(678.283 0 0 0 678.283 0 0 0 678.283)
(678.177 0 0 0 678.177 0 0 0 678.177)
(678.053 0 0 0 678.053 0 0 0 678.053)
(677.915 0 0 0 677.915 0 0 0 677.915)
(677.766 0 0 0 677.766 0 0 0 677.766)
(677.615 0 0 0 677.615 0 0 0 677.615)
(677.467 0 0 0 677.467 0 0 0 677.467)
(677.318 0 0 0 677.318 0 0 0 677.318)
(677.156 0 0 0 677.156 0 0 0 677.156)
(676.965 0 0 0 676.965 0 0 0 676.965)
(676.738 0 0 0 676.738 0 0 0 676.738)
(676.531 0 0 0 676.531 0 0 0 676.531)
(676.536 0 0 0 676.536 0 0 0 676.536)
(677.328 0 0 0 677.328 0 0 0 677.328)
(680.283 0 0 0 680.283 0 0 0 680.283)
(687.815 0 0 0 687.815 0 0 0 687.815)
(693.099 0 0 0 693.099 0 0 0 693.099)
(683.412 0 0 0 683.412 0 0 0 683.412)
(682.955 0 0 0 682.955 0 0 0 682.955)
(682.971 0 0 0 682.971 0 0 0 682.971)
(682.976 0 0 0 682.976 0 0 0 682.976)
(682.968 0 0 0 682.968 0 0 0 682.968)
(682.948 0 0 0 682.948 0 0 0 682.948)
(682.913 0 0 0 682.913 0 0 0 682.913)
(682.862 0 0 0 682.862 0 0 0 682.862)
(682.793 0 0 0 682.793 0 0 0 682.793)
(682.704 0 0 0 682.704 0 0 0 682.704)
(682.592 0 0 0 682.592 0 0 0 682.592)
(682.458 0 0 0 682.458 0 0 0 682.458)
(682.299 0 0 0 682.299 0 0 0 682.299)
(682.116 0 0 0 682.116 0 0 0 682.116)
(681.903 0 0 0 681.903 0 0 0 681.903)
(681.649 0 0 0 681.649 0 0 0 681.649)
(681.338 0 0 0 681.338 0 0 0 681.338)
(680.95 0 0 0 680.95 0 0 0 680.95)
(680.479 0 0 0 680.479 0 0 0 680.479)
(679.976 0 0 0 679.976 0 0 0 679.976)
(679.619 0 0 0 679.619 0 0 0 679.619)
(679.955 0 0 0 679.955 0 0 0 679.955)
(682.309 0 0 0 682.309 0 0 0 682.309)
(689.056 0 0 0 689.056 0 0 0 689.056)
(693.48 0 0 0 693.48 0 0 0 693.48)
(678.113 0 0 0 678.113 0 0 0 678.113)
(677.589 0 0 0 677.589 0 0 0 677.589)
(677.561 0 0 0 677.561 0 0 0 677.561)
(677.525 0 0 0 677.525 0 0 0 677.525)
(677.48 0 0 0 677.48 0 0 0 677.48)
(677.425 0 0 0 677.425 0 0 0 677.425)
(677.358 0 0 0 677.358 0 0 0 677.358)
(677.277 0 0 0 677.277 0 0 0 677.277)
(677.181 0 0 0 677.181 0 0 0 677.181)
(677.068 0 0 0 677.068 0 0 0 677.068)
(676.937 0 0 0 676.937 0 0 0 676.937)
(676.794 0 0 0 676.794 0 0 0 676.794)
(676.645 0 0 0 676.645 0 0 0 676.645)
(676.498 0 0 0 676.498 0 0 0 676.498)
(676.361 0 0 0 676.361 0 0 0 676.361)
(676.234 0 0 0 676.234 0 0 0 676.234)
(676.105 0 0 0 676.105 0 0 0 676.105)
(675.958 0 0 0 675.958 0 0 0 675.958)
(675.787 0 0 0 675.787 0 0 0 675.787)
(675.648 0 0 0 675.648 0 0 0 675.648)
(675.737 0 0 0 675.737 0 0 0 675.737)
(676.635 0 0 0 676.635 0 0 0 676.635)
(679.732 0 0 0 679.732 0 0 0 679.732)
(687.455 0 0 0 687.455 0 0 0 687.455)
(692.979 0 0 0 692.979 0 0 0 692.979)
(682.654 0 0 0 682.654 0 0 0 682.654)
(682.201 0 0 0 682.201 0 0 0 682.201)
(682.212 0 0 0 682.212 0 0 0 682.212)
(682.214 0 0 0 682.214 0 0 0 682.214)
(682.205 0 0 0 682.205 0 0 0 682.205)
(682.183 0 0 0 682.183 0 0 0 682.183)
(682.147 0 0 0 682.147 0 0 0 682.147)
(682.095 0 0 0 682.095 0 0 0 682.095)
(682.026 0 0 0 682.026 0 0 0 682.026)
(681.936 0 0 0 681.936 0 0 0 681.936)
(681.826 0 0 0 681.826 0 0 0 681.826)
(681.695 0 0 0 681.695 0 0 0 681.695)
(681.542 0 0 0 681.542 0 0 0 681.542)
(681.369 0 0 0 681.369 0 0 0 681.369)
(681.173 0 0 0 681.173 0 0 0 681.173)
(680.943 0 0 0 680.943 0 0 0 680.943)
(680.664 0 0 0 680.664 0 0 0 680.664)
(680.317 0 0 0 680.317 0 0 0 680.317)
(679.895 0 0 0 679.895 0 0 0 679.895)
(679.452 0 0 0 679.452 0 0 0 679.452)
(679.168 0 0 0 679.168 0 0 0 679.168)
(679.594 0 0 0 679.594 0 0 0 679.594)
(682.063 0 0 0 682.063 0 0 0 682.063)
(688.946 0 0 0 688.946 0 0 0 688.946)
(693.464 0 0 0 693.464 0 0 0 693.464)
(679.129 0 0 0 679.129 0 0 0 679.129)
(678.625 0 0 0 678.625 0 0 0 678.625)
(678.608 0 0 0 678.608 0 0 0 678.608)
(678.583 0 0 0 678.583 0 0 0 678.583)
(678.548 0 0 0 678.548 0 0 0 678.548)
(678.502 0 0 0 678.502 0 0 0 678.502)
(678.444 0 0 0 678.444 0 0 0 678.444)
(678.372 0 0 0 678.372 0 0 0 678.372)
(678.283 0 0 0 678.283 0 0 0 678.283)
(678.177 0 0 0 678.177 0 0 0 678.177)
(678.053 0 0 0 678.053 0 0 0 678.053)
(677.915 0 0 0 677.915 0 0 0 677.915)
(677.766 0 0 0 677.766 0 0 0 677.766)
(677.615 0 0 0 677.615 0 0 0 677.615)
(677.467 0 0 0 677.467 0 0 0 677.467)
(677.318 0 0 0 677.318 0 0 0 677.318)
(677.156 0 0 0 677.156 0 0 0 677.156)
(676.965 0 0 0 676.965 0 0 0 676.965)
(676.738 0 0 0 676.738 0 0 0 676.738)
(676.531 0 0 0 676.531 0 0 0 676.531)
(676.536 0 0 0 676.536 0 0 0 676.536)
(677.328 0 0 0 677.328 0 0 0 677.328)
(680.283 0 0 0 680.283 0 0 0 680.283)
(687.815 0 0 0 687.815 0 0 0 687.815)
(693.099 0 0 0 693.099 0 0 0 693.099)
(683.413 0 0 0 683.413 0 0 0 683.413)
(682.956 0 0 0 682.956 0 0 0 682.956)
(682.971 0 0 0 682.971 0 0 0 682.971)
(682.976 0 0 0 682.976 0 0 0 682.976)
(682.968 0 0 0 682.968 0 0 0 682.968)
(682.948 0 0 0 682.948 0 0 0 682.948)
(682.913 0 0 0 682.913 0 0 0 682.913)
(682.863 0 0 0 682.863 0 0 0 682.863)
(682.794 0 0 0 682.794 0 0 0 682.794)
(682.704 0 0 0 682.704 0 0 0 682.704)
(682.593 0 0 0 682.593 0 0 0 682.593)
(682.458 0 0 0 682.458 0 0 0 682.458)
(682.299 0 0 0 682.299 0 0 0 682.299)
(682.116 0 0 0 682.116 0 0 0 682.116)
(681.903 0 0 0 681.903 0 0 0 681.903)
(681.65 0 0 0 681.65 0 0 0 681.65)
(681.339 0 0 0 681.339 0 0 0 681.339)
(680.951 0 0 0 680.951 0 0 0 680.951)
(680.479 0 0 0 680.479 0 0 0 680.479)
(679.977 0 0 0 679.977 0 0 0 679.977)
(679.62 0 0 0 679.62 0 0 0 679.62)
(679.956 0 0 0 679.956 0 0 0 679.956)
(682.31 0 0 0 682.31 0 0 0 682.31)
(689.058 0 0 0 689.058 0 0 0 689.058)
(693.481 0 0 0 693.481 0 0 0 693.481)
(683.413 0 0 0 683.413 0 0 0 683.413)
(682.955 0 0 0 682.955 0 0 0 682.955)
(682.971 0 0 0 682.971 0 0 0 682.971)
(682.976 0 0 0 682.976 0 0 0 682.976)
(682.968 0 0 0 682.968 0 0 0 682.968)
(682.948 0 0 0 682.948 0 0 0 682.948)
(682.913 0 0 0 682.913 0 0 0 682.913)
(682.862 0 0 0 682.862 0 0 0 682.862)
(682.793 0 0 0 682.793 0 0 0 682.793)
(682.704 0 0 0 682.704 0 0 0 682.704)
(682.592 0 0 0 682.592 0 0 0 682.592)
(682.458 0 0 0 682.458 0 0 0 682.458)
(682.299 0 0 0 682.299 0 0 0 682.299)
(682.116 0 0 0 682.116 0 0 0 682.116)
(681.903 0 0 0 681.903 0 0 0 681.903)
(681.649 0 0 0 681.649 0 0 0 681.649)
(681.338 0 0 0 681.338 0 0 0 681.338)
(680.95 0 0 0 680.95 0 0 0 680.95)
(680.479 0 0 0 680.479 0 0 0 680.479)
(679.976 0 0 0 679.976 0 0 0 679.976)
(679.62 0 0 0 679.62 0 0 0 679.62)
(679.955 0 0 0 679.955 0 0 0 679.955)
(682.309 0 0 0 682.309 0 0 0 682.309)
(689.056 0 0 0 689.056 0 0 0 689.056)
(693.48 0 0 0 693.48 0 0 0 693.48)
(679.129 0 0 0 679.129 0 0 0 679.129)
(678.625 0 0 0 678.625 0 0 0 678.625)
(678.608 0 0 0 678.608 0 0 0 678.608)
(678.583 0 0 0 678.583 0 0 0 678.583)
(678.548 0 0 0 678.548 0 0 0 678.548)
(678.502 0 0 0 678.502 0 0 0 678.502)
(678.444 0 0 0 678.444 0 0 0 678.444)
(678.372 0 0 0 678.372 0 0 0 678.372)
(678.283 0 0 0 678.283 0 0 0 678.283)
(678.177 0 0 0 678.177 0 0 0 678.177)
(678.053 0 0 0 678.053 0 0 0 678.053)
(677.915 0 0 0 677.915 0 0 0 677.915)
(677.766 0 0 0 677.766 0 0 0 677.766)
(677.615 0 0 0 677.615 0 0 0 677.615)
(677.467 0 0 0 677.467 0 0 0 677.467)
(677.318 0 0 0 677.318 0 0 0 677.318)
(677.156 0 0 0 677.156 0 0 0 677.156)
(676.965 0 0 0 676.965 0 0 0 676.965)
(676.738 0 0 0 676.738 0 0 0 676.738)
(676.531 0 0 0 676.531 0 0 0 676.531)
(676.536 0 0 0 676.536 0 0 0 676.536)
(677.328 0 0 0 677.328 0 0 0 677.328)
(680.283 0 0 0 680.283 0 0 0 680.283)
(687.815 0 0 0 687.815 0 0 0 687.815)
(693.099 0 0 0 693.099 0 0 0 693.099)
)
;

boundaryField
{
    outletCentralUnloaded
    {
        type            zeroGradient;
    }
    inletCentralUnloaded
    {
        type            zeroGradient;
    }
    outletFuelElement
    {
        type            zeroGradient;
    }
    inletFuelElement
    {
        type            zeroGradient;
    }
    defaultFaces
    {
        type            zeroGradient;
    }
    baffle_master
    {
        type            zeroGradient;
    }
    baffle_slave
    {
        type            zeroGradient;
    }
}


// ************************************************************************* //
