/*--------------------------------*- C++ -*----------------------------------*\
| =========                 |                                                 |
| \\      /  F ield         | OpenFOAM: The Open Source CFD Toolbox           |
|  \\    /   O peration     | Version:  2212                                  |
|   \\  /    A nd           | Website:  www.openfoam.com                      |
|    \\/     M anipulation  |                                                 |
\*---------------------------------------------------------------------------*/
FoamFile
{
    version     2.0;
    format      ascii;
    arch        "LSB;label=32;scalar=64";
    class       volScalarField;
    location    "68/fluidRegion";
    object      Re;
}
// * * * * * * * * * * * * * * * * * * * * * * * * * * * * * * * * * * * * * //

dimensions      [0 0 0 0 0 0 0];

internalField   nonuniform List<scalar> 
350
(
174048
174046
174042
174037
174031
174027
174024
174021
174020
174020
174020
174021
174023
174026
174029
174033
174037
174040
174043
174045
174045
174044
174042
174039
174396
174048
174046
174042
174037
174031
174027
174024
174021
174020
174020
174020
174021
174023
174026
174029
174033
174037
174040
174043
174045
174045
174044
174042
174039
174396
55432.1
55383
55384.2
55384.4
55383.4
55381
55377.1
55371.5
55364
55354.4
55342.5
55328.2
55311.7
55293
55271.8
55246.9
55216.7
55179.1
55133.5
55085.6
55054.9
55101
55368.1
56114.3
56605.5
54941
54884.3
54881.4
54877.4
54872.5
54866.6
54859.4
54850.7
54840.3
54828
54814
54798.5
54782.4
54766.5
54751.8
54738
54724.1
54708.3
54689.8
54674.9
54684.4
54781.4
55116
55952.5
56552.7
55514.2
55464.7
55466.4
55466.9
55466.1
55463.9
55460.1
55454.6
55447.2
55437.5
55425.4
55410.8
55393.7
55373.8
55350.8
55323.4
55289.7
55247.7
55196.7
55142.4
55103.9
55140.1
55394.8
56126.4
56607.3
55050.8
54996.3
54994.5
54991.7
54987.9
54983
54976.7
54968.9
54959.4
54947.9
54934.5
54919.5
54903.5
54887.2
54871.1
54855.1
54837.6
54817
54792.5
54770.1
54770.7
54856.1
55175.5
55991.5
56565.8
55050.8
54996.3
54994.5
54991.7
54987.9
54983
54976.7
54968.9
54959.4
54947.9
54934.5
54919.5
54903.5
54887.2
54871.1
54855.1
54837.6
54817
54792.5
54770.1
54770.7
54856.1
55175.5
55991.5
56565.8
55514.2
55464.7
55466.4
55466.9
55466.1
55463.9
55460.1
55454.6
55447.1
55437.5
55425.4
55410.8
55393.6
55373.8
55350.7
55323.3
55289.6
55247.7
55196.7
55142.3
55103.8
55140
55394.7
56126.3
56607.2
54941
54884.3
54881.4
54877.4
54872.5
54866.6
54859.4
54850.7
54840.3
54828
54814
54798.5
54782.4
54766.5
54751.8
54738
54724.1
54708.3
54689.8
54674.9
54684.4
54781.3
55115.9
55952.5
56552.7
55432.1
55383
55384.2
55384.4
55383.4
55381
55377.1
55371.5
55364
55354.4
55342.5
55328.2
55311.7
55293
55271.8
55246.9
55216.7
55179.2
55133.5
55085.6
55054.9
55101
55368
56114.3
56605.5
55050.8
54996.3
54994.5
54991.7
54987.9
54983
54976.7
54968.9
54959.4
54947.9
54934.5
54919.5
54903.5
54887.2
54871.1
54855.1
54837.6
54817
54792.5
54770.1
54770.7
54856.1
55175.5
55991.5
56565.8
55514.2
55464.7
55466.4
55466.9
55466.1
55463.9
55460.1
55454.6
55447.2
55437.5
55425.4
55410.8
55393.7
55373.8
55350.8
55323.4
55289.7
55247.7
55196.7
55142.4
55103.9
55140.1
55394.8
56126.5
56607.3
55514.2
55464.7
55466.4
55466.9
55466.1
55463.9
55460.1
55454.6
55447.1
55437.5
55425.4
55410.8
55393.6
55373.8
55350.7
55323.3
55289.6
55247.7
55196.7
55142.3
55103.8
55140
55394.7
56126.3
56607.3
55050.8
54996.3
54994.5
54991.7
54987.9
54983
54976.7
54968.9
54959.4
54947.9
54934.5
54919.5
54903.5
54887.2
54871.1
54855.1
54837.6
54817
54792.5
54770.1
54770.6
54856.1
55175.5
55991.5
56565.8
)
;

boundaryField
{
    outletCentralUnloaded
    {
        type            zeroGradient;
    }
    inletCentralUnloaded
    {
        type            zeroGradient;
    }
    outletFuelElement
    {
        type            zeroGradient;
    }
    inletFuelElement
    {
        type            zeroGradient;
    }
    defaultFaces
    {
        type            zeroGradient;
    }
    baffle_master
    {
        type            zeroGradient;
    }
    baffle_slave
    {
        type            zeroGradient;
    }
}


// ************************************************************************* //
