/*--------------------------------*- C++ -*----------------------------------*\
| =========                 |                                                 |
| \\      /  F ield         | OpenFOAM: The Open Source CFD Toolbox           |
|  \\    /   O peration     | Version:  2212                                  |
|   \\  /    A nd           | Website:  www.openfoam.com                      |
|    \\/     M anipulation  |                                                 |
\*---------------------------------------------------------------------------*/
FoamFile
{
    version     2.0;
    format      ascii;
    arch        "LSB;label=32;scalar=64";
    class       volScalarField;
    location    "68/fluidRegion";
    object      Tci.nuclearFuelPin;
}
// * * * * * * * * * * * * * * * * * * * * * * * * * * * * * * * * * * * * * //

dimensions      [0 0 0 1 0 0 0];

internalField   nonuniform List<scalar> 
350
(
0
0
0
0
0
0
0
0
0
0
0
0
0
0
0
0
0
0
0
0
0
0
0
0
0
0
0
0
0
0
0
0
0
0
0
0
0
0
0
0
0
0
0
0
0
0
0
0
0
0
1851.91
1902.13
1939.11
1962.68
1972.77
1969.49
1953.1
1924.05
1882.9
1830.41
1767.46
1695.11
1614.54
1527.06
1434.14
1337.27
1237.9
1137.18
1035.6
932.473
825.017
707.094
568.121
396.164
193.015
1880.44
1931.41
1968.91
1992.77
2002.91
1999.45
1982.66
1952.97
1910.99
1857.46
1793.3
1719.56
1637.45
1548.31
1453.61
1354.89
1253.64
1151.06
1047.72
942.961
834.002
714.626
574.034
399.992
194.308
1847.28
1897.4
1934.32
1957.86
1967.96
1964.72
1948.42
1919.47
1878.48
1826.16
1763.42
1691.3
1610.97
1523.77
1431.13
1334.56
1235.48
1135.05
1033.75
930.876
823.657
705.966
567.247
395.603
192.817
1874.02
1924.8
1962.18
1985.95
1996.07
1992.63
1975.92
1946.37
1904.56
1851.26
1787.37
1713.95
1632.18
1543.42
1449.12
1350.82
1250
1147.85
1044.92
940.536
831.924
712.883
572.664
399.104
194.009
1874.02
1924.8
1962.18
1985.95
1996.07
1992.63
1975.92
1946.37
1904.56
1851.26
1787.37
1713.95
1632.18
1543.42
1449.12
1350.82
1250
1147.85
1044.92
940.536
831.924
712.883
572.664
399.104
194.009
1847.28
1897.4
1934.32
1957.86
1967.96
1964.72
1948.42
1919.48
1878.48
1826.16
1763.42
1691.3
1610.97
1523.77
1431.13
1334.56
1235.48
1135.05
1033.75
930.877
823.658
705.967
567.248
395.604
192.817
1880.44
1931.41
1968.91
1992.77
2002.91
1999.45
1982.66
1952.97
1910.99
1857.46
1793.3
1719.56
1637.45
1548.31
1453.61
1354.89
1253.64
1151.06
1047.72
942.961
834.002
714.626
574.034
399.991
194.308
1851.91
1902.13
1939.11
1962.68
1972.77
1969.49
1953.1
1924.05
1882.9
1830.41
1767.46
1695.11
1614.54
1527.06
1434.14
1337.27
1237.9
1137.18
1035.6
932.473
825.017
707.095
568.122
396.164
193.015
1874.02
1924.8
1962.18
1985.95
1996.07
1992.63
1975.92
1946.37
1904.56
1851.26
1787.37
1713.95
1632.18
1543.42
1449.12
1350.82
1250
1147.85
1044.92
940.536
831.924
712.883
572.664
399.104
194.009
1847.28
1897.4
1934.32
1957.86
1967.96
1964.72
1948.42
1919.47
1878.48
1826.16
1763.42
1691.3
1610.97
1523.77
1431.13
1334.56
1235.48
1135.05
1033.75
930.876
823.657
705.966
567.248
395.603
192.817
1847.28
1897.4
1934.32
1957.86
1967.96
1964.72
1948.42
1919.48
1878.48
1826.16
1763.42
1691.3
1610.97
1523.77
1431.13
1334.56
1235.48
1135.05
1033.75
930.877
823.658
705.967
567.248
395.604
192.817
1874.02
1924.8
1962.18
1985.95
1996.07
1992.63
1975.92
1946.37
1904.56
1851.26
1787.37
1713.95
1632.18
1543.42
1449.12
1350.82
1250
1147.85
1044.92
940.536
831.924
712.883
572.664
399.103
194.009
)
;

boundaryField
{
    outletCentralUnloaded
    {
        type            zeroGradient;
    }
    inletCentralUnloaded
    {
        type            zeroGradient;
    }
    outletFuelElement
    {
        type            zeroGradient;
    }
    inletFuelElement
    {
        type            zeroGradient;
    }
    defaultFaces
    {
        type            zeroGradient;
    }
    baffle_master
    {
        type            zeroGradient;
    }
    baffle_slave
    {
        type            zeroGradient;
    }
}


// ************************************************************************* //
