/*--------------------------------*- C++ -*----------------------------------*\
| =========                 |                                                 |
| \\      /  F ield         | OpenFOAM: The Open Source CFD Toolbox           |
|  \\    /   O peration     | Version:  2212                                  |
|   \\  /    A nd           | Website:  www.openfoam.com                      |
|    \\/     M anipulation  |                                                 |
\*---------------------------------------------------------------------------*/
FoamFile
{
    version     2.0;
    format      ascii;
    arch        "LSB;label=32;scalar=64";
    class       volScalarField;
    location    "68/fluidRegion";
    object      Tco.nuclearFuelPin;
}
// * * * * * * * * * * * * * * * * * * * * * * * * * * * * * * * * * * * * * //

dimensions      [0 0 0 1 0 0 0];

internalField   nonuniform List<scalar> 
350
(
0
0
0
0
0
0
0
0
0
0
0
0
0
0
0
0
0
0
0
0
0
0
0
0
0
0
0
0
0
0
0
0
0
0
0
0
0
0
0
0
0
0
0
0
0
0
0
0
0
0
1840.11
1866.87
1880.96
1882.54
1871.91
1849.51
1815.89
1771.76
1717.95
1655.39
1585.14
1508.36
1426.3
1340.31
1251.82
1162.26
1072.95
984.89
898.383
812.486
724.154
626.946
509.953
360.893
181.194
1868.49
1895.74
1910.09
1911.71
1900.9
1878.1
1843.88
1798.95
1744.15
1680.44
1608.89
1530.68
1447.06
1359.42
1269.2
1177.87
1086.79
997.03
908.932
821.599
731.984
633.56
515.2
364.316
182.352
1835.49
1862.2
1876.26
1877.86
1867.28
1844.96
1811.46
1767.47
1713.83
1651.46
1581.43
1504.89
1423.08
1337.36
1249.14
1159.86
1070.83
983.04
896.78
811.108
722.978
625.964
509.185
360.396
181.019
1862.11
1889.23
1903.5
1905.1
1894.32
1871.59
1837.5
1792.74
1738.16
1674.71
1603.45
1525.55
1442.29
1355.02
1265.19
1174.26
1083.59
994.223
906.492
819.491
730.172
632.028
513.983
363.521
182.084
1862.11
1889.23
1903.5
1905.1
1894.32
1871.59
1837.5
1792.74
1738.16
1674.71
1603.45
1525.55
1442.29
1355.02
1265.19
1174.26
1083.59
994.223
906.492
819.491
730.172
632.028
513.983
363.521
182.084
1835.5
1862.2
1876.27
1877.86
1867.29
1844.96
1811.46
1767.47
1713.83
1651.47
1581.43
1504.89
1423.08
1337.36
1249.14
1159.86
1070.83
983.041
896.781
811.108
722.979
625.965
509.186
360.397
181.019
1868.49
1895.74
1910.09
1911.71
1900.9
1878.1
1843.88
1798.95
1744.15
1680.44
1608.89
1530.68
1447.06
1359.42
1269.2
1177.87
1086.79
997.03
908.932
821.599
731.984
633.56
515.2
364.316
182.352
1840.11
1866.87
1880.96
1882.54
1871.91
1849.51
1815.89
1771.76
1717.95
1655.39
1585.14
1508.36
1426.3
1340.31
1251.82
1162.26
1072.95
984.89
898.383
812.486
724.154
626.946
509.953
360.893
181.194
1862.11
1889.23
1903.5
1905.1
1894.32
1871.59
1837.5
1792.74
1738.16
1674.71
1603.45
1525.55
1442.29
1355.02
1265.19
1174.26
1083.59
994.223
906.492
819.491
730.172
632.028
513.983
363.521
182.084
1835.49
1862.2
1876.26
1877.86
1867.28
1844.96
1811.46
1767.47
1713.83
1651.46
1581.43
1504.89
1423.08
1337.36
1249.14
1159.86
1070.83
983.04
896.781
811.108
722.978
625.964
509.185
360.396
181.019
1835.5
1862.2
1876.27
1877.86
1867.29
1844.96
1811.46
1767.47
1713.83
1651.47
1581.43
1504.89
1423.08
1337.36
1249.14
1159.86
1070.83
983.041
896.781
811.108
722.979
625.965
509.186
360.397
181.019
1862.11
1889.23
1903.5
1905.1
1894.32
1871.59
1837.5
1792.74
1738.16
1674.71
1603.45
1525.55
1442.29
1355.02
1265.19
1174.26
1083.59
994.223
906.492
819.491
730.172
632.028
513.983
363.521
182.084
)
;

boundaryField
{
    outletCentralUnloaded
    {
        type            zeroGradient;
    }
    inletCentralUnloaded
    {
        type            zeroGradient;
    }
    outletFuelElement
    {
        type            zeroGradient;
    }
    inletFuelElement
    {
        type            zeroGradient;
    }
    defaultFaces
    {
        type            zeroGradient;
    }
    baffle_master
    {
        type            zeroGradient;
    }
    baffle_slave
    {
        type            zeroGradient;
    }
}


// ************************************************************************* //
