/*--------------------------------*- C++ -*----------------------------------*\
| =========                 |                                                 |
| \\      /  F ield         | OpenFOAM: The Open Source CFD Toolbox           |
|  \\    /   O peration     | Version:  2212                                  |
|   \\  /    A nd           | Website:  www.openfoam.com                      |
|    \\/     M anipulation  |                                                 |
\*---------------------------------------------------------------------------*/
FoamFile
{
    version     2.0;
    format      ascii;
    arch        "LSB;label=32;scalar=64";
    class       volScalarField;
    location    "68/fluidRegion";
    object      Tfi.nuclearFuelPin;
}
// * * * * * * * * * * * * * * * * * * * * * * * * * * * * * * * * * * * * * //

dimensions      [0 0 0 1 0 0 0];

internalField   nonuniform List<scalar> 
350
(
0
0
0
0
0
0
0
0
0
0
0
0
0
0
0
0
0
0
0
0
0
0
0
0
0
0
0
0
0
0
0
0
0
0
0
0
0
0
0
0
0
0
0
0
0
0
0
0
0
0
2424.92
3613.34
4761.53
5851.79
6867.22
7792.09
8612.02
9314.25
9887.84
10323.8
10615.4
10758.1
10749.6
10590.1
10282.2
9830.86
9243.05
8527.64
7694.79
6755.43
5719.86
4596.67
3391.01
2107.88
766.66
2460
3662.21
4823.66
5926.42
6953.43
7888.75
8717.85
9427.83
10007.6
10448.2
10742.6
10886.3
10877.1
10715.1
10403
9945.77
9350.48
8626.18
7783.19
6832.61
5784.92
4648.76
3429.26
2131.31
774.523
2419.24
3605.49
4751.59
5839.87
6853.48
7776.7
8595.19
9296.2
9868.81
10304.1
10595.2
10737.7
10729.3
10570.2
10263.1
9812.65
9226.03
8512.03
7680.79
6743.21
5709.57
4588.45
3384.99
2104.19
765.416
2452.07
3651.1
4809.48
5909.34
6933.67
7866.57
8693.55
9401.73
9980.09
10419.6
10713.4
10856.8
10847.7
10686.3
10375.2
9919.3
9325.74
8603.48
7762.83
6814.83
5769.93
4636.76
3420.45
2125.91
772.712
2452.07
3651.1
4809.48
5909.35
6933.67
7866.57
8693.55
9401.73
9980.09
10419.6
10713.4
10856.8
10847.7
10686.3
10375.2
9919.3
9325.74
8603.48
7762.83
6814.83
5769.93
4636.76
3420.45
2125.91
772.712
2419.24
3605.49
4751.59
5839.87
6853.48
7776.7
8595.19
9296.2
9868.82
10304.1
10595.2
10737.7
10729.3
10570.2
10263.1
9812.65
9226.03
8512.03
7680.79
6743.21
5709.57
4588.45
3384.99
2104.19
765.416
2460
3662.21
4823.66
5926.42
6953.43
7888.75
8717.85
9427.83
10007.6
10448.2
10742.6
10886.3
10877.1
10715.1
10403
9945.77
9350.48
8626.18
7783.19
6832.61
5784.92
4648.76
3429.26
2131.31
774.523
2424.92
3613.34
4761.54
5851.79
6867.22
7792.09
8612.02
9314.25
9887.84
10323.8
10615.4
10758.1
10749.6
10590.1
10282.2
9830.86
9243.05
8527.64
7694.79
6755.43
5719.86
4596.67
3391.02
2107.88
766.66
2452.07
3651.1
4809.48
5909.35
6933.67
7866.57
8693.55
9401.73
9980.09
10419.6
10713.4
10856.8
10847.7
10686.3
10375.2
9919.3
9325.74
8603.48
7762.83
6814.83
5769.93
4636.76
3420.45
2125.91
772.712
2419.24
3605.49
4751.59
5839.87
6853.48
7776.7
8595.19
9296.2
9868.81
10304.1
10595.2
10737.7
10729.3
10570.2
10263.1
9812.65
9226.03
8512.03
7680.79
6743.21
5709.57
4588.45
3384.99
2104.19
765.416
2419.24
3605.49
4751.59
5839.87
6853.48
7776.7
8595.19
9296.2
9868.82
10304.1
10595.2
10737.7
10729.3
10570.3
10263.1
9812.65
9226.03
8512.03
7680.79
6743.21
5709.57
4588.45
3384.99
2104.19
765.416
2452.07
3651.1
4809.48
5909.34
6933.67
7866.57
8693.55
9401.73
9980.09
10419.6
10713.4
10856.8
10847.7
10686.3
10375.2
9919.3
9325.74
8603.48
7762.83
6814.83
5769.93
4636.76
3420.45
2125.91
772.711
)
;

boundaryField
{
    outletCentralUnloaded
    {
        type            zeroGradient;
    }
    inletCentralUnloaded
    {
        type            zeroGradient;
    }
    outletFuelElement
    {
        type            zeroGradient;
    }
    inletFuelElement
    {
        type            zeroGradient;
    }
    defaultFaces
    {
        type            zeroGradient;
    }
    baffle_master
    {
        type            zeroGradient;
    }
    baffle_slave
    {
        type            zeroGradient;
    }
}


// ************************************************************************* //
