/*--------------------------------*- C++ -*----------------------------------*\
| =========                 |                                                 |
| \\      /  F ield         | OpenFOAM: The Open Source CFD Toolbox           |
|  \\    /   O peration     | Version:  2212                                  |
|   \\  /    A nd           | Website:  www.openfoam.com                      |
|    \\/     M anipulation  |                                                 |
\*---------------------------------------------------------------------------*/
FoamFile
{
    version     2.0;
    format      ascii;
    arch        "LSB;label=32;scalar=64";
    class       volVectorField;
    location    "68/fluidRegion";
    object      U;
}
// * * * * * * * * * * * * * * * * * * * * * * * * * * * * * * * * * * * * * //

dimensions      [0 1 -1 0 0 0 0];

internalField   nonuniform List<vector> 
350
(
(6.47883e-10 3.74054e-10 -14.9697)
(3.39441e-10 1.95976e-10 -14.9682)
(-4.33201e-10 -2.50108e-10 -14.9666)
(-1.24074e-09 -7.16342e-10 -14.9649)
(-1.74598e-09 -1.00804e-09 -14.9631)
(-1.71291e-09 -9.88948e-10 -14.9615)
(-1.14921e-09 -6.63497e-10 -14.9599)
(-2.72994e-10 -1.57613e-10 -14.9585)
(6.35275e-10 3.66775e-10 -14.9572)
(1.31402e-09 7.58646e-10 -14.956)
(1.57889e-09 9.1157e-10 -14.9548)
(1.38859e-09 8.01701e-10 -14.9537)
(8.42559e-10 4.8645e-10 -14.9526)
(1.31209e-10 7.57535e-11 -14.9517)
(-4.9345e-10 -2.84893e-10 -14.9508)
(-8.20839e-10 -4.7391e-10 -14.9499)
(-7.60781e-10 -4.39236e-10 -14.949)
(-3.4594e-10 -1.99728e-10 -14.9482)
(2.92793e-10 1.69043e-10 -14.9472)
(9.67318e-10 5.5848e-10 -14.9461)
(1.51567e-09 8.7507e-10 -14.9449)
(1.81007e-09 1.04504e-09 -14.9435)
(1.65202e-09 9.53794e-10 -14.942)
(2.23721e-10 1.29165e-10 -14.9404)
(-2.50065e-09 -1.44375e-09 -14.9698)
(6.47883e-10 3.74054e-10 -14.9697)
(3.39441e-10 1.95976e-10 -14.9682)
(-4.33201e-10 -2.50108e-10 -14.9666)
(-1.24074e-09 -7.16342e-10 -14.9649)
(-1.74598e-09 -1.00804e-09 -14.9631)
(-1.71291e-09 -9.88948e-10 -14.9615)
(-1.14921e-09 -6.63497e-10 -14.9599)
(-2.72994e-10 -1.57613e-10 -14.9585)
(6.35275e-10 3.66775e-10 -14.9572)
(1.31402e-09 7.58646e-10 -14.956)
(1.57889e-09 9.1157e-10 -14.9548)
(1.38859e-09 8.01701e-10 -14.9537)
(8.42559e-10 4.8645e-10 -14.9526)
(1.31209e-10 7.57535e-11 -14.9517)
(-4.9345e-10 -2.84893e-10 -14.9508)
(-8.20839e-10 -4.7391e-10 -14.9499)
(-7.60781e-10 -4.39236e-10 -14.949)
(-3.4594e-10 -1.99728e-10 -14.9482)
(2.92793e-10 1.69043e-10 -14.9472)
(9.67318e-10 5.5848e-10 -14.9461)
(1.51567e-09 8.7507e-10 -14.9449)
(1.81007e-09 1.04504e-09 -14.9435)
(1.65202e-09 9.53794e-10 -14.942)
(2.23721e-10 1.29165e-10 -14.9404)
(-2.50065e-09 -1.44375e-09 -14.9698)
(-0.0019758 -0.00114073 -423.811)
(-0.000937889 -0.00054149 -415.822)
(-0.00101619 -0.000586697 -405.718)
(-0.0009144 -0.000527929 -393.289)
(-0.000827703 -0.000477874 -378.729)
(-0.000747411 -0.000431518 -362.24)
(-0.000673077 -0.000388601 -344.031)
(-0.000601049 -0.000347015 -324.317)
(-0.000523304 -0.000302129 -303.319)
(-0.000426657 -0.00024633 -281.264)
(-0.000294529 -0.000170046 -258.391)
(-0.000110651 -6.38843e-05 -234.957)
(0.000129819 7.4951e-05 -211.244)
(0.000407428 0.000235229 -187.562)
(0.00069068 0.000398764 -164.249)
(0.000931815 0.000537983 -141.66)
(0.00109352 0.000631343 -120.142)
(0.00116587 0.000673115 -100.009)
(0.00116826 0.000674493 -81.5284)
(0.00113502 0.000655303 -64.9223)
(0.00109715 0.000633442 -50.3819)
(0.00106192 0.000613097 -38.0951)
(0.00101367 0.000585243 -28.2705)
(0.000881362 0.000508854 -21.1346)
(0.000839991 0.000484969 -16.6338)
(-0.00190439 -0.00113868 -426.544)
(-0.000679335 -0.000418863 -418.513)
(-0.000768703 -0.000474043 -408.376)
(-0.000697317 -0.000434703 -395.894)
(-0.000636621 -0.000401916 -381.263)
(-0.000580267 -0.000371577 -364.686)
(-0.000527791 -0.000343475 -346.375)
(-0.000476333 -0.000316374 -326.546)
(-0.00042002 -0.000286771 -305.418)
(-0.000349402 -0.000249209 -283.222)
(-0.000253143 -0.000197104 -260.197)
(-0.000120064 -0.000123196 -236.599)
(5.51107e-05 -2.7303e-05 -212.713)
(0.000250013 8.0925e-05 -188.851)
(0.000447715 0.000190602 -165.356)
(0.000614161 0.000282157 -142.585)
(0.000724621 0.000341414 -120.892)
(0.000773281 0.000365306 -100.595)
(0.000774148 0.000362186 -81.9678)
(0.00075046 0.00034711 -65.2332)
(0.00072372 0.000334075 -50.585)
(0.000700041 0.000328507 -38.2124)
(0.00067432 0.000325806 -28.3256)
(0.000611516 0.000307058 -21.1516)
(0.000631665 0.000338143 -16.6358)
(-0.000859742 -0.000662638 -423.374)
(-0.000486898 -0.000959966 -415.384)
(-0.000472443 -0.000919413 -405.288)
(-0.000427202 -0.000810127 -392.869)
(-0.000384993 -0.0007142 -378.321)
(-0.000346316 -0.00062591 -361.847)
(-0.000310071 -0.000544627 -343.656)
(-0.000273568 -0.000466391 -323.962)
(-0.00023133 -0.000382321 -302.985)
(-0.000175292 -0.000277698 -280.953)
(-9.63547e-05 -0.000133168 -258.106)
(1.2447e-05 6.84667e-05 -234.698)
(0.000153901 0.000329556 -211.013)
(0.000306069 0.000643112 -187.359)
(0.000455249 0.000962715 -164.075)
(0.000573995 0.00123554 -141.515)
(0.000645303 0.00141778 -120.023)
(0.000668014 0.00149753 -99.9154)
(0.000655618 0.00149688 -81.4577)
(0.000626821 0.00145546 -64.8711)
(0.000596203 0.0014062 -50.347)
(0.000568014 0.00135338 -38.0729)
(0.000526832 0.00126082 -28.2575)
(0.000458943 0.00102268 -21.1277)
(0.000397673 0.000808588 -16.6315)
(-0.000963701 -0.000556391 -425.935)
(-0.000902624 -0.000521129 -417.913)
(-0.000868538 -0.000501449 -407.782)
(-0.000771875 -0.000445641 -395.311)
(-0.000685673 -0.000395872 -380.694)
(-0.000606513 -0.000350169 -364.137)
(-0.000533239 -0.000307864 -345.848)
(-0.000461882 -0.000266667 -326.043)
(-0.000383323 -0.000221311 -304.944)
(-0.00028328 -0.000163551 -282.779)
(-0.00014406 -8.3173e-05 -259.788)
(4.94581e-05 2.85546e-05 -236.227)
(0.000300637 0.000173572 -212.379)
(0.000591073 0.000341255 -188.558)
(0.000883329 0.000509989 -165.104)
(0.00112716 0.000650765 -142.374)
(0.00128456 0.000741637 -120.72)
(0.00134747 0.00077796 -100.461)
(0.00133853 0.000772799 -81.8675)
(0.00129431 0.000747269 -65.1623)
(0.00124463 0.000718584 -50.5389)
(0.001195 0.000689934 -38.186)
(0.00111293 0.000642548 -28.3135)
(0.000923829 0.000533371 -21.1482)
(0.000753947 0.00043529 -16.6356)
(0.000959431 0.000553926 -425.935)
(0.000920318 0.000531345 -417.913)
(0.000884778 0.000510826 -407.782)
(0.000788111 0.000455015 -395.311)
(0.000701013 0.000404729 -380.694)
(0.000620823 0.000358431 -364.137)
(0.000546518 0.000315532 -345.848)
(0.00047345 0.000273346 -326.043)
(0.000392862 0.000226819 -304.944)
(0.000290424 0.000167676 -282.779)
(0.000147951 8.54196e-05 -259.788)
(-4.93036e-05 -2.84654e-05 -236.227)
(-0.000304846 -0.000176002 -212.379)
(-0.000599845 -0.00034632 -188.558)
(-0.000896665 -0.000517689 -165.104)
(-0.00114487 -0.000660987 -142.374)
(-0.00130649 -0.000754303 -120.72)
(-0.00137331 -0.000792879 -100.461)
(-0.00136709 -0.000789287 -81.8675)
(-0.00132427 -0.000764565 -65.1623)
(-0.00127444 -0.000735795 -50.5389)
(-0.0012223 -0.000705695 -38.186)
(-0.00113585 -0.000655784 -28.3135)
(-0.000940583 -0.000543044 -21.1482)
(-0.000763695 -0.000440919 -16.6356)
(0.000995998 0.000431727 -423.374)
(0.00108215 -4.62664e-05 -415.384)
(0.00103823 -3.65744e-05 -405.288)
(0.000920698 -2.00077e-05 -392.869)
(0.000815857 -7.73063e-06 -378.321)
(0.000719292 3.98547e-06 -361.847)
(0.000629917 1.45322e-05 -343.656)
(0.000542725 2.33145e-05 -323.962)
(0.000447356 3.04097e-05 -302.985)
(0.000327019 3.61016e-05 -280.954)
(0.000160278 4.1675e-05 -258.106)
(-7.08368e-05 4.97503e-05 -234.698)
(-0.000370453 5.99969e-05 -211.013)
(-0.000720797 8.68526e-05 -187.359)
(-0.00107485 0.000119203 -164.075)
(-0.001373 0.00015407 -141.515)
(-0.00156879 0.000183834 -120.023)
(-0.0016511 0.000203049 -99.9155)
(-0.00164558 0.000211382 -81.4577)
(-0.00159568 0.000211909 -64.8711)
(-0.00153729 0.000209154 -50.3469)
(-0.00147561 0.000201451 -38.0729)
(-0.00137207 0.00018546 -28.2575)
(-0.00112741 0.000119603 -21.1277)
(-0.000905225 5.69692e-05 -16.6315)
(0.00192535 0.00110842 -426.544)
(0.000704737 0.000383106 -418.513)
(0.000795629 0.000436543 -408.376)
(0.000725348 0.00039581 -395.894)
(0.000665543 0.000361422 -381.263)
(0.000609915 0.000329905 -364.686)
(0.000558045 0.000300957 -346.375)
(0.000507076 0.00027288 -326.546)
(0.000451212 0.000242534 -305.418)
(0.00038091 0.000204405 -283.222)
(0.000284525 0.000151818 -260.197)
(0.000151096 7.76791e-05 -236.599)
(-2.44775e-05 -1.94544e-05 -212.713)
(-0.0002206 -0.000127752 -188.851)
(-0.000420171 -0.000237444 -165.356)
(-0.000589413 -0.000329062 -142.585)
(-0.000704183 -0.000388417 -120.892)
(-0.000759226 -0.000412467 -100.595)
(-0.00076902 -0.000409125 -81.9678)
(-0.00075759 -0.000392384 -65.2332)
(-0.000748837 -0.000373076 -50.585)
(-0.000744146 -0.00035792 -38.2124)
(-0.000735069 -0.000344422 -28.3256)
(-0.000676687 -0.000315882 -21.1516)
(-0.00068768 -0.000346936 -16.6358)
(0.00197658 0.00114118 -423.811)
(0.000939092 0.000542185 -415.822)
(0.00101757 0.000587494 -405.718)
(0.000915857 0.00052877 -393.289)
(0.000829117 0.000478691 -378.729)
(0.000748819 0.00043233 -362.24)
(0.000674501 0.000389423 -344.031)
(0.000602423 0.000347809 -324.317)
(0.000524669 0.000302918 -303.319)
(0.00042799 0.0002471 -281.264)
(0.0002957 0.000170722 -258.391)
(0.00011154 6.43978e-05 -234.957)
(-0.000129421 -7.4721e-05 -211.244)
(-0.000407533 -0.000235289 -187.562)
(-0.000691559 -0.000399271 -164.249)
(-0.000933861 -0.000539164 -141.66)
(-0.00109736 -0.00063356 -120.142)
(-0.00117239 -0.000676879 -100.009)
(-0.00117853 -0.000680424 -81.5284)
(-0.00115033 -0.000664142 -64.9223)
(-0.00111922 -0.000646184 -50.3819)
(-0.00109076 -0.000629748 -38.0951)
(-0.00104845 -0.000605322 -28.2705)
(-0.000916393 -0.000529079 -21.1345)
(-0.000871812 -0.00050334 -16.6338)
(0.000984231 0.000568245 -425.935)
(0.00092658 0.00053496 -417.913)
(0.000893865 0.000516072 -407.782)
(0.000798259 0.000460873 -395.311)
(0.000712591 0.000411413 -380.694)
(0.000633983 0.000366029 -364.137)
(0.000561411 0.00032413 -345.848)
(0.000490467 0.000283171 -326.043)
(0.000412407 0.000238103 -304.944)
(0.000312901 0.000180653 -282.779)
(0.00017379 0.000100337 -259.788)
(-2.02607e-05 -1.16974e-05 -236.227)
(-0.000270878 -0.000156391 -212.379)
(-0.00056105 -0.000323921 -188.558)
(-0.000852459 -0.000492166 -165.104)
(-0.0010946 -0.000631967 -142.374)
(-0.00124918 -0.000721213 -120.72)
(-0.00130777 -0.00075504 -100.461)
(-0.00129158 -0.000745693 -81.8675)
(-0.00123786 -0.000714679 -65.1624)
(-0.00117513 -0.000678462 -50.5389)
(-0.0011138 -0.000643052 -38.186)
(-0.00102354 -0.000590937 -28.3135)
(-0.000839776 -0.000484844 -21.1483)
(-0.00069106 -0.000398982 -16.6356)
(0.000888399 0.000653052 -423.374)
(0.000520949 0.000948043 -415.384)
(0.000508445 0.000906734 -405.288)
(0.000464667 0.000796878 -392.869)
(0.000423508 0.000700449 -378.321)
(0.000385739 0.000611774 -361.847)
(0.000350334 0.000530185 -343.656)
(0.000314416 0.000451675 -323.962)
(0.000272735 0.000367362 -302.985)
(0.00021714 0.000262555 -280.953)
(0.000137925 0.00011804 -258.106)
(2.89501e-05 -8.34896e-05 -234.698)
(-0.000112797 -0.000344323 -211.013)
(-0.000266036 -0.000656988 -187.359)
(-0.000416516 -0.000975102 -164.075)
(-0.000536919 -0.00124553 -141.515)
(-0.000610466 -0.00142388 -120.023)
(-0.000636128 -0.00149771 -99.9155)
(-0.000626788 -0.00148847 -81.4577)
(-0.000601766 -0.00143559 -64.8711)
(-0.000575855 -0.00136991 -50.347)
(-0.000552482 -0.00130066 -38.0729)
(-0.000515128 -0.00119506 -28.2576)
(-0.000450147 -0.000955601 -21.1277)
(-0.000391648 -0.000755622 -16.6315)
(-0.000987609 -0.000443108 -423.374)
(-0.00107282 3.28149e-05 -415.384)
(-0.0010284 2.26669e-05 -405.288)
(-0.00091049 5.70338e-06 -392.869)
(-0.000805398 -7.43458e-06 -378.321)
(-0.00070858 -1.96935e-05 -361.847)
(-0.000618932 -3.04864e-05 -343.656)
(-0.00053153 -3.97954e-05 -323.962)
(-0.000435898 -4.71756e-05 -302.985)
(-0.000315282 -5.30161e-05 -280.954)
(-0.000148423 -5.91066e-05 -258.106)
(8.22068e-05 -6.76952e-05 -234.698)
(0.00038239 -7.90497e-05 -211.013)
(0.000732958 -0.00010665 -187.359)
(0.00108727 -0.000140031 -164.075)
(0.00138568 -0.00017655 -141.515)
(0.00158156 -0.000209053 -120.023)
(0.00166348 -0.00023259 -99.9155)
(0.0016569 -0.000246515 -81.4577)
(0.00160447 -0.000253389 -64.8711)
(0.00154226 -0.000255329 -50.3469)
(0.00147475 -0.000249653 -38.0729)
(0.00136449 -0.000232382 -28.2575)
(0.00111457 -0.000160214 -21.1277)
(0.000887575 -9.30986e-05 -16.6315)
(-0.000947018 -0.00054676 -425.935)
(-0.000906205 -0.000523197 -417.913)
(-0.00086977 -0.000502161 -407.782)
(-0.000772406 -0.000445948 -395.311)
(-0.000685136 -0.000395563 -380.694)
(-0.000604657 -0.000349098 -364.137)
(-0.000529828 -0.000305895 -345.848)
(-0.000456503 -0.000263562 -326.043)
(-0.000375469 -0.000216777 -304.944)
(-0.000272463 -0.000157306 -282.779)
(-0.00012974 -7.49054e-05 -259.788)
(6.64871e-05 3.83863e-05 -236.227)
(0.000322832 0.000186387 -212.379)
(0.000618241 0.000356941 -188.558)
(0.000915785 0.000528728 -165.104)
(0.00116507 0.000672652 -142.374)
(0.00132795 0.000766692 -120.72)
(0.00139592 0.000805934 -100.461)
(0.00139131 0.000803271 -81.8675)
(0.00134959 0.000779186 -65.1623)
(0.00130123 0.000751265 -50.5389)
(0.00124824 0.00072067 -38.186)
(0.00115893 0.00066911 -28.3135)
(0.000956434 0.000552196 -21.1483)
(0.000765877 0.000442179 -16.6356)
)
;

boundaryField
{
    outletCentralUnloaded
    {
        type            zeroGradient;
    }
    inletCentralUnloaded
    {
        type            fixedValue;
        value           uniform (0 0 -15);
    }
    outletFuelElement
    {
        type            zeroGradient;
    }
    inletFuelElement
    {
        type            fixedValue;
        value           uniform (0 0 -15);
    }
    defaultFaces
    {
        type            slip;
    }
    baffle_master
    {
        type            slip;
    }
    baffle_slave
    {
        type            slip;
    }
}


// ************************************************************************* //
