/*--------------------------------*- C++ -*----------------------------------*\
| =========                 |                                                 |
| \\      /  F ield         | OpenFOAM: The Open Source CFD Toolbox           |
|  \\    /   O peration     | Version:  2212                                  |
|   \\  /    A nd           | Website:  www.openfoam.com                      |
|    \\/     M anipulation  |                                                 |
\*---------------------------------------------------------------------------*/
FoamFile
{
    version     2.0;
    format      ascii;
    arch        "LSB;label=32;scalar=64";
    class       volScalarField;
    location    "64/neutroRegion";
    object      TClad;
}
// * * * * * * * * * * * * * * * * * * * * * * * * * * * * * * * * * * * * * //

dimensions      [0 0 0 1 0 0 0];

internalField   nonuniform List<scalar> 
350
(
0
0
0
0
0
0
0
0
0
0
0
0
0
0
0
0
0
0
0
0
0
0
0
0
0
0
0
0
0
0
0
0
0
0
0
0
0
0
0
0
0
0
0
0
0
0
0
0
0
0
1845.72
1883.81
1908.96
1921.16
1920.54
1907.37
1882.08
1845.23
1797.54
1739.85
1673.13
1598.49
1517.15
1430.45
1339.82
1246.73
1152.57
1058.4
964.617
870.406
772.835
665.621
538.027
377.928
186.913
1874.17
1912.88
1938.41
1950.77
1950.09
1936.63
1910.82
1873.26
1824.65
1765.86
1697.89
1621.83
1538.95
1450.59
1358.21
1263.31
1167.33
1071.38
975.925
880.183
781.222
672.677
543.594
381.547
188.136
1841.1
1879.11
1904.22
1916.41
1915.82
1902.72
1877.53
1840.81
1793.27
1735.77
1669.26
1594.85
1513.76
1427.33
1336.98
1244.18
1150.31
1056.41
962.894
868.923
771.57
664.568
537.208
377.401
186.726
1867.77
1906.32
1931.75
1944.06
1943.38
1929.97
1904.27
1866.86
1818.45
1759.9
1692.21
1616.47
1533.94
1445.95
1353.97
1259.48
1163.92
1068.38
973.31
877.922
779.282
671.043
542.304
380.707
187.853
1867.77
1906.32
1931.75
1944.06
1943.38
1929.97
1904.27
1866.86
1818.45
1759.9
1692.21
1616.47
1533.94
1445.95
1353.97
1259.48
1163.92
1068.38
973.31
877.922
779.282
671.043
542.304
380.707
187.853
1841.1
1879.11
1904.22
1916.41
1915.82
1902.72
1877.53
1840.81
1793.27
1735.77
1669.26
1594.85
1513.77
1427.33
1336.98
1244.18
1150.31
1056.41
962.895
868.923
771.571
664.569
537.208
377.401
186.727
1874.17
1912.88
1938.41
1950.77
1950.09
1936.63
1910.82
1873.26
1824.65
1765.86
1697.89
1621.83
1538.95
1450.59
1358.21
1263.31
1167.33
1071.38
975.925
880.183
781.222
672.677
543.595
381.547
188.136
1845.72
1883.81
1908.96
1921.16
1920.54
1907.37
1882.08
1845.23
1797.54
1739.85
1673.13
1598.49
1517.15
1430.45
1339.82
1246.73
1152.57
1058.4
964.617
870.406
772.835
665.621
538.027
377.928
186.913
1867.77
1906.32
1931.75
1944.06
1943.38
1929.97
1904.27
1866.86
1818.45
1759.9
1692.21
1616.47
1533.94
1445.95
1353.97
1259.48
1163.92
1068.38
973.31
877.922
779.282
671.043
542.304
380.707
187.853
1841.1
1879.11
1904.22
1916.41
1915.82
1902.72
1877.53
1840.81
1793.27
1735.77
1669.26
1594.85
1513.76
1427.33
1336.98
1244.18
1150.31
1056.41
962.894
868.923
771.57
664.568
537.208
377.401
186.726
1841.1
1879.11
1904.22
1916.41
1915.82
1902.72
1877.53
1840.81
1793.27
1735.77
1669.26
1594.85
1513.77
1427.33
1336.98
1244.18
1150.31
1056.41
962.895
868.923
771.571
664.569
537.208
377.401
186.727
1867.77
1906.32
1931.75
1944.06
1943.38
1929.97
1904.27
1866.86
1818.45
1759.9
1692.21
1616.47
1533.94
1445.95
1353.97
1259.48
1163.92
1068.38
973.31
877.922
779.282
671.043
542.304
380.707
187.853
)
;

boundaryField
{
    outletCentralUnloaded
    {
        type            zeroGradient;
    }
    inletCentralUnloaded
    {
        type            zeroGradient;
    }
    outletFuelElement
    {
        type            zeroGradient;
    }
    inletFuelElement
    {
        type            zeroGradient;
    }
    defaultFaces
    {
        type            zeroGradient;
    }
}


// ************************************************************************* //
