/*--------------------------------*- C++ -*----------------------------------*\
| =========                 |                                                 |
| \\      /  F ield         | OpenFOAM: The Open Source CFD Toolbox           |
|  \\    /   O peration     | Version:  2212                                  |
|   \\  /    A nd           | Website:  www.openfoam.com                      |
|    \\/     M anipulation  |                                                 |
\*---------------------------------------------------------------------------*/
FoamFile
{
    version     2.0;
    format      ascii;
    arch        "LSB;label=32;scalar=64";
    class       volScalarField;
    location    "64/neutroRegion";
    object      TFuel;
}
// * * * * * * * * * * * * * * * * * * * * * * * * * * * * * * * * * * * * * //

dimensions      [0 0 0 1 0 0 0];

internalField   nonuniform List<scalar> 
350
(
0
0
0
0
0
0
0
0
0
0
0
0
0
0
0
0
0
0
0
0
0
0
0
0
0
0
0
0
0
0
0
0
0
0
0
0
0
0
0
0
0
0
0
0
0
0
0
0
0
0
2222.46
3009.51
3765.86
4479.97
5140.89
5738.46
6263.48
6707.84
7064.67
7328.41
7495
7561.84
7527.93
7393.86
7161.81
6835.48
6419.94
5921.31
5346.35
4701.92
3993.61
3224.9
2395.48
1504.29
564.421
2255.22
3051.47
3816.58
4538.88
5207.31
5811.59
6342.41
6791.56
7152.11
7418.44
7586.44
7653.49
7618.58
7482.31
7246.89
6916.08
6495.03
5989.99
5407.85
4755.59
4038.89
3261.27
2422.32
1520.81
569.968
2217.15
3002.76
3757.73
4470.55
5130.3
5726.82
6250.94
6694.55
7050.79
7314.14
7480.51
7547.32
7513.58
7379.87
7148.36
6822.74
6408.07
5910.45
5336.64
4693.45
3986.47
3219.18
2391.27
1501.71
563.547
2247.83
3041.94
3805.02
4525.42
5192.11
5794.83
6324.3
6772.34
7132.02
7397.75
7565.41
7632.4
7597.72
7461.95
7227.3
6897.52
6477.73
5974.17
5393.68
4743.22
4028.45
3252.89
2416.13
1517
568.69
2247.83
3041.94
3805.02
4525.43
5192.11
5794.83
6324.3
6772.34
7132.02
7397.75
7565.41
7632.4
7597.71
7461.94
7227.3
6897.52
6477.73
5974.17
5393.68
4743.22
4028.45
3252.89
2416.13
1517
568.69
2217.16
3002.76
3757.74
4470.55
5130.3
5726.82
6250.94
6694.55
7050.79
7314.14
7480.51
7547.33
7513.58
7379.87
7148.36
6822.74
6408.07
5910.46
5336.64
4693.45
3986.47
3219.18
2391.27
1501.71
563.547
2255.22
3051.47
3816.58
4538.88
5207.31
5811.59
6342.41
6791.56
7152.11
7418.44
7586.44
7653.49
7618.58
7482.31
7246.89
6916.08
6495.03
5989.99
5407.85
4755.59
4038.89
3261.27
2422.32
1520.81
569.968
2222.46
3009.51
3765.86
4479.97
5140.89
5738.46
6263.48
6707.84
7064.67
7328.41
7495
7561.84
7527.93
7393.86
7161.81
6835.48
6419.94
5921.31
5346.35
4701.92
3993.61
3224.9
2395.48
1504.29
564.421
2247.83
3041.95
3805.02
4525.43
5192.11
5794.83
6324.3
6772.34
7132.02
7397.75
7565.41
7632.4
7597.71
7461.95
7227.3
6897.52
6477.73
5974.17
5393.68
4743.22
4028.45
3252.89
2416.13
1517
568.69
2217.15
3002.76
3757.73
4470.55
5130.29
5726.82
6250.94
6694.55
7050.79
7314.14
7480.51
7547.32
7513.58
7379.87
7148.36
6822.74
6408.07
5910.45
5336.64
4693.45
3986.47
3219.18
2391.27
1501.71
563.547
2217.16
3002.76
3757.74
4470.55
5130.3
5726.82
6250.94
6694.55
7050.79
7314.14
7480.51
7547.33
7513.58
7379.87
7148.36
6822.74
6408.07
5910.46
5336.64
4693.45
3986.47
3219.18
2391.27
1501.71
563.547
2247.83
3041.94
3805.02
4525.42
5192.11
5794.83
6324.3
6772.34
7132.02
7397.75
7565.41
7632.4
7597.71
7461.94
7227.3
6897.52
6477.73
5974.17
5393.68
4743.22
4028.45
3252.89
2416.13
1517
568.69
)
;

boundaryField
{
    outletCentralUnloaded
    {
        type            zeroGradient;
    }
    inletCentralUnloaded
    {
        type            zeroGradient;
    }
    outletFuelElement
    {
        type            zeroGradient;
    }
    inletFuelElement
    {
        type            zeroGradient;
    }
    defaultFaces
    {
        type            zeroGradient;
    }
}


// ************************************************************************* //
