/*--------------------------------*- C++ -*----------------------------------*\
| =========                 |                                                 |
| \\      /  F ield         | OpenFOAM: The Open Source CFD Toolbox           |
|  \\    /   O peration     | Version:  2212                                  |
|   \\  /    A nd           | Website:  www.openfoam.com                      |
|    \\/     M anipulation  |                                                 |
\*---------------------------------------------------------------------------*/
FoamFile
{
    version     2.0;
    format      ascii;
    arch        "LSB;label=32;scalar=64";
    class       surfaceScalarField;
    location    "67/fluidRegion";
    object      alphaRhoPhi;
}
// * * * * * * * * * * * * * * * * * * * * * * * * * * * * * * * * * * * * * //

dimensions      [1 0 -1 0 0 0 0];

oriented        oriented;

internalField   nonuniform List<scalar> 
661
(
-0.00584959
7.87199e-12
-0.00584961
-2.37745e-12
-0.00584962
-1.62166e-11
-0.00584963
-2.17827e-11
-0.00584964
-1.46348e-11
-0.00584965
-4.83654e-13
-0.00584967
1.16185e-11
-0.00584971
1.61926e-11
-0.00584975
1.33786e-11
-0.00584977
6.78531e-12
-0.00584978
5.88306e-13
-0.00584977
-2.73411e-12
-0.00584975
-2.75427e-12
-0.00584972
-4.43556e-13
-0.00584968
2.58244e-12
-0.00584964
4.57611e-12
-0.0058496
4.17697e-12
-0.00584956
1.03875e-12
-0.00584952
-3.5489e-12
-0.0058495
-7.13731e-12
-0.00584949
-7.63071e-12
-0.0058495
-4.96324e-12
-0.00584953
-1.0661e-12
-0.00584958
2.39278e-12
3.47132e-12
-0.00584959
-0.00584961
-0.00584962
-0.00584963
-0.00584964
-0.00584965
-0.00584967
-0.00584971
-0.00584975
-0.00584977
-0.00584978
-0.00584977
-0.00584975
-0.00584972
-0.00584968
-0.00584964
-0.0058496
-0.00584956
-0.00584952
-0.0058495
-0.00584949
-0.0058495
-0.00584953
-0.00584958
-0.00939695
6.46044e-07
-0.00939718
3.12586e-07
-0.00939745
3.47092e-07
-0.0093977
3.22224e-07
-0.00939793
3.02903e-07
-0.00939814
2.85975e-07
-0.00939834
2.71152e-07
-0.00939853
2.5682e-07
-0.00939871
2.39021e-07
-0.00939887
2.10071e-07
-0.00939899
1.57736e-07
-0.00939903
6.49865e-08
-0.00939896
-8.5452e-08
-0.0093987
-3.01282e-07
-0.00939819
-5.83016e-07
-0.00939739
-9.12124e-07
-0.00939625
-1.26272e-06
-0.00939477
-1.61842e-06
-0.00939293
-1.99085e-06
-0.00939066
-2.43004e-06
-0.0093878
-3.02712e-06
-0.00938409
-3.87742e-06
-0.00937924
-5.01054e-06
-0.0093735
-5.89966e-06
-7.20833e-06
-0.0093127
-1.66341e-08
-1.77674e-08
-0.00931226
-7.94271e-08
-8.35315e-08
-0.00931178
-7.69657e-08
-8.13255e-08
-0.00931134
-6.82407e-08
-7.30051e-08
-0.00931094
-6.08552e-08
-6.60438e-08
-0.00931056
-5.39378e-08
-5.96788e-08
-0.00931022
-4.74084e-08
-5.38587e-08
-0.00930989
-4.08097e-08
-4.81216e-08
-0.0093096
-3.30324e-08
-4.14359e-08
-0.00930935
-2.18795e-08
-3.16263e-08
-0.00930919
-3.55842e-09
-1.49868e-08
-0.00930917
2.70235e-08
1.34319e-08
-0.00930938
7.4525e-08
5.8097e-08
-0.00930994
1.46439e-07
1.26253e-07
-0.00931095
2.4089e-07
2.1566e-07
-0.0093125
3.53833e-07
3.21845e-07
-0.00931464
4.77758e-07
4.36479e-07
-0.00931738
6.07819e-07
5.5391e-07
-0.00932076
7.48932e-07
6.77201e-07
-0.0093249
9.18544e-07
8.23036e-07
-0.00933007
1.14903e-06
1.02062e-06
-0.0093367
1.46586e-06
1.29936e-06
-0.00934521
1.85274e-06
1.64175e-06
-0.00935488
1.99378e-06
1.76802e-06
1.93966e-06
1.78828e-06
-0.00941076
3.19524e-07
-0.00941108
3.07463e-07
-0.00941141
3.03503e-07
-0.0094117
2.79001e-07
-0.00941197
2.58002e-07
-0.00941221
2.39189e-07
-0.00941243
2.2197e-07
-0.00941264
2.04399e-07
-0.00941281
1.81867e-07
-0.00941295
1.4578e-07
-0.00941303
8.25386e-08
-0.00941299
-2.51324e-08
-0.00941276
-1.95179e-07
-0.00941225
-4.37292e-07
-0.00941137
-7.49295e-07
-0.00941004
-1.1111e-06
-0.00940823
-1.49591e-06
-0.00940591
-1.88873e-06
-0.00940305
-2.30597e-06
-0.00939954
-2.80487e-06
-0.00939515
-3.48214e-06
-0.0093895
-4.43335e-06
-0.00938232
-5.60257e-06
-0.00937429
-6.31318e-06
-6.6028e-06
-0.0093316
2.68946e-09
-0.00933133
1.38799e-09
-0.00933106
1.55499e-09
-0.00933082
1.55592e-09
-0.00933059
1.59674e-09
-0.00933039
1.60012e-09
-0.00933019
1.52373e-09
-0.00933002
1.42548e-09
-0.00932987
1.23184e-09
-0.00932974
9.02608e-10
-0.00932967
4.68702e-10
-0.0093297
-1.51656e-10
-0.00932988
-1.04311e-09
-0.00933029
-2.30822e-09
-0.00933099
-4.10585e-09
-0.00933203
-6.57222e-09
-0.00933345
-9.78015e-09
-0.00933525
-1.37691e-08
-0.00933746
-1.88815e-08
-0.00934016
-2.50249e-08
-0.00934353
-3.21983e-08
-0.00934783
-4.01202e-08
-0.0093533
-4.85188e-08
-0.00935947
-5.02017e-08
-4.55905e-08
-0.00933161
-3.1365e-07
-0.00933134
-3.04491e-07
-0.00933107
-3.00031e-07
-0.00933083
-2.75449e-07
-0.0093306
-2.54291e-07
-0.0093304
-2.35375e-07
-0.00933021
-2.1814e-07
-0.00933003
-2.00574e-07
-0.00932988
-1.78173e-07
-0.00932975
-1.42375e-07
-0.00932968
-7.95484e-08
-0.00932971
2.74833e-08
-0.00932989
1.96505e-07
-0.0093303
4.37041e-07
-0.009331
7.46677e-07
-0.00933204
1.10508e-06
-0.00933346
1.48525e-06
-0.00933526
1.87187e-06
-0.00933747
2.28037e-06
-0.00934018
2.76743e-06
-0.00934354
3.42826e-06
-0.00934785
4.35766e-06
-0.00935331
5.49713e-06
-0.00935948
6.19037e-06
6.47698e-06
-0.00941076
1.55768e-08
-0.00941109
8.08156e-08
-0.00941141
7.83339e-08
-0.0094117
6.97897e-08
-0.00941197
6.26544e-08
-0.00941221
5.60467e-08
-0.00941244
4.99072e-08
-0.00941264
4.38346e-08
-0.00941282
3.67115e-08
-0.00941296
2.63698e-08
-0.00941303
9.13061e-09
-0.00941299
-2.00387e-08
-0.00941276
-6.5652e-08
-0.00941225
-1.35182e-07
-0.00941137
-2.26582e-07
-0.00941004
-3.35657e-07
-0.00940823
-4.54628e-07
-0.00940591
-5.78545e-07
-0.00940304
-7.12367e-07
-0.00939953
-8.7401e-07
-0.00939513
-1.09607e-06
-0.00938949
-1.40625e-06
-0.0093823
-1.79197e-06
-0.00937427
-1.94101e-06
-1.90612e-06
-0.0093127
-6.45846e-07
-2.01053e-08
-0.00931226
-3.12191e-07
-8.39509e-08
-0.00931178
-3.46669e-07
-8.19047e-08
-0.00931134
-3.21784e-07
-7.35046e-08
-0.00931094
-3.02402e-07
-6.64901e-08
-0.00931056
-2.85427e-07
-6.00085e-08
-0.00931022
-2.70568e-07
-5.39776e-08
-0.00930989
-2.5618e-07
-4.79661e-08
-0.0093096
-2.38356e-07
-4.08543e-08
-0.00930935
-2.09406e-07
-3.04359e-08
-0.00930919
-1.57062e-07
-1.29822e-08
-0.00930917
-6.43542e-08
1.65589e-08
-0.00930938
8.59028e-08
6.29568e-08
-0.00930994
3.0127e-07
1.33669e-07
-0.00931095
5.81971e-07
2.26969e-07
-0.0093125
9.09052e-07
3.39107e-07
-0.00931464
1.25581e-06
4.63026e-07
-0.00931738
1.6043e-06
5.95018e-07
-0.00932076
1.96272e-06
7.42251e-07
-0.0093249
2.37581e-06
9.26563e-07
-0.00933007
2.9241e-06
1.18671e-06
-0.00933671
3.69337e-06
1.55739e-06
-0.00934522
4.6933e-06
2.02672e-06
-0.00935488
5.45064e-06
2.25533e-06
6.70348e-06
2.26737e-06
-0.00939695
-0.00939718
-0.00939745
-0.0093977
-0.00939793
-0.00939814
-0.00939834
-0.00939853
-0.00939871
-0.00939887
-0.00939899
-0.00939903
-0.00939896
-0.0093987
-0.0093982
-0.00939739
-0.00939625
-0.00939477
-0.00939293
-0.00939066
-0.0093878
-0.0093841
-0.00937925
-0.00937351
-0.0093316
-3.1501e-07
-1.42906e-10
-0.00933133
-3.01897e-07
-2.15157e-09
-0.00933106
-2.975e-07
-2.25077e-09
-0.00933082
-2.72615e-07
-2.47598e-09
-0.00933059
-2.51136e-07
-2.78123e-09
-0.00933039
-2.31792e-07
-3.15283e-09
-0.00933019
-2.13991e-07
-3.59712e-09
-0.00933002
-1.95708e-07
-4.18581e-09
-0.00932987
-1.72378e-07
-4.91935e-09
-0.00932974
-1.35405e-07
-5.82226e-09
-0.00932967
-7.10816e-08
-7.04151e-09
-0.0093297
3.79501e-08
-8.61123e-09
-0.00932988
2.09654e-07
-1.08675e-08
-0.00933029
4.53858e-07
-1.38903e-08
-0.00933099
7.68679e-07
-1.81382e-08
-0.00933203
1.13456e-06
-2.42529e-08
-0.00933345
1.52605e-06
-3.35566e-08
-0.00933525
1.93025e-06
-4.79489e-08
-0.00933746
2.36786e-06
-7.10047e-08
-0.00934016
2.90286e-06
-1.07664e-07
-0.00934353
3.64559e-06
-1.67828e-07
-0.00934783
4.70335e-06
-2.55954e-07
-0.0093533
6.03083e-06
-3.77406e-07
-0.00935947
6.90237e-06
-4.79087e-07
7.19705e-06
-4.74584e-07
-0.00941076
-0.00941108
-0.00941141
-0.0094117
-0.00941197
-0.00941221
-0.00941243
-0.00941264
-0.00941281
-0.00941295
-0.00941303
-0.00941299
-0.00941276
-0.00941225
-0.00941137
-0.00941004
-0.00940823
-0.00940591
-0.00940305
-0.00939954
-0.00939514
-0.0093895
-0.00938232
-0.00937429
-0.00941076
3.15168e-07
-0.00941109
3.06175e-07
-0.00941141
3.01781e-07
-0.0094117
2.77288e-07
-0.00941197
2.56323e-07
-0.00941221
2.3759e-07
-0.00941244
2.20532e-07
-0.00941264
2.0323e-07
-0.00941282
1.81099e-07
-0.00941296
1.45558e-07
-0.00941303
8.31101e-08
-0.00941299
-2.34553e-08
-0.00941276
-1.91774e-07
-0.00941225
-4.31545e-07
-0.00941137
-7.40354e-07
-0.00941004
-1.09791e-06
-0.00940823
-1.47728e-06
-0.00940591
-1.86385e-06
-0.00940305
-2.27518e-06
-0.00939953
-2.7719e-06
-0.00939513
-3.45754e-06
-0.00938949
-4.43854e-06
-0.0093823
-5.67372e-06
-0.00937426
-6.47996e-06
-6.82627e-06
-0.00933161
-0.00933134
-0.00933107
-0.00933083
-0.0093306
-0.0093304
-0.00933021
-0.00933003
-0.00932988
-0.00932975
-0.00932968
-0.00932971
-0.00932989
-0.0093303
-0.009331
-0.00933204
-0.00933346
-0.00933526
-0.00933748
-0.00934018
-0.00934354
-0.00934785
-0.00935332
-0.00935949
)
;

boundaryField
{
    outletCentralUnloaded
    {
        type            calculated;
        value           nonuniform List<scalar> 2(0.00584958 0.00584958);
    }
    inletCentralUnloaded
    {
        type            calculated;
        value           nonuniform List<scalar> 2(-0.00587368 -0.00587368);
    }
    outletFuelElement
    {
        type            calculated;
        value           nonuniform List<scalar> 
12
(
0.00939638
0.00931336
0.00941048
0.00933188
0.00933189
0.00941049
0.00931336
0.00939638
0.00933188
0.00941048
0.00941049
0.00933189
)
;
    }
    inletFuelElement
    {
        type            calculated;
        value           nonuniform List<scalar> 
12
(
-0.00953887
-0.00953888
-0.00953887
-0.00953887
-0.00953888
-0.00953887
-0.00953888
-0.00953887
-0.00953887
-0.00953887
-0.00953887
-0.00953888
)
;
    }
    defaultFaces
    {
        type            calculated;
        value           nonuniform List<scalar> 
450
(
-1.68376e-24
-3.08318e-23
0
1.16487e-23
1.50639e-24
0
1.74639e-23
-9.52787e-25
0
-2.13329e-23
-1.05847e-23
0
-8.97367e-24
-1.44678e-23
0
-1.34441e-23
-7.76279e-24
0
-2.27225e-23
-5.22682e-24
0
-1.59529e-23
-8.74001e-24
0
-9.57453e-24
-3.53618e-24
0
-1.62378e-23
-3.87346e-24
0
-1.06457e-23
-3.29325e-24
0
-5.12047e-24
-1.99655e-24
0
3.15809e-24
2.18008e-24
0
1.81952e-23
1.1596e-23
0
3.28552e-23
8.66435e-24
0
6.09322e-23
3.56101e-23
0
7.71915e-23
-3.8319e-23
0
1.17273e-22
7.05866e-23
0
7.13088e-23
-1.18428e-22
0
-3.62057e-23
-7.16013e-23
0
-8.9411e-23
-4.8402e-23
0
1.96107e-22
-7.84053e-23
0
-1.98961e-22
7.23072e-23
0
-1.96686e-22
-1.79116e-22
0
-2.13208e-22
-2.34209e-22
0
1.29569e-23
0
1.50793e-23
0
0
0
5.97904e-24
0
-4.13924e-24
0
1.08188e-23
0
9.11257e-24
0
4.83279e-24
0
-3.87501e-24
0
2.78543e-24
0
3.59971e-24
0
-8.33197e-25
0
-1.11172e-23
0
-8.34417e-24
0
-1.90486e-23
0
-3.31116e-23
0
7.80336e-23
0
-3.12223e-23
0
0
0
-9.59946e-23
0
-1.85401e-22
0
2.45332e-22
0
1.10692e-22
0
-3.75004e-22
0
-1.92186e-22
0
-7.29802e-24
3.71537e-24
3.80755e-24
-3.92747e-24
8.15595e-24
-4.26302e-24
0
-4.75987e-24
5.08832e-24
2.74301e-24
-2.98504e-24
8.20466e-25
3.64931e-24
8.21825e-24
9.38296e-24
2.17554e-23
-5.12992e-23
0
-7.55826e-23
0
-6.11934e-23
-2.43346e-22
-2.20072e-22
0
9.59987e-23
0
0
0
0
0
0
0
0
0
0
0
0
0
0
0
0
0
0
0
0
0
0
0
0
0
-1.01805e-23
7.40396e-24
3.76982e-24
1.50793e-23
1.15916e-23
1.54554e-23
-7.97205e-24
-5.97904e-24
8.27847e-24
-6.20886e-24
-8.65503e-24
-6.49127e-24
-9.11256e-24
-4.55628e-24
-4.83278e-24
-2.41639e-24
1.1625e-23
-2.58334e-24
-1.39271e-24
-2.78543e-24
-2.65242e-24
-1.51567e-24
8.33196e-25
1.77054e-24
3.70574e-24
7.41147e-24
8.34416e-24
1.25162e-23
1.90486e-23
1.90486e-23
2.20744e-23
3.31116e-23
-5.20224e-23
5.20224e-23
3.12222e-23
4.68333e-23
-1.14785e-22
1.33916e-22
-1.43992e-22
-7.19958e-23
0
-1.23601e-22
-2.04443e-22
2.04443e-22
-2.21384e-22
-1.66038e-22
0
-1.87502e-22
-3.84371e-22
-1.92186e-22
4.44848e-24
0
0
3.60766e-24
0
3.76031e-24
1.34228e-23
0
-2.31242e-23
-2.92408e-23
0
3.97585e-24
8.17001e-24
0
-4.12862e-24
-2.28909e-23
0
4.31637e-24
-2.39956e-23
0
4.5445e-24
-1.72861e-23
0
0
-1.4939e-23
0
-5.15325e-24
-1.75762e-23
0
0
-1.41746e-23
0
3.02346e-24
-6.35695e-24
0
1.66208e-24
7.01076e-24
-0
0
2.2405e-23
-0
0
4.74999e-23
-0
0
9.09082e-23
-0
-2.20213e-23
5.07146e-23
-0
0
1.70491e-22
-0
-3.11544e-23
7.45277e-23
-0
-7.63694e-23
-7.64404e-23
-0
4.79101e-23
2.79268e-23
-0
6.17027e-23
7.66734e-23
-0
8.16718e-23
-1.344e-22
-0
0
-4.95308e-23
-0
7.49603e-23
-1.24756e-22
-0
1.92153e-22
0
-3.71537e-24
0
-7.85494e-24
0
-4.26302e-24
0
-4.75987e-24
-2.54416e-24
-2.74301e-24
0
8.20466e-25
-3.64931e-24
8.21825e-24
0
2.17554e-23
-5.12992e-23
3.08105e-23
-3.77913e-23
4.74602e-23
6.11934e-23
-1.62231e-22
-1.10036e-22
0
-9.59987e-23
1.38824e-23
0
7.53965e-24
0
3.86385e-24
0
1.19581e-23
0
-2.06962e-24
0
6.49128e-24
0
1.13907e-23
0
7.24918e-24
0
0
0
6.96357e-24
0
1.13675e-24
0
-8.33197e-25
-0
-5.55861e-24
-0
-8.34417e-24
-0
-2.85729e-23
-0
-2.20744e-23
-0
6.5028e-23
-0
-6.24445e-23
-0
1.91308e-22
-0
-1.43992e-22
-0
-1.23601e-22
-0
1.63555e-22
-0
1.10692e-22
-0
-3.00003e-22
-0
-2.88279e-22
-0
-1.11059e-23
-3.70198e-24
-7.53965e-24
1.13095e-23
-7.7277e-24
1.15916e-23
-3.98602e-24
-2.19231e-23
-2.06962e-24
8.27848e-24
-2.16376e-24
-1.94738e-23
-4.55628e-24
-1.82251e-23
-4.83278e-24
-1.69147e-23
0
-7.75001e-24
-4.17814e-24
-9.749e-24
-1.51567e-24
-6.06267e-24
0
2.77298e-24
5.5586e-24
1.85287e-23
4.17208e-24
3.75487e-23
1.90486e-23
5.23836e-23
4.41488e-23
8.82975e-23
0
9.10391e-23
3.12222e-23
1.24889e-22
-1.91308e-23
9.5654e-23
0
-1.19993e-22
0
-9.27004e-23
0
2.04443e-22
1.66038e-22
-1.66038e-22
0
-1.50002e-22
0
-1.44139e-22
-0
-0
-0
-0
-0
-0
-0
-0
-0
-0
-0
0
0
0
0
0
0
0
0
0
0
0
0
0
0
)
;
    }
    baffle_master
    {
        type            calculated;
        value           nonuniform List<scalar> 
150
(
4.65324e-29
0
-1.2423e-28
2.44719e-30
0
-3.10602e-29
2.76264e-29
0
4.97003e-28
-1.86163e-28
0
4.97044e-28
-7.93211e-28
0
-4.97085e-28
1.94291e-30
0
0
2.1696e-28
0
0
2.44921e-29
0
0
2.81114e-30
0
0
8.37864e-30
0
0
7.31508e-31
0
0
2.86314e-29
0
-6.21718e-29
-1.78642e-29
0
6.21769e-29
-6.41849e-31
0
-7.77276e-30
-2.54697e-29
0
-3.10936e-29
9.48433e-30
0
0
-4.6261e-28
0
-1.86592e-28
1.64884e-29
0
0
2.31101e-28
0
1.24415e-28
-9.33631e-29
0
0
3.5255e-30
0
1.24436e-28
-3.37056e-28
0
-1.24447e-28
-4.91436e-30
0
1.55571e-29
1.14684e-29
0
0
3.5708e-30
0
-6.22384e-29
-1.2423e-28
3.35351e-28
-0
6.21203e-29
-1.08364e-28
0
4.97003e-28
-6.79641e-28
0
4.97044e-28
-6.337e-28
0
2.48543e-28
2.0044e-28
0
7.7676e-30
-1.91304e-29
0
0
3.97754e-28
-0
-4.97208e-28
4.58225e-28
-0
4.9725e-28
4.74147e-28
-0
-1.24323e-28
1.87008e-28
-0
-1.55416e-29
1.63586e-29
-0
6.21718e-29
-1.10724e-28
0
0
-1.46773e-28
0
1.55455e-29
-8.90876e-30
0
-6.21872e-29
7.5164e-29
-0
-1.24385e-28
2.23371e-28
-0
1.24395e-28
1.8217e-28
-0
1.55506e-29
4.85059e-29
-0
-6.22077e-29
-4.17692e-29
0
1.24426e-28
1.74008e-28
0
0
2.67983e-28
0
-1.8667e-28
3.21621e-28
0
-3.11142e-29
-3.58912e-29
0
0
-5.82215e-29
-0
0
-4.04053e-29
-0
)
;
    }
    baffle_slave
    {
        type            calculated;
        value           nonuniform List<scalar> 
150
(
4.94341e-24
-0
0
2.08265e-24
-0
3.71537e-24
-7.11411e-25
-0
3.80755e-24
9.78384e-25
-0
3.92747e-24
-1.29519e-23
-0
-1.22339e-23
-3.45116e-24
-0
0
-1.11789e-24
-0
0
8.89186e-25
-0
0
-3.16838e-25
-0
0
-3.41593e-25
-0
0
7.43452e-25
-0
-1.49252e-24
1.22605e-24
0
0
0
0
3.64931e-24
-1.02343e-24
0
-8.21825e-24
0
0
0
-4.06442e-24
0
0
-7.02908e-23
0
-5.12992e-23
-2.11121e-23
0
0
-6.35755e-23
0
-1.13374e-22
-5.91577e-24
0
0
-1.52603e-23
0
-6.11934e-23
1.26482e-22
0
0
4.12013e-23
0
1.10036e-22
1.8671e-23
0
0
5.99846e-24
0
0
-1.49883e-24
2.86377e-23
0
-6.59019e-24
1.20331e-23
0
7.05927e-24
8.18122e-24
0
-5.11858e-24
7.70477e-24
0
1.08526e-24
-1.39678e-23
0
-6.01871e-24
9.02612e-24
0
-3.97422e-24
9.36229e-24
0
-1.6916e-24
8.44727e-24
0
6.75286e-24
1.02972e-23
0
-3.9837e-24
6.83185e-24
0
-2.55631e-24
4.27485e-24
0
8.48623e-25
3.26948e-24
0
5.19598e-24
-7.95275e-25
0
5.33166e-24
-4.92526e-24
0
1.49708e-23
-1.48075e-23
0
2.09017e-23
-1.49029e-23
0
-5.02797e-23
-2.71578e-23
0
2.31518e-23
-4.12645e-23
0
-4.72239e-23
1.17732e-24
0
8.93907e-24
4.14104e-23
0
-4.65748e-23
4.95961e-23
0
-1.66386e-22
1.56838e-22
0
-1.0682e-22
-1.03003e-22
0
3.64108e-23
1.0269e-22
0
-3.07044e-23
1.67957e-22
0
)
;
    }
}


// ************************************************************************* //
