/*--------------------------------*- C++ -*----------------------------------*\
| =========                 |                                                 |
| \\      /  F ield         | OpenFOAM: The Open Source CFD Toolbox           |
|  \\    /   O peration     | Version:  2212                                  |
|   \\  /    A nd           | Website:  www.openfoam.com                      |
|    \\/     M anipulation  |                                                 |
\*---------------------------------------------------------------------------*/
FoamFile
{
    version     2.0;
    format      ascii;
    arch        "LSB;label=32;scalar=64";
    class       volScalarField;
    location    "67/fluidRegion";
    object      heatFlux.structure;
}
// * * * * * * * * * * * * * * * * * * * * * * * * * * * * * * * * * * * * * //

dimensions      [1 0 -3 0 0 0 0];

internalField   nonuniform List<scalar> 
350
(
-258308
-258312
-258315
-258319
-258322
-258325
-258328
-258332
-258337
-258340
-258344
-258347
-258349
-258351
-258352
-258354
-258355
-258356
-258358
-258359
-258361
-258363
-258367
-258372
-258805
-258308
-258312
-258315
-258319
-258322
-258325
-258328
-258332
-258337
-258340
-258344
-258347
-258349
-258351
-258352
-258354
-258355
-258356
-258358
-258359
-258361
-258363
-258367
-258372
-258805
449946
1.34374e+06
2.21634e+06
3.05398e+06
3.84344e+06
4.57229e+06
5.22902e+06
5.80327e+06
6.28601e+06
6.6696e+06
6.948e+06
7.11683e+06
7.17342e+06
7.11687e+06
6.94809e+06
6.66973e+06
6.28617e+06
5.80348e+06
5.22924e+06
4.57257e+06
3.84376e+06
3.05435e+06
2.21672e+06
1.34415e+06
450465
455093
1.35913e+06
2.24172e+06
3.08895e+06
3.88746e+06
4.62466e+06
5.28891e+06
5.86975e+06
6.35801e+06
6.74599e+06
7.02759e+06
7.19835e+06
7.25559e+06
7.1984e+06
7.02768e+06
6.74613e+06
6.35818e+06
5.86996e+06
5.28914e+06
4.62495e+06
3.88779e+06
3.08934e+06
2.24211e+06
1.35955e+06
455625
449127
1.34129e+06
2.2123e+06
3.04841e+06
3.83643e+06
4.56395e+06
5.21948e+06
5.79269e+06
6.27454e+06
6.65743e+06
6.93533e+06
7.10385e+06
7.16034e+06
7.10389e+06
6.93542e+06
6.65756e+06
6.27471e+06
5.7929e+06
5.2197e+06
4.56423e+06
3.83675e+06
3.04878e+06
2.21268e+06
1.3417e+06
449644
453908
1.35559e+06
2.23588e+06
3.0809e+06
3.87733e+06
4.6126e+06
5.27512e+06
5.85444e+06
6.34143e+06
6.72841e+06
7.00927e+06
7.17959e+06
7.23667e+06
7.17963e+06
7.00936e+06
6.72854e+06
6.34161e+06
5.85466e+06
5.27535e+06
4.61289e+06
3.87765e+06
3.08129e+06
2.23627e+06
1.356e+06
454437
453908
1.35559e+06
2.23588e+06
3.0809e+06
3.87733e+06
4.6126e+06
5.27512e+06
5.85444e+06
6.34143e+06
6.72841e+06
7.00927e+06
7.17959e+06
7.23667e+06
7.17963e+06
7.00936e+06
6.72854e+06
6.34161e+06
5.85466e+06
5.27535e+06
4.61289e+06
3.87765e+06
3.08129e+06
2.23627e+06
1.356e+06
454437
449127
1.34129e+06
2.2123e+06
3.04841e+06
3.83643e+06
4.56395e+06
5.21948e+06
5.79269e+06
6.27454e+06
6.65743e+06
6.93533e+06
7.10385e+06
7.16033e+06
7.10389e+06
6.93542e+06
6.65756e+06
6.27471e+06
5.7929e+06
5.2197e+06
4.56423e+06
3.83675e+06
3.04878e+06
2.21268e+06
1.3417e+06
449644
455093
1.35913e+06
2.24172e+06
3.08895e+06
3.88746e+06
4.62466e+06
5.28891e+06
5.86974e+06
6.35801e+06
6.74599e+06
7.02759e+06
7.19835e+06
7.25559e+06
7.19839e+06
7.02768e+06
6.74613e+06
6.35818e+06
5.86996e+06
5.28914e+06
4.62495e+06
3.88779e+06
3.08934e+06
2.24212e+06
1.35955e+06
455625
449946
1.34374e+06
2.21634e+06
3.05398e+06
3.84344e+06
4.57229e+06
5.22902e+06
5.80327e+06
6.28601e+06
6.6696e+06
6.948e+06
7.11683e+06
7.17342e+06
7.11687e+06
6.94809e+06
6.66973e+06
6.28617e+06
5.80348e+06
5.22924e+06
4.57257e+06
3.84376e+06
3.05436e+06
2.21672e+06
1.34415e+06
450465
453908
1.35559e+06
2.23588e+06
3.0809e+06
3.87733e+06
4.6126e+06
5.27512e+06
5.85444e+06
6.34143e+06
6.72841e+06
7.00927e+06
7.17959e+06
7.23667e+06
7.17963e+06
7.00936e+06
6.72854e+06
6.34161e+06
5.85466e+06
5.27535e+06
4.61289e+06
3.87765e+06
3.08129e+06
2.23627e+06
1.356e+06
454437
449127
1.34129e+06
2.2123e+06
3.04841e+06
3.83643e+06
4.56395e+06
5.21948e+06
5.79269e+06
6.27454e+06
6.65743e+06
6.93533e+06
7.10385e+06
7.16033e+06
7.10389e+06
6.93542e+06
6.65756e+06
6.27471e+06
5.7929e+06
5.2197e+06
4.56423e+06
3.83674e+06
3.04878e+06
2.21268e+06
1.3417e+06
449644
449127
1.34129e+06
2.2123e+06
3.04841e+06
3.83643e+06
4.56395e+06
5.21948e+06
5.79269e+06
6.27454e+06
6.65743e+06
6.93533e+06
7.10385e+06
7.16034e+06
7.10389e+06
6.93542e+06
6.65756e+06
6.27471e+06
5.7929e+06
5.2197e+06
4.56423e+06
3.83675e+06
3.04878e+06
2.21268e+06
1.3417e+06
449644
453908
1.35559e+06
2.23588e+06
3.0809e+06
3.87733e+06
4.6126e+06
5.27512e+06
5.85444e+06
6.34143e+06
6.72841e+06
7.00927e+06
7.17959e+06
7.23667e+06
7.17963e+06
7.00936e+06
6.72854e+06
6.34161e+06
5.85466e+06
5.27535e+06
4.61289e+06
3.87765e+06
3.08129e+06
2.23627e+06
1.356e+06
454437
)
;

boundaryField
{
    outletCentralUnloaded
    {
        type            zeroGradient;
    }
    inletCentralUnloaded
    {
        type            zeroGradient;
    }
    outletFuelElement
    {
        type            zeroGradient;
    }
    inletFuelElement
    {
        type            zeroGradient;
    }
    defaultFaces
    {
        type            zeroGradient;
    }
    baffle_master
    {
        type            zeroGradient;
    }
    baffle_slave
    {
        type            zeroGradient;
    }
}


// ************************************************************************* //
