/*--------------------------------*- C++ -*----------------------------------*\
| =========                 |                                                 |
| \\      /  F ield         | OpenFOAM: The Open Source CFD Toolbox           |
|  \\    /   O peration     | Version:  2212                                  |
|   \\  /    A nd           | Website:  www.openfoam.com                      |
|    \\/     M anipulation  |                                                 |
\*---------------------------------------------------------------------------*/
FoamFile
{
    version     2.0;
    format      ascii;
    arch        "LSB;label=32;scalar=64";
    class       volScalarField;
    location    "67/fluidRegion";
    object      k;
}
// * * * * * * * * * * * * * * * * * * * * * * * * * * * * * * * * * * * * * //

dimensions      [0 2 -2 0 0 0 0];

internalField   nonuniform List<scalar> 
350
(
0.421089
0.42102
0.420953
0.420888
0.420822
0.420753
0.420683
0.420613
0.420542
0.420475
0.42041
0.420349
0.420291
0.420239
0.420195
0.420163
0.42015
0.420167
0.42023
0.420364
0.420607
0.421017
0.421681
0.422733
0.424377
0.421089
0.42102
0.420953
0.420888
0.420822
0.420753
0.420683
0.420612
0.420542
0.420475
0.42041
0.420349
0.420291
0.420239
0.420195
0.420163
0.42015
0.420167
0.42023
0.420364
0.420607
0.421017
0.421681
0.422733
0.424377
406.877
384.275
358.571
330.276
300.174
269.044
237.633
206.641
176.708
148.394
122.178
98.4387
77.4504
59.3689
44.2258
31.9284
22.2717
14.9618
9.64985
5.966
3.55015
2.07279
1.25016
0.853304
0.713261
412.601
389.733
363.725
335.075
304.581
273.032
241.186
209.755
179.387
150.653
124.039
99.9331
78.6151
60.2465
44.8622
32.3703
22.5638
15.1441
9.7561
6.02283
3.57734
2.08398
1.25393
0.854332
0.713648
405.93
383.369
357.72
329.486
299.452
268.393
237.055
206.137
176.275
148.031
121.879
98.1998
77.2648
59.2293
44.1247
31.8582
22.2252
14.9327
9.63265
5.95658
3.54543
2.07064
1.24928
0.852962
0.713128
411.344
388.532
362.588
334.014
303.604
272.146
240.395
209.06
178.787
150.146
123.621
99.5963
78.352
60.0478
44.7178
32.2699
22.4973
15.1026
9.73189
6.00988
3.57116
2.08145
1.25309
0.854118
0.713573
411.344
388.532
362.588
334.014
303.604
272.146
240.395
209.06
178.787
150.146
123.621
99.5963
78.352
60.0478
44.7178
32.2699
22.4973
15.1026
9.73189
6.00988
3.57116
2.08145
1.25309
0.854118
0.713573
405.93
383.37
357.72
329.487
299.452
268.393
237.055
206.137
176.275
148.031
121.879
98.1999
77.2649
59.2294
44.1247
31.8582
22.2252
14.9327
9.63265
5.95658
3.54543
2.07064
1.24927
0.852961
0.713128
412.601
389.733
363.725
335.075
304.581
273.032
241.186
209.755
179.387
150.653
124.039
99.9331
78.6151
60.2465
44.8622
32.3703
22.5638
15.1442
9.7561
6.02283
3.57734
2.08398
1.25393
0.854332
0.713648
406.877
384.275
358.571
330.276
300.174
269.044
237.633
206.641
176.707
148.394
122.178
98.4387
77.4504
59.3689
44.2258
31.9284
22.2717
14.9618
9.64986
5.966
3.55015
2.07279
1.25016
0.853306
0.713262
411.344
388.532
362.588
334.014
303.604
272.146
240.395
209.06
178.787
150.146
123.621
99.5963
78.352
60.0478
44.7178
32.2699
22.4973
15.1026
9.73189
6.00988
3.57116
2.08146
1.25309
0.854119
0.713573
405.93
383.37
357.72
329.486
299.452
268.393
237.055
206.137
176.275
148.031
121.879
98.1998
77.2648
59.2293
44.1247
31.8582
22.2252
14.9326
9.63264
5.95657
3.54542
2.07064
1.24927
0.852959
0.713127
405.93
383.37
357.72
329.487
299.452
268.393
237.055
206.137
176.275
148.031
121.879
98.1999
77.2648
59.2294
44.1247
31.8582
22.2252
14.9327
9.63265
5.95658
3.54543
2.07064
1.24927
0.85296
0.713127
411.344
388.532
362.588
334.014
303.604
272.146
240.395
209.06
178.787
150.146
123.621
99.5963
78.352
60.0478
44.7178
32.2699
22.4973
15.1026
9.73189
6.00989
3.57117
2.08146
1.2531
0.854122
0.713575
)
;

boundaryField
{
    outletCentralUnloaded
    {
        type            zeroGradient;
    }
    inletCentralUnloaded
    {
        type            zeroGradient;
    }
    outletFuelElement
    {
        type            zeroGradient;
    }
    inletFuelElement
    {
        type            zeroGradient;
    }
    defaultFaces
    {
        type            zeroGradient;
    }
    baffle_master
    {
        type            zeroGradient;
    }
    baffle_slave
    {
        type            zeroGradient;
    }
}


// ************************************************************************* //
