/*--------------------------------*- C++ -*----------------------------------*\
| =========                 |                                                 |
| \\      /  F ield         | OpenFOAM: The Open Source CFD Toolbox           |
|  \\    /   O peration     | Version:  2212                                  |
|   \\  /    A nd           | Website:  www.openfoam.com                      |
|    \\/     M anipulation  |                                                 |
\*---------------------------------------------------------------------------*/
FoamFile
{
    version     2.0;
    format      ascii;
    arch        "LSB;label=32;scalar=64";
    class       volScalarField;
    location    "67/fluidRegion";
    object      Tci.nuclearFuelPin;
}
// * * * * * * * * * * * * * * * * * * * * * * * * * * * * * * * * * * * * * //

dimensions      [0 0 0 1 0 0 0];

internalField   nonuniform List<scalar> 
350
(
0
0
0
0
0
0
0
0
0
0
0
0
0
0
0
0
0
0
0
0
0
0
0
0
0
0
0
0
0
0
0
0
0
0
0
0
0
0
0
0
0
0
0
0
0
0
0
0
0
0
1851.9
1902.11
1939.1
1962.67
1972.76
1969.48
1953.09
1924.03
1882.89
1830.4
1767.46
1695.1
1614.53
1527.06
1434.14
1337.27
1237.9
1137.17
1035.6
932.47
825.014
707.092
568.119
396.163
193.016
1880.42
1931.39
1968.9
1992.75
2002.9
1999.44
1982.65
1952.96
1910.98
1857.45
1793.29
1719.56
1637.45
1548.31
1453.61
1354.89
1253.63
1151.06
1047.72
942.958
833.999
714.623
574.032
399.99
194.309
1847.26
1897.38
1934.3
1957.84
1967.94
1964.71
1948.41
1919.46
1878.47
1826.15
1763.41
1691.29
1610.97
1523.77
1431.13
1334.55
1235.48
1135.05
1033.75
930.873
823.654
705.963
567.245
395.602
192.818
1874
1924.79
1962.16
1985.93
1996.05
1992.62
1975.91
1946.36
1904.55
1851.25
1787.36
1713.94
1632.17
1543.41
1449.12
1350.82
1250
1147.85
1044.92
940.533
831.921
712.88
572.662
399.102
194.01
1874
1924.79
1962.16
1985.93
1996.05
1992.62
1975.91
1946.36
1904.55
1851.25
1787.36
1713.94
1632.17
1543.41
1449.12
1350.82
1250
1147.85
1044.92
940.533
831.921
712.88
572.662
399.102
194.01
1847.26
1897.38
1934.3
1957.84
1967.94
1964.71
1948.41
1919.47
1878.47
1826.15
1763.41
1691.29
1610.97
1523.77
1431.13
1334.55
1235.48
1135.05
1033.75
930.874
823.655
705.964
567.246
395.602
192.818
1880.42
1931.39
1968.9
1992.75
2002.9
1999.44
1982.65
1952.96
1910.98
1857.45
1793.29
1719.56
1637.45
1548.31
1453.61
1354.89
1253.63
1151.06
1047.72
942.958
833.999
714.623
574.032
399.99
194.309
1851.9
1902.11
1939.1
1962.67
1972.76
1969.48
1953.09
1924.03
1882.89
1830.4
1767.46
1695.1
1614.53
1527.06
1434.14
1337.27
1237.9
1137.17
1035.6
932.47
825.014
707.092
568.119
396.163
193.016
1874
1924.79
1962.16
1985.93
1996.05
1992.62
1975.91
1946.36
1904.55
1851.25
1787.36
1713.94
1632.17
1543.41
1449.12
1350.82
1250
1147.85
1044.92
940.533
831.921
712.88
572.662
399.102
194.01
1847.26
1897.38
1934.3
1957.84
1967.94
1964.71
1948.41
1919.46
1878.47
1826.15
1763.41
1691.29
1610.97
1523.77
1431.13
1334.55
1235.48
1135.05
1033.75
930.873
823.654
705.963
567.245
395.602
192.818
1847.26
1897.38
1934.3
1957.84
1967.94
1964.71
1948.41
1919.47
1878.47
1826.15
1763.41
1691.29
1610.97
1523.77
1431.13
1334.55
1235.48
1135.05
1033.75
930.874
823.655
705.964
567.246
395.603
192.818
1874
1924.79
1962.16
1985.93
1996.05
1992.62
1975.91
1946.36
1904.55
1851.25
1787.36
1713.94
1632.17
1543.41
1449.12
1350.82
1250
1147.85
1044.92
940.533
831.921
712.88
572.662
399.102
194.01
)
;

boundaryField
{
    outletCentralUnloaded
    {
        type            zeroGradient;
    }
    inletCentralUnloaded
    {
        type            zeroGradient;
    }
    outletFuelElement
    {
        type            zeroGradient;
    }
    inletFuelElement
    {
        type            zeroGradient;
    }
    defaultFaces
    {
        type            zeroGradient;
    }
    baffle_master
    {
        type            zeroGradient;
    }
    baffle_slave
    {
        type            zeroGradient;
    }
}


// ************************************************************************* //
