/*--------------------------------*- C++ -*----------------------------------*\
| =========                 |                                                 |
| \\      /  F ield         | OpenFOAM: The Open Source CFD Toolbox           |
|  \\    /   O peration     | Version:  2212                                  |
|   \\  /    A nd           | Website:  www.openfoam.com                      |
|    \\/     M anipulation  |                                                 |
\*---------------------------------------------------------------------------*/
FoamFile
{
    version     2.0;
    format      ascii;
    arch        "LSB;label=32;scalar=64";
    class       volScalarField;
    location    "67/fluidRegion";
    object      Tco.nuclearFuelPin;
}
// * * * * * * * * * * * * * * * * * * * * * * * * * * * * * * * * * * * * * //

dimensions      [0 0 0 1 0 0 0];

internalField   nonuniform List<scalar> 
350
(
0
0
0
0
0
0
0
0
0
0
0
0
0
0
0
0
0
0
0
0
0
0
0
0
0
0
0
0
0
0
0
0
0
0
0
0
0
0
0
0
0
0
0
0
0
0
0
0
0
0
1840.09
1866.85
1880.94
1882.53
1871.9
1849.5
1815.88
1771.75
1717.94
1655.38
1585.14
1508.35
1426.3
1340.31
1251.82
1162.25
1072.94
984.887
898.38
812.483
724.152
626.944
509.951
360.892
181.195
1868.48
1895.73
1910.07
1911.7
1900.89
1878.09
1843.87
1798.94
1744.14
1680.44
1608.89
1530.67
1447.06
1359.42
1269.2
1177.86
1086.79
997.027
908.929
821.597
731.982
633.558
515.198
364.315
182.353
1835.48
1862.18
1876.25
1877.85
1867.27
1844.95
1811.45
1767.46
1713.82
1651.46
1581.43
1504.88
1423.08
1337.36
1249.14
1159.86
1070.83
983.037
896.778
811.105
722.976
625.962
509.183
360.395
181.019
1862.09
1889.21
1903.49
1905.09
1894.31
1871.58
1837.49
1792.73
1738.15
1674.7
1603.44
1525.54
1442.28
1355.02
1265.19
1174.26
1083.59
994.22
906.489
819.488
730.17
632.026
513.981
363.52
182.085
1862.09
1889.21
1903.49
1905.09
1894.31
1871.58
1837.49
1792.73
1738.15
1674.7
1603.44
1525.54
1442.28
1355.02
1265.19
1174.26
1083.59
994.22
906.489
819.488
730.17
632.026
513.981
363.52
182.085
1835.48
1862.18
1876.25
1877.85
1867.27
1844.95
1811.45
1767.46
1713.82
1651.46
1581.43
1504.88
1423.08
1337.36
1249.14
1159.86
1070.83
983.038
896.779
811.106
722.977
625.963
509.184
360.396
181.019
1868.48
1895.73
1910.07
1911.7
1900.89
1878.09
1843.87
1798.94
1744.14
1680.44
1608.89
1530.67
1447.06
1359.42
1269.2
1177.86
1086.79
997.027
908.929
821.597
731.982
633.558
515.198
364.315
182.353
1840.09
1866.85
1880.94
1882.53
1871.9
1849.5
1815.88
1771.75
1717.94
1655.38
1585.14
1508.35
1426.3
1340.31
1251.82
1162.25
1072.94
984.887
898.38
812.483
724.152
626.944
509.951
360.892
181.195
1862.09
1889.21
1903.49
1905.09
1894.31
1871.58
1837.49
1792.73
1738.15
1674.7
1603.44
1525.54
1442.28
1355.02
1265.19
1174.26
1083.59
994.22
906.489
819.488
730.17
632.026
513.981
363.52
182.085
1835.48
1862.18
1876.25
1877.85
1867.27
1844.95
1811.45
1767.46
1713.82
1651.46
1581.43
1504.88
1423.08
1337.36
1249.14
1159.86
1070.83
983.037
896.778
811.105
722.976
625.962
509.184
360.395
181.019
1835.48
1862.18
1876.25
1877.85
1867.27
1844.95
1811.45
1767.46
1713.82
1651.46
1581.43
1504.88
1423.08
1337.36
1249.14
1159.86
1070.83
983.038
896.779
811.106
722.977
625.963
509.184
360.396
181.019
1862.09
1889.21
1903.49
1905.09
1894.31
1871.58
1837.49
1792.73
1738.15
1674.7
1603.44
1525.54
1442.28
1355.02
1265.19
1174.26
1083.59
994.22
906.489
819.488
730.17
632.026
513.981
363.52
182.085
)
;

boundaryField
{
    outletCentralUnloaded
    {
        type            zeroGradient;
    }
    inletCentralUnloaded
    {
        type            zeroGradient;
    }
    outletFuelElement
    {
        type            zeroGradient;
    }
    inletFuelElement
    {
        type            zeroGradient;
    }
    defaultFaces
    {
        type            zeroGradient;
    }
    baffle_master
    {
        type            zeroGradient;
    }
    baffle_slave
    {
        type            zeroGradient;
    }
}


// ************************************************************************* //
