/*--------------------------------*- C++ -*----------------------------------*\
| =========                 |                                                 |
| \\      /  F ield         | OpenFOAM: The Open Source CFD Toolbox           |
|  \\    /   O peration     | Version:  2212                                  |
|   \\  /    A nd           | Website:  www.openfoam.com                      |
|    \\/     M anipulation  |                                                 |
\*---------------------------------------------------------------------------*/
FoamFile
{
    version     2.0;
    format      ascii;
    arch        "LSB;label=32;scalar=64";
    class       volScalarField;
    location    "67/fluidRegion";
    object      Tfav.nuclearFuelPin;
}
// * * * * * * * * * * * * * * * * * * * * * * * * * * * * * * * * * * * * * //

dimensions      [0 0 0 1 0 0 0];

internalField   nonuniform List<scalar> 
350
(
0
0
0
0
0
0
0
0
0
0
0
0
0
0
0
0
0
0
0
0
0
0
0
0
0
0
0
0
0
0
0
0
0
0
0
0
0
0
0
0
0
0
0
0
0
0
0
0
0
0
2222.8
3009.85
3766.19
4480.28
5141.2
5738.76
6263.78
6708.13
7064.94
7328.67
7495.24
7562.07
7528.15
7394.07
7162
6835.66
6420.09
5921.45
5346.48
4702
3993.73
3225.04
2395.54
1504.25
564.372
2255.57
3051.81
3816.91
4539.21
5207.63
5811.9
6342.71
6791.85
7152.38
7418.71
7586.69
7653.73
7618.8
7482.52
7247.08
6916.26
6495.19
5990.13
5407.98
4755.67
4039.01
3261.41
2422.39
1520.77
569.918
2217.49
3003.09
3758.06
4470.87
5130.6
5727.12
6251.23
6694.83
7051.06
7314.4
7480.75
7547.56
7513.8
7380.07
7148.54
6822.91
6408.22
5910.59
5336.76
4693.53
3986.59
3219.32
2391.33
1501.67
563.497
2248.17
3042.28
3805.35
4525.75
5192.43
5795.14
6324.6
6772.63
7132.29
7398.01
7565.66
7632.64
7597.94
7462.15
7227.49
6897.69
6477.89
5974.31
5393.81
4743.31
4028.58
3253.03
2416.2
1516.96
568.64
2248.17
3042.28
3805.35
4525.75
5192.43
5795.14
6324.6
6772.63
7132.29
7398.01
7565.66
7632.64
7597.94
7462.15
7227.49
6897.69
6477.89
5974.31
5393.81
4743.31
4028.58
3253.03
2416.2
1516.96
568.64
2217.49
3003.1
3758.06
4470.87
5130.6
5727.12
6251.23
6694.83
7051.06
7314.4
7480.76
7547.56
7513.8
7380.07
7148.54
6822.91
6408.22
5910.59
5336.76
4693.53
3986.59
3219.32
2391.33
1501.67
563.497
2255.57
3051.81
3816.91
4539.21
5207.63
5811.9
6342.71
6791.85
7152.38
7418.71
7586.69
7653.73
7618.8
7482.52
7247.08
6916.26
6495.19
5990.13
5407.98
4755.67
4039.01
3261.41
2422.39
1520.77
569.918
2222.8
3009.85
3766.19
4480.28
5141.2
5738.76
6263.78
6708.13
7064.94
7328.67
7495.24
7562.07
7528.15
7394.06
7162
6835.66
6420.09
5921.45
5346.48
4702
3993.73
3225.04
2395.54
1504.25
564.372
2248.17
3042.28
3805.35
4525.75
5192.43
5795.14
6324.6
6772.63
7132.29
7398.01
7565.66
7632.64
7597.94
7462.15
7227.49
6897.69
6477.89
5974.31
5393.81
4743.31
4028.58
3253.03
2416.2
1516.96
568.64
2217.49
3003.09
3758.06
4470.87
5130.6
5727.12
6251.23
6694.83
7051.06
7314.4
7480.75
7547.56
7513.8
7380.07
7148.54
6822.91
6408.22
5910.59
5336.76
4693.53
3986.59
3219.32
2391.33
1501.67
563.497
2217.49
3003.1
3758.06
4470.87
5130.6
5727.12
6251.23
6694.83
7051.06
7314.4
7480.76
7547.56
7513.8
7380.07
7148.54
6822.91
6408.22
5910.59
5336.76
4693.53
3986.59
3219.32
2391.33
1501.67
563.497
2248.17
3042.28
3805.35
4525.75
5192.43
5795.14
6324.6
6772.63
7132.29
7398.01
7565.66
7632.64
7597.94
7462.15
7227.49
6897.69
6477.89
5974.31
5393.81
4743.31
4028.58
3253.03
2416.2
1516.96
568.64
)
;

boundaryField
{
    outletCentralUnloaded
    {
        type            zeroGradient;
    }
    inletCentralUnloaded
    {
        type            zeroGradient;
    }
    outletFuelElement
    {
        type            zeroGradient;
    }
    inletFuelElement
    {
        type            zeroGradient;
    }
    defaultFaces
    {
        type            zeroGradient;
    }
    baffle_master
    {
        type            zeroGradient;
    }
    baffle_slave
    {
        type            zeroGradient;
    }
}


// ************************************************************************* //
