/*--------------------------------*- C++ -*----------------------------------*\
| =========                 |                                                 |
| \\      /  F ield         | OpenFOAM: The Open Source CFD Toolbox           |
|  \\    /   O peration     | Version:  2212                                  |
|   \\  /    A nd           | Website:  www.openfoam.com                      |
|    \\/     M anipulation  |                                                 |
\*---------------------------------------------------------------------------*/
FoamFile
{
    version     2.0;
    format      ascii;
    arch        "LSB;label=32;scalar=64";
    class       volScalarField;
    location    "67/fluidRegion";
    object      Tfi.nuclearFuelPin;
}
// * * * * * * * * * * * * * * * * * * * * * * * * * * * * * * * * * * * * * //

dimensions      [0 0 0 1 0 0 0];

internalField   nonuniform List<scalar> 
350
(
0
0
0
0
0
0
0
0
0
0
0
0
0
0
0
0
0
0
0
0
0
0
0
0
0
0
0
0
0
0
0
0
0
0
0
0
0
0
0
0
0
0
0
0
0
0
0
0
0
0
2424.79
3613.22
4761.42
5851.67
6867.11
7791.98
8611.91
9314.15
9887.74
10323.7
10615.3
10758
10749.5
10590
10282.1
9830.79
9242.99
8527.59
7694.74
6755.39
5719.83
4596.64
3390.99
2107.86
766.665
2459.87
3662.09
4823.54
5926.3
6953.31
7888.63
8717.74
9427.72
10007.5
10448.1
10742.5
10886.2
10877
10715.1
10403
9945.7
9350.42
8626.13
7783.14
6832.57
5784.88
4648.73
3429.24
2131.3
774.528
2419.12
3605.37
4751.47
5839.75
6853.37
7776.59
8595.08
9296.1
9868.71
10304
10595.2
10737.6
10729.2
10570.2
10263
9812.59
9225.97
8511.98
7680.75
6743.17
5709.54
4588.42
3384.97
2104.18
765.421
2451.95
3650.97
4809.36
5909.23
6933.56
7866.46
8693.44
9401.63
9979.99
10419.5
10713.3
10856.7
10847.7
10686.3
10375.1
9919.24
9325.68
8603.43
7762.78
6814.79
5769.9
4636.73
3420.43
2125.9
772.717
2451.95
3650.97
4809.36
5909.23
6933.56
7866.46
8693.44
9401.63
9979.99
10419.5
10713.3
10856.7
10847.7
10686.3
10375.1
9919.24
9325.68
8603.43
7762.78
6814.79
5769.9
4636.73
3420.43
2125.9
772.717
2419.12
3605.37
4751.47
5839.76
6853.37
7776.59
8595.08
9296.1
9868.72
10304
10595.2
10737.6
10729.2
10570.2
10263
9812.59
9225.97
8511.98
7680.75
6743.17
5709.54
4588.42
3384.97
2104.18
765.421
2459.87
3662.09
4823.54
5926.3
6953.31
7888.63
8717.74
9427.72
10007.5
10448.1
10742.5
10886.2
10877
10715.1
10403
9945.7
9350.42
8626.13
7783.14
6832.57
5784.88
4648.73
3429.24
2131.3
774.528
2424.79
3613.22
4761.42
5851.67
6867.11
7791.98
8611.91
9314.15
9887.74
10323.7
10615.3
10758
10749.5
10590
10282.1
9830.79
9242.99
8527.59
7694.74
6755.39
5719.83
4596.64
3390.99
2107.86
766.665
2451.95
3650.97
4809.36
5909.23
6933.56
7866.46
8693.44
9401.63
9979.99
10419.5
10713.3
10856.7
10847.7
10686.3
10375.1
9919.24
9325.68
8603.43
7762.78
6814.79
5769.9
4636.73
3420.43
2125.9
772.717
2419.12
3605.37
4751.47
5839.76
6853.37
7776.59
8595.08
9296.1
9868.71
10304
10595.2
10737.6
10729.2
10570.2
10263
9812.59
9225.97
8511.98
7680.75
6743.17
5709.54
4588.42
3384.97
2104.18
765.421
2419.12
3605.37
4751.47
5839.76
6853.37
7776.59
8595.08
9296.1
9868.72
10304
10595.2
10737.6
10729.2
10570.2
10263
9812.59
9225.97
8511.98
7680.75
6743.17
5709.54
4588.42
3384.97
2104.18
765.421
2451.95
3650.97
4809.36
5909.23
6933.56
7866.46
8693.44
9401.63
9979.98
10419.5
10713.3
10856.7
10847.7
10686.3
10375.1
9919.24
9325.68
8603.43
7762.78
6814.79
5769.9
4636.73
3420.43
2125.9
772.716
)
;

boundaryField
{
    outletCentralUnloaded
    {
        type            zeroGradient;
    }
    inletCentralUnloaded
    {
        type            zeroGradient;
    }
    outletFuelElement
    {
        type            zeroGradient;
    }
    inletFuelElement
    {
        type            zeroGradient;
    }
    defaultFaces
    {
        type            zeroGradient;
    }
    baffle_master
    {
        type            zeroGradient;
    }
    baffle_slave
    {
        type            zeroGradient;
    }
}


// ************************************************************************* //
