/*--------------------------------*- C++ -*----------------------------------*\
| =========                 |                                                 |
| \\      /  F ield         | OpenFOAM: The Open Source CFD Toolbox           |
|  \\    /   O peration     | Version:  2212                                  |
|   \\  /    A nd           | Website:  www.openfoam.com                      |
|    \\/     M anipulation  |                                                 |
\*---------------------------------------------------------------------------*/
FoamFile
{
    version     2.0;
    format      ascii;
    arch        "LSB;label=32;scalar=64";
    class       volScalarField;
    location    "67/fluidRegion";
    object      Tfo.nuclearFuelPin;
}
// * * * * * * * * * * * * * * * * * * * * * * * * * * * * * * * * * * * * * //

dimensions      [0 0 0 1 0 0 0];

internalField   nonuniform List<scalar> 
350
(
0
0
0
0
0
0
0
0
0
0
0
0
0
0
0
0
0
0
0
0
0
0
0
0
0
0
0
0
0
0
0
0
0
0
0
0
0
0
0
0
0
0
0
0
0
0
0
0
0
0
2022.56
2411.78
2779.73
3121
3430.52
3703.68
3936.39
4125.14
4267.09
4360.09
4402.74
4394.42
4335.31
4226.39
4069.45
3867
3622.16
3338.35
3018.98
2666.78
2282.9
1865.57
1408.89
905.98
363.87
2053.03
2446.89
2819.16
3164.35
3477.36
3753.51
3988.66
4179.28
4322.49
4416.12
4458.76
4449.79
4389.39
4278.56
4119.11
3913.6
3665.2
3377.45
3053.82
2697.14
2308.58
1886.37
1424.43
915.647
367.12
2017.61
2406.12
2773.4
3114.06
3423.05
3695.75
3928.08
4116.55
4258.31
4351.22
4393.89
4385.68
4326.78
4218.17
4061.64
3859.67
3615.39
3332.21
3013.51
2662.02
2278.88
1862.32
1406.48
904.49
363.361
2046.17
2438.94
2810.2
3154.48
3466.67
3742.12
3976.69
4166.87
4309.77
4403.25
4445.88
4437.06
4376.95
4266.55
4107.67
3902.86
3655.28
3368.44
3045.78
2690.14
2302.66
1881.57
1420.85
913.415
366.371
2046.17
2438.94
2810.2
3154.48
3466.67
3742.12
3976.69
4166.87
4309.77
4403.25
4445.88
4437.06
4376.94
4266.55
4107.67
3902.86
3655.28
3368.44
3045.78
2690.14
2302.66
1881.57
1420.85
913.415
366.371
2017.62
2406.12
2773.4
3114.06
3423.05
3695.75
3928.09
4116.55
4258.31
4351.23
4393.89
4385.68
4326.78
4218.18
4061.64
3859.68
3615.39
3332.21
3013.51
2662.02
2278.88
1862.33
1406.49
904.49
363.361
2053.03
2446.89
2819.16
3164.35
3477.36
3753.51
3988.66
4179.28
4322.49
4416.12
4458.76
4449.79
4389.39
4278.56
4119.11
3913.6
3665.2
3377.45
3053.82
2697.14
2308.58
1886.37
1424.44
915.647
367.12
2022.56
2411.78
2779.73
3121
3430.52
3703.68
3936.39
4125.14
4267.09
4360.09
4402.74
4394.42
4335.31
4226.39
4069.45
3867
3622.16
3338.35
3018.98
2666.78
2282.9
1865.57
1408.89
905.98
363.87
2046.17
2438.94
2810.2
3154.48
3466.67
3742.12
3976.69
4166.87
4309.77
4403.25
4445.88
4437.06
4376.94
4266.55
4107.67
3902.86
3655.28
3368.44
3045.78
2690.14
2302.66
1881.57
1420.85
913.415
366.371
2017.61
2406.12
2773.4
3114.06
3423.05
3695.75
3928.08
4116.55
4258.31
4351.22
4393.89
4385.68
4326.78
4218.17
4061.64
3859.67
3615.39
3332.21
3013.51
2662.02
2278.88
1862.32
1406.48
904.49
363.361
2017.62
2406.12
2773.4
3114.06
3423.05
3695.75
3928.09
4116.55
4258.31
4351.23
4393.89
4385.68
4326.78
4218.18
4061.64
3859.68
3615.39
3332.21
3013.51
2662.02
2278.88
1862.33
1406.48
904.49
363.361
2046.17
2438.94
2810.2
3154.48
3466.67
3742.12
3976.69
4166.87
4309.77
4403.25
4445.88
4437.06
4376.94
4266.55
4107.67
3902.86
3655.28
3368.44
3045.78
2690.14
2302.66
1881.57
1420.85
913.415
366.371
)
;

boundaryField
{
    outletCentralUnloaded
    {
        type            zeroGradient;
    }
    inletCentralUnloaded
    {
        type            zeroGradient;
    }
    outletFuelElement
    {
        type            zeroGradient;
    }
    inletFuelElement
    {
        type            zeroGradient;
    }
    defaultFaces
    {
        type            zeroGradient;
    }
    baffle_master
    {
        type            zeroGradient;
    }
    baffle_slave
    {
        type            zeroGradient;
    }
}


// ************************************************************************* //
