/*--------------------------------*- C++ -*----------------------------------*\
| =========                 |                                                 |
| \\      /  F ield         | OpenFOAM: The Open Source CFD Toolbox           |
|  \\    /   O peration     | Version:  2212                                  |
|   \\  /    A nd           | Website:  www.openfoam.com                      |
|    \\/     M anipulation  |                                                 |
\*---------------------------------------------------------------------------*/
FoamFile
{
    version     2.0;
    format      ascii;
    arch        "LSB;label=32;scalar=64";
    class       volScalarField;
    location    "55/neutroRegion";
    object      TClad;
}
// * * * * * * * * * * * * * * * * * * * * * * * * * * * * * * * * * * * * * //

dimensions      [0 0 0 1 0 0 0];

internalField   nonuniform List<scalar> 
350
(
0
0
0
0
0
0
0
0
0
0
0
0
0
0
0
0
0
0
0
0
0
0
0
0
0
0
0
0
0
0
0
0
0
0
0
0
0
0
0
0
0
0
0
0
0
0
0
0
0
0
1845.08
1883.21
1908.4
1920.64
1920.05
1906.92
1881.66
1844.84
1797.18
1739.52
1672.83
1598.21
1516.9
1430.22
1339.62
1246.55
1152.41
1058.26
964.497
870.299
772.737
665.53
537.947
377.885
186.941
1873.52
1912.26
1937.84
1950.24
1949.58
1936.16
1910.39
1872.86
1824.28
1765.52
1697.57
1621.55
1538.69
1450.36
1358
1263.13
1167.16
1071.24
975.801
880.073
781.122
672.584
543.513
381.502
188.163
1840.46
1878.52
1903.66
1915.89
1915.34
1902.27
1877.1
1840.42
1792.91
1735.43
1668.96
1594.58
1513.52
1427.11
1336.78
1244.01
1150.15
1056.28
962.774
868.816
771.473
664.477
537.128
377.357
186.754
1867.12
1905.71
1931.18
1943.53
1942.88
1929.5
1903.84
1866.46
1818.08
1759.56
1691.9
1616.19
1533.68
1445.72
1353.76
1259.3
1163.76
1068.24
973.187
877.812
779.182
670.951
542.223
380.662
187.88
1867.12
1905.71
1931.18
1943.53
1942.88
1929.5
1903.84
1866.46
1818.08
1759.56
1691.9
1616.19
1533.68
1445.72
1353.76
1259.3
1163.76
1068.24
973.187
877.812
779.182
670.951
542.223
380.662
187.88
1840.46
1878.52
1903.66
1915.89
1915.34
1902.27
1877.11
1840.42
1792.91
1735.44
1668.96
1594.58
1513.52
1427.11
1336.78
1244.01
1150.15
1056.28
962.775
868.816
771.473
664.478
537.129
377.358
186.754
1873.52
1912.26
1937.84
1950.24
1949.58
1936.16
1910.39
1872.86
1824.28
1765.52
1697.57
1621.55
1538.69
1450.36
1358
1263.13
1167.16
1071.24
975.801
880.073
781.122
672.584
543.513
381.502
188.163
1845.08
1883.21
1908.4
1920.64
1920.05
1906.92
1881.66
1844.84
1797.18
1739.52
1672.83
1598.21
1516.9
1430.22
1339.62
1246.55
1152.41
1058.26
964.497
870.299
772.737
665.53
537.947
377.885
186.941
1867.12
1905.71
1931.18
1943.53
1942.88
1929.5
1903.84
1866.46
1818.08
1759.56
1691.9
1616.19
1533.68
1445.72
1353.76
1259.3
1163.76
1068.24
973.187
877.813
779.182
670.951
542.223
380.662
187.88
1840.46
1878.52
1903.66
1915.89
1915.34
1902.27
1877.1
1840.42
1792.91
1735.43
1668.96
1594.58
1513.52
1427.11
1336.78
1244.01
1150.15
1056.28
962.774
868.816
771.473
664.477
537.129
377.357
186.754
1840.46
1878.52
1903.66
1915.89
1915.34
1902.27
1877.11
1840.42
1792.91
1735.44
1668.96
1594.58
1513.52
1427.11
1336.78
1244.01
1150.15
1056.28
962.775
868.816
771.473
664.478
537.129
377.358
186.754
1867.12
1905.71
1931.18
1943.53
1942.88
1929.5
1903.84
1866.46
1818.08
1759.56
1691.9
1616.19
1533.68
1445.72
1353.76
1259.3
1163.76
1068.24
973.187
877.813
779.182
670.951
542.223
380.662
187.88
)
;

boundaryField
{
    outletCentralUnloaded
    {
        type            zeroGradient;
    }
    inletCentralUnloaded
    {
        type            zeroGradient;
    }
    outletFuelElement
    {
        type            zeroGradient;
    }
    inletFuelElement
    {
        type            zeroGradient;
    }
    defaultFaces
    {
        type            zeroGradient;
    }
}


// ************************************************************************* //
