/*--------------------------------*- C++ -*----------------------------------*\
| =========                 |                                                 |
| \\      /  F ield         | OpenFOAM: The Open Source CFD Toolbox           |
|  \\    /   O peration     | Version:  2212                                  |
|   \\  /    A nd           | Website:  www.openfoam.com                      |
|    \\/     M anipulation  |                                                 |
\*---------------------------------------------------------------------------*/
FoamFile
{
    version     2.0;
    format      ascii;
    arch        "LSB;label=32;scalar=64";
    class       volScalarField;
    location    "52/fluidRegion";
    object      epsilon;
}
// * * * * * * * * * * * * * * * * * * * * * * * * * * * * * * * * * * * * * //

dimensions      [0 2 -3 0 0 0 0];

internalField   nonuniform List<scalar> 
350
(
66.9833
66.9664
66.9498
66.9334
66.9172
66.9012
66.8853
66.8695
66.8535
66.8376
66.8217
66.8061
66.7912
66.7774
66.7653
66.7558
66.75
66.75
66.7586
66.7803
66.8221
66.8947
67.0141
67.2056
67.5069
66.9833
66.9664
66.9498
66.9334
66.9172
66.9012
66.8853
66.8695
66.8535
66.8376
66.8217
66.8061
66.7912
66.7774
66.7653
66.7558
66.75
66.75
66.7586
66.7803
66.8221
66.8947
67.0141
67.2055
67.5069
7.64149e+06
7.03267e+06
6.35861e+06
5.64043e+06
4.90596e+06
4.18076e+06
3.48696e+06
2.84262e+06
2.26123e+06
1.75166e+06
1.31823e+06
961116
676774
458667
298057
184946
109070
60807.9
31861.2
15608
7147.99
3116.2
1385.5
735.653
547.154
7.80687e+06
7.18633e+06
6.4992e+06
5.7665e+06
5.01675e+06
4.27608e+06
3.56717e+06
2.90852e+06
2.31399e+06
1.79271e+06
1.34918e+06
983623
692495
469158
304708
188927
111302
61970.4
32416
15846.1
7237.52
3144.53
1392.67
737.095
547.577
7.61443e+06
7.00746e+06
6.33565e+06
5.61992e+06
4.88801e+06
4.16537e+06
3.47406e+06
2.83206e+06
2.25281e+06
1.74512e+06
1.31333e+06
957558
674295
457017
297012
184321
108718
60624
31772.6
15569.1
7132.77
3110.93
1383.86
735.162
546.978
7.77024e+06
7.15223e+06
6.46791e+06
5.73838e+06
4.99198e+06
4.25472e+06
3.54916e+06
2.89369e+06
2.30209e+06
1.78343e+06
1.34217e+06
978515
688919
466768
303191
188017
110792
61704.4
32289
15791.7
7217.11
3138.12
1391.08
736.797
547.497
7.77024e+06
7.15223e+06
6.46791e+06
5.73838e+06
4.99198e+06
4.25472e+06
3.54916e+06
2.89369e+06
2.30209e+06
1.78343e+06
1.34217e+06
978515
688920
466768
303191
188017
110792
61704.4
32289
15791.7
7217.11
3138.12
1391.08
736.797
547.497
7.61445e+06
7.00747e+06
6.33566e+06
5.61993e+06
4.88802e+06
4.16538e+06
3.47407e+06
2.83206e+06
2.25281e+06
1.74513e+06
1.31333e+06
957560
674297
457018
297013
184321
108719
60624.2
31772.6
15569.1
7132.77
3110.92
1383.86
735.159
546.977
7.80687e+06
7.18633e+06
6.4992e+06
5.7665e+06
5.01675e+06
4.27608e+06
3.56717e+06
2.90852e+06
2.31399e+06
1.79271e+06
1.34918e+06
983623
692494
469158
304708
188927
111302
61970.4
32416
15846.1
7237.52
3144.53
1392.67
737.095
547.577
7.64149e+06
7.03267e+06
6.35861e+06
5.64042e+06
4.90596e+06
4.18076e+06
3.48696e+06
2.84262e+06
2.26123e+06
1.75166e+06
1.31823e+06
961116
676773
458667
298057
184946
109070
60807.9
31861.2
15608
7148
3116.2
1385.5
735.654
547.155
7.77024e+06
7.15223e+06
6.46791e+06
5.73838e+06
4.99198e+06
4.25472e+06
3.54916e+06
2.89369e+06
2.3021e+06
1.78343e+06
1.34217e+06
978516
688920
466768
303191
188017
110792
61704.4
32289
15791.7
7217.11
3138.12
1391.08
736.798
547.498
7.61443e+06
7.00746e+06
6.33565e+06
5.61992e+06
4.88801e+06
4.16537e+06
3.47406e+06
2.83206e+06
2.25281e+06
1.74512e+06
1.31333e+06
957559
674296
457017
297012
184321
108718
60624
31772.5
15569.1
7132.75
3110.91
1383.86
735.159
546.977
7.61445e+06
7.00747e+06
6.33566e+06
5.61993e+06
4.88802e+06
4.16538e+06
3.47407e+06
2.83206e+06
2.25281e+06
1.74513e+06
1.31333e+06
957560
674297
457018
297013
184321
108719
60624.2
31772.6
15569.1
7132.78
3110.92
1383.86
735.159
546.976
7.77024e+06
7.15223e+06
6.46791e+06
5.73838e+06
4.99198e+06
4.25472e+06
3.54916e+06
2.89369e+06
2.30209e+06
1.78343e+06
1.34217e+06
978515
688920
466768
303191
188017
110792
61704.4
32289
15791.7
7217.12
3138.12
1391.09
736.8
547.499
)
;

boundaryField
{
    outletCentralUnloaded
    {
        type            zeroGradient;
    }
    inletCentralUnloaded
    {
        type            zeroGradient;
    }
    outletFuelElement
    {
        type            zeroGradient;
    }
    inletFuelElement
    {
        type            zeroGradient;
    }
    defaultFaces
    {
        type            zeroGradient;
    }
    baffle_master
    {
        type            zeroGradient;
    }
    baffle_slave
    {
        type            zeroGradient;
    }
}


// ************************************************************************* //
