/*--------------------------------*- C++ -*----------------------------------*\
| =========                 |                                                 |
| \\      /  F ield         | OpenFOAM: The Open Source CFD Toolbox           |
|  \\    /   O peration     | Version:  2212                                  |
|   \\  /    A nd           | Website:  www.openfoam.com                      |
|    \\/     M anipulation  |                                                 |
\*---------------------------------------------------------------------------*/
FoamFile
{
    version     2.0;
    format      ascii;
    arch        "LSB;label=32;scalar=64";
    class       volScalarField;
    location    "52/fluidRegion";
    object      heatFlux.structure;
}
// * * * * * * * * * * * * * * * * * * * * * * * * * * * * * * * * * * * * * //

dimensions      [1 0 -3 0 0 0 0];

internalField   nonuniform List<scalar> 
350
(
-258328
-258330
-258331
-258331
-258331
-258331
-258332
-258332
-258333
-258334
-258335
-258336
-258337
-258338
-258339
-258340
-258341
-258343
-258345
-258348
-258352
-258357
-258362
-258369
-258805
-258328
-258330
-258331
-258331
-258331
-258331
-258332
-258332
-258333
-258334
-258335
-258336
-258337
-258338
-258339
-258340
-258341
-258343
-258345
-258348
-258352
-258357
-258362
-258369
-258805
445174
1.33892e+06
2.21147e+06
3.04909e+06
3.83855e+06
4.56741e+06
5.22418e+06
5.79851e+06
6.28134e+06
6.66505e+06
6.94361e+06
7.11261e+06
7.1694e+06
7.11309e+06
6.94456e+06
6.66647e+06
6.2832e+06
5.80081e+06
5.22687e+06
4.5705e+06
3.84198e+06
3.05289e+06
2.21563e+06
1.3436e+06
450651
450207
1.35419e+06
2.23674e+06
3.08395e+06
3.88246e+06
4.61968e+06
5.28397e+06
5.86488e+06
6.35324e+06
6.74136e+06
7.02311e+06
7.19405e+06
7.2515e+06
7.19454e+06
7.02408e+06
6.74281e+06
6.35516e+06
5.86724e+06
5.28673e+06
4.62284e+06
3.88598e+06
3.08785e+06
2.241e+06
1.35898e+06
455806
444373
1.33649e+06
2.20745e+06
3.04353e+06
3.83156e+06
4.55909e+06
5.21466e+06
5.78794e+06
6.26989e+06
6.6529e+06
6.93095e+06
7.09964e+06
7.15633e+06
7.10012e+06
6.93189e+06
6.65431e+06
6.27175e+06
5.79023e+06
5.21733e+06
4.56216e+06
3.83497e+06
3.04732e+06
2.21159e+06
1.34115e+06
449830
449048
1.35067e+06
2.23093e+06
3.07593e+06
3.87235e+06
4.60764e+06
5.27021e+06
5.8496e+06
6.33669e+06
6.72379e+06
7.00481e+06
7.1753e+06
7.2326e+06
7.17579e+06
7.00577e+06
6.72523e+06
6.33859e+06
5.85195e+06
5.27295e+06
4.61079e+06
3.87585e+06
3.0798e+06
2.23516e+06
1.35544e+06
454619
449048
1.35067e+06
2.23093e+06
3.07593e+06
3.87235e+06
4.60764e+06
5.27021e+06
5.8496e+06
6.33669e+06
6.72379e+06
7.0048e+06
7.1753e+06
7.2326e+06
7.17579e+06
7.00577e+06
6.72523e+06
6.33859e+06
5.85195e+06
5.27295e+06
4.61079e+06
3.87585e+06
3.0798e+06
2.23516e+06
1.35544e+06
454619
444373
1.33649e+06
2.20745e+06
3.04353e+06
3.83155e+06
4.55909e+06
5.21466e+06
5.78794e+06
6.26989e+06
6.6529e+06
6.93095e+06
7.09964e+06
7.15633e+06
7.10012e+06
6.93189e+06
6.65431e+06
6.27175e+06
5.79023e+06
5.21733e+06
4.56216e+06
3.83497e+06
3.04732e+06
2.21159e+06
1.34115e+06
449830
450207
1.35419e+06
2.23674e+06
3.08395e+06
3.88246e+06
4.61968e+06
5.28397e+06
5.86488e+06
6.35324e+06
6.74136e+06
7.02311e+06
7.19405e+06
7.2515e+06
7.19454e+06
7.02408e+06
6.74281e+06
6.35516e+06
5.86724e+06
5.28673e+06
4.62284e+06
3.88598e+06
3.08785e+06
2.241e+06
1.35898e+06
455806
445174
1.33892e+06
2.21148e+06
3.04909e+06
3.83855e+06
4.56741e+06
5.22418e+06
5.79851e+06
6.28134e+06
6.66505e+06
6.94361e+06
7.11261e+06
7.1694e+06
7.11309e+06
6.94456e+06
6.66647e+06
6.2832e+06
5.80081e+06
5.22687e+06
4.5705e+06
3.84198e+06
3.05289e+06
2.21563e+06
1.3436e+06
450651
449048
1.35067e+06
2.23093e+06
3.07593e+06
3.87235e+06
4.60764e+06
5.27021e+06
5.8496e+06
6.33669e+06
6.72379e+06
7.0048e+06
7.1753e+06
7.2326e+06
7.17579e+06
7.00577e+06
6.72523e+06
6.33859e+06
5.85195e+06
5.27295e+06
4.61079e+06
3.87585e+06
3.0798e+06
2.23516e+06
1.35544e+06
454619
444373
1.33649e+06
2.20745e+06
3.04353e+06
3.83155e+06
4.55909e+06
5.21466e+06
5.78794e+06
6.26989e+06
6.6529e+06
6.93095e+06
7.09964e+06
7.15633e+06
7.10012e+06
6.93189e+06
6.65431e+06
6.27175e+06
5.79023e+06
5.21733e+06
4.56216e+06
3.83497e+06
3.04732e+06
2.21159e+06
1.34115e+06
449830
444373
1.33649e+06
2.20745e+06
3.04353e+06
3.83155e+06
4.55909e+06
5.21466e+06
5.78794e+06
6.26989e+06
6.6529e+06
6.93095e+06
7.09964e+06
7.15633e+06
7.10012e+06
6.93189e+06
6.65431e+06
6.27175e+06
5.79023e+06
5.21733e+06
4.56216e+06
3.83497e+06
3.04732e+06
2.21159e+06
1.34115e+06
449830
449048
1.35067e+06
2.23093e+06
3.07593e+06
3.87235e+06
4.60764e+06
5.27021e+06
5.8496e+06
6.33669e+06
6.72379e+06
7.0048e+06
7.1753e+06
7.2326e+06
7.17579e+06
7.00577e+06
6.72523e+06
6.33859e+06
5.85195e+06
5.27295e+06
4.61079e+06
3.87585e+06
3.0798e+06
2.23516e+06
1.35544e+06
454619
)
;

boundaryField
{
    outletCentralUnloaded
    {
        type            zeroGradient;
    }
    inletCentralUnloaded
    {
        type            zeroGradient;
    }
    outletFuelElement
    {
        type            zeroGradient;
    }
    inletFuelElement
    {
        type            zeroGradient;
    }
    defaultFaces
    {
        type            zeroGradient;
    }
    baffle_master
    {
        type            zeroGradient;
    }
    baffle_slave
    {
        type            zeroGradient;
    }
}


// ************************************************************************* //
