/*--------------------------------*- C++ -*----------------------------------*\
| =========                 |                                                 |
| \\      /  F ield         | OpenFOAM: The Open Source CFD Toolbox           |
|  \\    /   O peration     | Version:  2212                                  |
|   \\  /    A nd           | Website:  www.openfoam.com                      |
|    \\/     M anipulation  |                                                 |
\*---------------------------------------------------------------------------*/
FoamFile
{
    version     2.0;
    format      ascii;
    arch        "LSB;label=32;scalar=64";
    class       volScalarField;
    location    "52/fluidRegion";
    object      htc;
}
// * * * * * * * * * * * * * * * * * * * * * * * * * * * * * * * * * * * * * //

dimensions      [1 0 -3 -1 0 0 0];

internalField   nonuniform List<scalar> 
350
(
3101.59
3101.6
3101.59
3101.57
3101.56
3101.54
3101.53
3101.52
3101.51
3101.51
3101.5
3101.49
3101.49
3101.48
3101.47
3101.47
3101.47
3101.47
3101.48
3101.5
3101.53
3101.57
3101.62
3101.68
3106.9
3101.59
3101.6
3101.59
3101.57
3101.56
3101.54
3101.53
3101.52
3101.51
3101.51
3101.5
3101.49
3101.49
3101.48
3101.47
3101.47
3101.47
3101.47
3101.48
3101.5
3101.53
3101.57
3101.62
3101.68
3106.9
27245
27163.9
26977.1
26665.3
26229.9
25672.9
24997.4
24207.2
23307.4
22305.2
21210.2
20034.7
18794
17504.9
16183.9
14844.8
13498
12151.6
10814.8
9503.59
8246.15
7089.01
6103.32
5382.85
4943.64
27333.9
27252.4
27066.3
26754.5
26318.6
25760.6
25083.5
24290.9
23387.9
22381.3
21280.6
20098.2
18849.4
17551.6
16222
14875.2
13522
12170.2
10828.8
9513.15
8251.14
7089.52
6100.28
5378.61
4941.68
27231
27149.4
26962.6
26650.9
26215.5
25658.8
24983.6
24193.8
23294.6
22293.1
21199
20024.6
18785.2
17497.5
16177.7
14839.8
13493.9
12148.3
10812.1
9501.57
8244.75
7088.18
6102.91
5382.59
4943.5
27314.2
27232.8
27046.5
26734.6
26298.8
25741
25064.2
24272.1
23369.8
22364.2
21264.7
20083.8
18836.9
17541
16213.4
14868.4
13516.6
12166.1
10825.7
9511.05
8250.09
7089.5
6101.09
5379.71
4942.2
27314.2
27232.8
27046.5
26734.6
26298.8
25741
25064.2
24272.1
23369.8
22364.2
21264.7
20083.8
18836.9
17541
16213.4
14868.4
13516.6
12166.1
10825.7
9511.05
8250.09
7089.5
6101.09
5379.71
4942.2
27231
27149.4
26962.6
26650.9
26215.5
25658.8
24983.6
24193.8
23294.6
22293.1
21199
20024.6
18785.2
17497.5
16177.7
14839.8
13493.9
12148.3
10812.1
9501.57
8244.74
7088.17
6102.9
5382.58
4943.49
27333.9
27252.4
27066.3
26754.5
26318.6
25760.6
25083.5
24290.9
23387.9
22381.3
21280.6
20098.2
18849.4
17551.6
16222
14875.2
13522
12170.2
10828.8
9513.15
8251.14
7089.52
6100.28
5378.61
4941.68
27245
27163.9
26977.1
26665.3
26229.9
25672.9
24997.4
24207.2
23307.4
22305.2
21210.2
20034.7
18794
17504.9
16183.9
14844.8
13498
12151.6
10814.8
9503.59
8246.15
7089.01
6103.32
5382.85
4943.65
27314.2
27232.8
27046.5
26734.6
26298.8
25741
25064.2
24272.1
23369.8
22364.2
21264.7
20083.8
18836.9
17541
16213.4
14868.4
13516.6
12166.1
10825.7
9511.05
8250.09
7089.5
6101.09
5379.71
4942.2
27231
27149.4
26962.6
26650.9
26215.5
25658.8
24983.6
24193.8
23294.6
22293.1
21199
20024.6
18785.2
17497.5
16177.7
14839.8
13493.9
12148.3
10812.1
9501.57
8244.75
7088.18
6102.91
5382.59
4943.5
27231
27149.4
26962.6
26650.9
26215.5
25658.8
24983.6
24193.8
23294.6
22293.1
21199
20024.6
18785.2
17497.5
16177.7
14839.8
13493.9
12148.3
10812.1
9501.57
8244.74
7088.17
6102.9
5382.58
4943.49
27314.2
27232.8
27046.5
26734.6
26298.8
25741
25064.2
24272.1
23369.8
22364.2
21264.7
20083.8
18836.9
17541
16213.4
14868.4
13516.6
12166.1
10825.7
9511.05
8250.09
7089.5
6101.09
5379.71
4942.2
)
;

boundaryField
{
    outletCentralUnloaded
    {
        type            zeroGradient;
    }
    inletCentralUnloaded
    {
        type            zeroGradient;
    }
    outletFuelElement
    {
        type            zeroGradient;
    }
    inletFuelElement
    {
        type            zeroGradient;
    }
    defaultFaces
    {
        type            zeroGradient;
    }
    baffle_master
    {
        type            zeroGradient;
    }
    baffle_slave
    {
        type            zeroGradient;
    }
}


// ************************************************************************* //
