/*--------------------------------*- C++ -*----------------------------------*\
| =========                 |                                                 |
| \\      /  F ield         | OpenFOAM: The Open Source CFD Toolbox           |
|  \\    /   O peration     | Version:  2212                                  |
|   \\  /    A nd           | Website:  www.openfoam.com                      |
|    \\/     M anipulation  |                                                 |
\*---------------------------------------------------------------------------*/
FoamFile
{
    version     2.0;
    format      ascii;
    arch        "LSB;label=32;scalar=64";
    class       volScalarField;
    location    "52/fluidRegion";
    object      k;
}
// * * * * * * * * * * * * * * * * * * * * * * * * * * * * * * * * * * * * * //

dimensions      [0 2 -2 0 0 0 0];

internalField   nonuniform List<scalar> 
350
(
0.421087
0.421019
0.420951
0.420883
0.420815
0.420748
0.42068
0.420612
0.420544
0.420477
0.42041
0.420345
0.420284
0.420229
0.420184
0.420152
0.420142
0.420163
0.42023
0.420367
0.420613
0.421023
0.421686
0.422736
0.424379
0.421087
0.421019
0.420951
0.420883
0.420815
0.420748
0.42068
0.420612
0.420544
0.420477
0.42041
0.420345
0.420284
0.420229
0.420184
0.420152
0.420142
0.420163
0.42023
0.420367
0.420613
0.421023
0.421686
0.422736
0.424379
406.402
383.851
358.199
329.952
299.895
268.806
237.432
206.474
176.571
148.283
122.09
98.3703
77.3985
59.3305
44.1982
31.9094
22.259
14.9538
9.64506
5.96334
3.54883
2.07224
1.25
0.853307
0.713303
412.116
389.301
363.345
334.744
304.296
272.789
240.981
209.585
179.247
150.54
123.949
99.8632
78.562
60.2072
44.834
32.3508
22.5508
15.136
9.7512
6.02012
3.576
2.08343
1.25377
0.854333
0.71369
405.456
382.947
357.349
329.163
299.174
268.156
236.855
205.97
176.138
147.92
121.792
98.1316
77.213
59.191
44.0972
31.8392
22.2125
14.9246
9.62786
5.95393
3.54411
2.0701
1.24912
0.852962
0.713168
410.861
388.102
362.21
333.684
303.32
271.904
240.191
208.89
178.648
150.034
123.531
99.5267
78.2991
60.0087
44.6897
32.2505
22.4844
15.0945
9.72701
6.00719
3.56983
2.0809
1.25294
0.854121
0.713615
410.861
388.102
362.21
333.684
303.32
271.904
240.191
208.89
178.648
150.034
123.531
99.5267
78.2991
60.0087
44.6898
32.2505
22.4844
15.0945
9.72702
6.00719
3.56983
2.0809
1.25294
0.85412
0.713615
405.456
382.947
357.349
329.164
299.174
268.156
236.855
205.971
176.139
147.92
121.792
98.1318
77.2131
59.1911
44.0973
31.8393
22.2126
14.9247
9.62789
5.95394
3.54412
2.0701
1.24912
0.852964
0.71317
412.116
389.301
363.345
334.744
304.296
272.789
240.981
209.585
179.247
150.54
123.949
99.8632
78.562
60.2072
44.834
32.3508
22.5508
15.136
9.7512
6.02012
3.576
2.08343
1.25377
0.854332
0.713689
406.402
383.851
358.199
329.952
299.895
268.806
237.432
206.474
176.57
148.283
122.09
98.3703
77.3985
59.3305
44.1982
31.9094
22.259
14.9538
9.64508
5.96336
3.54885
2.07226
1.25002
0.853319
0.713314
410.861
388.102
362.21
333.684
303.32
271.904
240.191
208.89
178.648
150.034
123.531
99.5267
78.2992
60.0087
44.6898
32.2505
22.4844
15.0945
9.72702
6.00719
3.56983
2.08091
1.25294
0.854125
0.713619
405.456
382.947
357.349
329.163
299.174
268.156
236.855
205.97
176.138
147.92
121.792
98.1316
77.213
59.191
44.0972
31.8392
22.2125
14.9246
9.62784
5.9539
3.54408
2.07007
1.24909
0.85294
0.713149
405.456
382.947
357.349
329.164
299.174
268.156
236.855
205.971
176.139
147.92
121.792
98.1318
77.2131
59.1911
44.0973
31.8393
22.2126
14.9247
9.6279
5.95395
3.54413
2.0701
1.24912
0.852961
0.713165
410.861
388.102
362.21
333.684
303.32
271.904
240.191
208.89
178.648
150.034
123.531
99.5267
78.2992
60.0087
44.6898
32.2505
22.4844
15.0945
9.72704
6.00721
3.56985
2.08093
1.25296
0.854139
0.713631
)
;

boundaryField
{
    outletCentralUnloaded
    {
        type            zeroGradient;
    }
    inletCentralUnloaded
    {
        type            zeroGradient;
    }
    outletFuelElement
    {
        type            zeroGradient;
    }
    inletFuelElement
    {
        type            zeroGradient;
    }
    defaultFaces
    {
        type            zeroGradient;
    }
    baffle_master
    {
        type            zeroGradient;
    }
    baffle_slave
    {
        type            zeroGradient;
    }
}


// ************************************************************************* //
