/*--------------------------------*- C++ -*----------------------------------*\
| =========                 |                                                 |
| \\      /  F ield         | OpenFOAM: The Open Source CFD Toolbox           |
|  \\    /   O peration     | Version:  2212                                  |
|   \\  /    A nd           | Website:  www.openfoam.com                      |
|    \\/     M anipulation  |                                                 |
\*---------------------------------------------------------------------------*/
FoamFile
{
    version     2.0;
    format      ascii;
    arch        "LSB;label=32;scalar=64";
    class       volScalarField;
    location    "52/fluidRegion";
    object      p_rgh;
}
// * * * * * * * * * * * * * * * * * * * * * * * * * * * * * * * * * * * * * //

dimensions      [1 -1 -2 0 0 0 0];

internalField   nonuniform List<scalar> 
350
(
3.44743e+06
3.44773e+06
3.44802e+06
3.44832e+06
3.44861e+06
3.44891e+06
3.4492e+06
3.4495e+06
3.44979e+06
3.45009e+06
3.45038e+06
3.45068e+06
3.45097e+06
3.45127e+06
3.45156e+06
3.45186e+06
3.45215e+06
3.45245e+06
3.45275e+06
3.45304e+06
3.45334e+06
3.45364e+06
3.45393e+06
3.45423e+06
3.45451e+06
3.44743e+06
3.44773e+06
3.44802e+06
3.44832e+06
3.44861e+06
3.44891e+06
3.4492e+06
3.4495e+06
3.44979e+06
3.45009e+06
3.45038e+06
3.45068e+06
3.45097e+06
3.45127e+06
3.45156e+06
3.45186e+06
3.45215e+06
3.45245e+06
3.45275e+06
3.45304e+06
3.45334e+06
3.45364e+06
3.45393e+06
3.45423e+06
3.45451e+06
3.47383e+06
3.52563e+06
3.57683e+06
3.62711e+06
3.67617e+06
3.72372e+06
3.76951e+06
3.8133e+06
3.85488e+06
3.89406e+06
3.93068e+06
3.96461e+06
3.99573e+06
4.02397e+06
4.04928e+06
4.07165e+06
4.09114e+06
4.10783e+06
4.12186e+06
4.13341e+06
4.14267e+06
4.14987e+06
4.15524e+06
4.1591e+06
4.16177e+06
3.47383e+06
3.52563e+06
3.57683e+06
3.62711e+06
3.67617e+06
3.72372e+06
3.76951e+06
3.8133e+06
3.85488e+06
3.89406e+06
3.93068e+06
3.96461e+06
3.99573e+06
4.02397e+06
4.04928e+06
4.07165e+06
4.09114e+06
4.10783e+06
4.12186e+06
4.13341e+06
4.14267e+06
4.14987e+06
4.15524e+06
4.1591e+06
4.16177e+06
3.47383e+06
3.52563e+06
3.57683e+06
3.62711e+06
3.67617e+06
3.72372e+06
3.76951e+06
3.8133e+06
3.85488e+06
3.89406e+06
3.93068e+06
3.96461e+06
3.99573e+06
4.02397e+06
4.04928e+06
4.07165e+06
4.09114e+06
4.10783e+06
4.12186e+06
4.13341e+06
4.14267e+06
4.14987e+06
4.15524e+06
4.1591e+06
4.16177e+06
3.47383e+06
3.52563e+06
3.57683e+06
3.62711e+06
3.67617e+06
3.72372e+06
3.76951e+06
3.8133e+06
3.85488e+06
3.89406e+06
3.93068e+06
3.96461e+06
3.99573e+06
4.02397e+06
4.04928e+06
4.07165e+06
4.09114e+06
4.10783e+06
4.12186e+06
4.13341e+06
4.14267e+06
4.14987e+06
4.15524e+06
4.1591e+06
4.16177e+06
3.47383e+06
3.52563e+06
3.57683e+06
3.62711e+06
3.67617e+06
3.72372e+06
3.76951e+06
3.8133e+06
3.85488e+06
3.89406e+06
3.93068e+06
3.96461e+06
3.99573e+06
4.02397e+06
4.04928e+06
4.07165e+06
4.09114e+06
4.10783e+06
4.12186e+06
4.13341e+06
4.14267e+06
4.14987e+06
4.15524e+06
4.1591e+06
4.16177e+06
3.47383e+06
3.52563e+06
3.57683e+06
3.62711e+06
3.67617e+06
3.72372e+06
3.76951e+06
3.8133e+06
3.85488e+06
3.89406e+06
3.93068e+06
3.96461e+06
3.99573e+06
4.02397e+06
4.04928e+06
4.07165e+06
4.09114e+06
4.10783e+06
4.12186e+06
4.13341e+06
4.14267e+06
4.14987e+06
4.15524e+06
4.1591e+06
4.16177e+06
3.47383e+06
3.52563e+06
3.57683e+06
3.62711e+06
3.67617e+06
3.72372e+06
3.76951e+06
3.8133e+06
3.85488e+06
3.89406e+06
3.93068e+06
3.96461e+06
3.99573e+06
4.02397e+06
4.04928e+06
4.07165e+06
4.09114e+06
4.10783e+06
4.12186e+06
4.13341e+06
4.14267e+06
4.14987e+06
4.15524e+06
4.1591e+06
4.16177e+06
3.47383e+06
3.52563e+06
3.57683e+06
3.62711e+06
3.67617e+06
3.72372e+06
3.76951e+06
3.8133e+06
3.85488e+06
3.89406e+06
3.93068e+06
3.96461e+06
3.99573e+06
4.02397e+06
4.04928e+06
4.07165e+06
4.09114e+06
4.10783e+06
4.12186e+06
4.13341e+06
4.14267e+06
4.14987e+06
4.15524e+06
4.1591e+06
4.16177e+06
3.47383e+06
3.52563e+06
3.57683e+06
3.62711e+06
3.67617e+06
3.72372e+06
3.76951e+06
3.8133e+06
3.85488e+06
3.89406e+06
3.93068e+06
3.96461e+06
3.99573e+06
4.02397e+06
4.04928e+06
4.07165e+06
4.09114e+06
4.10783e+06
4.12186e+06
4.13341e+06
4.14267e+06
4.14987e+06
4.15524e+06
4.1591e+06
4.16177e+06
3.47383e+06
3.52563e+06
3.57683e+06
3.62711e+06
3.67617e+06
3.72372e+06
3.76951e+06
3.8133e+06
3.85488e+06
3.89406e+06
3.93068e+06
3.96461e+06
3.99573e+06
4.02397e+06
4.04928e+06
4.07165e+06
4.09114e+06
4.10783e+06
4.12186e+06
4.13341e+06
4.14267e+06
4.14987e+06
4.15524e+06
4.1591e+06
4.16177e+06
3.47383e+06
3.52563e+06
3.57683e+06
3.62711e+06
3.67617e+06
3.72372e+06
3.76951e+06
3.8133e+06
3.85488e+06
3.89406e+06
3.93068e+06
3.96461e+06
3.99573e+06
4.02397e+06
4.04928e+06
4.07165e+06
4.09114e+06
4.10783e+06
4.12186e+06
4.13341e+06
4.14267e+06
4.14987e+06
4.15524e+06
4.1591e+06
4.16177e+06
3.47383e+06
3.52563e+06
3.57683e+06
3.62711e+06
3.67617e+06
3.72372e+06
3.76951e+06
3.8133e+06
3.85488e+06
3.89406e+06
3.93068e+06
3.96461e+06
3.99573e+06
4.02397e+06
4.04928e+06
4.07165e+06
4.09114e+06
4.10783e+06
4.12186e+06
4.13341e+06
4.14267e+06
4.14987e+06
4.15524e+06
4.1591e+06
4.16177e+06
)
;

boundaryField
{
    outletCentralUnloaded
    {
        type            fixedValue;
        value           uniform 3.44728e+06;
    }
    inletCentralUnloaded
    {
        type            zeroGradient;
    }
    outletFuelElement
    {
        type            fixedValue;
        value           uniform 3.44728e+06;
    }
    inletFuelElement
    {
        type            zeroGradient;
    }
    defaultFaces
    {
        type            zeroGradient;
    }
    baffle_master
    {
        type            zeroGradient;
    }
    baffle_slave
    {
        type            zeroGradient;
    }
}


// ************************************************************************* //
