/*--------------------------------*- C++ -*----------------------------------*\
| =========                 |                                                 |
| \\      /  F ield         | OpenFOAM: The Open Source CFD Toolbox           |
|  \\    /   O peration     | Version:  2212                                  |
|   \\  /    A nd           | Website:  www.openfoam.com                      |
|    \\/     M anipulation  |                                                 |
\*---------------------------------------------------------------------------*/
FoamFile
{
    version     2.0;
    format      ascii;
    arch        "LSB;label=32;scalar=64";
    class       volScalarField;
    location    "52/fluidRegion";
    object      Re;
}
// * * * * * * * * * * * * * * * * * * * * * * * * * * * * * * * * * * * * * //

dimensions      [0 0 0 0 0 0 0];

internalField   nonuniform List<scalar> 
350
(
174047
174047
174045
174043
174040
174038
174036
174034
174032
174031
174029
174027
174026
174024
174023
174021
174020
174019
174018
174019
174019
174021
174023
174027
174391
174047
174047
174045
174043
174040
174038
174036
174034
174032
174031
174029
174027
174026
174024
174023
174021
174020
174019
174018
174019
174019
174021
174023
174027
174391
55426
55376.4
55377.6
55377.9
55376.8
55374.5
55370.6
55365
55357.5
55347.8
55335.9
55321.7
55305.2
55286.5
55265.3
55240.4
55210.2
55172.7
55127.1
55079.2
55048.6
55094.8
55361.9
56107.5
56596.9
54935.2
54878
54875.1
54871.1
54866.2
54860.3
54853.1
54844.4
54834
54821.7
54807.7
54792.3
54776.1
54760.3
54745.5
54731.8
54717.9
54702.1
54683.6
54668.7
54678.4
54775.4
55110
55945.9
56544.2
55508
55458.1
55459.7
55460.3
55459.5
55457.3
55453.6
55448.1
55440.6
55430.9
55418.9
55404.3
55387.1
55367.3
55344.3
55316.9
55283.2
55241.2
55190.3
55136
55097.6
55134
55388.7
56119.7
56598.8
55044.9
54989.9
54988.1
54985.3
54981.5
54976.6
54970.4
54962.6
54953
54941.5
54928.2
54913.2
54897.2
54880.9
54864.8
54848.8
54831.3
54810.7
54786.2
54763.9
54764.5
54850.2
55169.5
55984.8
56557.3
55044.9
54989.9
54988.1
54985.3
54981.5
54976.6
54970.4
54962.6
54953
54941.5
54928.2
54913.2
54897.2
54880.9
54864.8
54848.8
54831.3
54810.7
54786.2
54763.9
54764.5
54850.2
55169.5
55984.8
56557.3
55508
55458
55459.7
55460.2
55459.5
55457.3
55453.5
55448
55440.6
55430.9
55418.8
55404.2
55387.1
55367.3
55344.2
55316.8
55283.1
55241.2
55190.2
55135.9
55097.5
55133.8
55388.6
56119.5
56598.7
54935.2
54878
54875.1
54871.1
54866.2
54860.3
54853.1
54844.4
54834
54821.7
54807.7
54792.3
54776.1
54760.3
54745.5
54731.8
54717.9
54702.1
54683.6
54668.7
54678.4
54775.4
55110
55945.9
56544.2
55426
55376.4
55377.6
55377.9
55376.8
55374.5
55370.6
55365
55357.5
55347.8
55335.9
55321.7
55305.2
55286.5
55265.3
55240.4
55210.2
55172.7
55127.1
55079.2
55048.6
55094.8
55361.9
56107.5
56596.9
55044.9
54989.9
54988.1
54985.3
54981.5
54976.6
54970.4
54962.6
54953
54941.5
54928.2
54913.2
54897.2
54880.9
54864.8
54848.8
54831.3
54810.7
54786.2
54763.9
54764.5
54850.1
55169.5
55984.9
56557.3
55508
55458.1
55459.7
55460.3
55459.5
55457.3
55453.6
55448.1
55440.6
55430.9
55418.9
55404.3
55387.1
55367.3
55344.3
55316.9
55283.2
55241.2
55190.3
55136
55097.6
55134
55388.7
56119.7
56598.8
55508.1
55458
55459.7
55460.2
55459.5
55457.3
55453.5
55448
55440.6
55430.9
55418.8
55404.2
55387.1
55367.3
55344.2
55316.8
55283.1
55241.2
55190.2
55135.9
55097.4
55133.8
55388.5
56119.5
56598.7
55044.9
54989.9
54988.1
54985.3
54981.6
54976.6
54970.4
54962.6
54953
54941.5
54928.2
54913.2
54897.2
54880.9
54864.8
54848.8
54831.3
54810.7
54786.2
54763.9
54764.5
54850.1
55169.5
55984.9
56557.3
)
;

boundaryField
{
    outletCentralUnloaded
    {
        type            zeroGradient;
    }
    inletCentralUnloaded
    {
        type            zeroGradient;
    }
    outletFuelElement
    {
        type            zeroGradient;
    }
    inletFuelElement
    {
        type            zeroGradient;
    }
    defaultFaces
    {
        type            zeroGradient;
    }
    baffle_master
    {
        type            zeroGradient;
    }
    baffle_slave
    {
        type            zeroGradient;
    }
}


// ************************************************************************* //
