/*--------------------------------*- C++ -*----------------------------------*\
| =========                 |                                                 |
| \\      /  F ield         | OpenFOAM: The Open Source CFD Toolbox           |
|  \\    /   O peration     | Version:  2212                                  |
|   \\  /    A nd           | Website:  www.openfoam.com                      |
|    \\/     M anipulation  |                                                 |
\*---------------------------------------------------------------------------*/
FoamFile
{
    version     2.0;
    format      ascii;
    arch        "LSB;label=32;scalar=64";
    class       volScalarField;
    location    "52/fluidRegion";
    object      Tci.nuclearFuelPin;
}
// * * * * * * * * * * * * * * * * * * * * * * * * * * * * * * * * * * * * * //

dimensions      [0 0 0 1 0 0 0];

internalField   nonuniform List<scalar> 
350
(
0
0
0
0
0
0
0
0
0
0
0
0
0
0
0
0
0
0
0
0
0
0
0
0
0
0
0
0
0
0
0
0
0
0
0
0
0
0
0
0
0
0
0
0
0
0
0
0
0
0
1850.59
1900.88
1937.94
1961.58
1971.73
1968.52
1952.2
1923.2
1882.11
1829.68
1766.8
1694.5
1613.98
1526.56
1433.69
1336.87
1237.54
1136.86
1035.33
932.228
824.795
706.892
567.948
396.07
193.071
1879.08
1930.13
1967.71
1991.63
2001.85
1998.45
1981.73
1952.1
1910.18
1856.72
1792.62
1718.94
1636.88
1547.8
1453.15
1354.48
1253.27
1150.74
1047.44
942.71
833.776
714.419
573.857
399.894
194.363
1845.97
1896.16
1933.15
1956.76
1966.92
1963.75
1947.51
1918.63
1877.69
1825.44
1762.76
1690.69
1610.42
1523.27
1430.68
1334.16
1235.13
1134.74
1033.47
930.632
823.436
705.764
567.075
395.51
192.874
1872.67
1923.53
1960.98
1984.82
1995.01
1991.64
1974.99
1945.5
1903.76
1850.52
1786.69
1713.32
1631.61
1542.9
1448.66
1350.41
1249.64
1147.53
1044.64
940.286
831.699
712.676
572.488
399.007
194.064
1872.67
1923.53
1960.98
1984.82
1995.01
1991.64
1974.99
1945.5
1903.76
1850.52
1786.69
1713.32
1631.61
1542.9
1448.66
1350.41
1249.64
1147.53
1044.64
940.286
831.698
712.677
572.488
399.007
194.064
1845.97
1896.16
1933.15
1956.76
1966.92
1963.75
1947.52
1918.63
1877.69
1825.44
1762.76
1690.69
1610.42
1523.27
1430.68
1334.16
1235.13
1134.74
1033.47
930.632
823.437
705.764
567.076
395.51
192.874
1879.08
1930.13
1967.71
1991.63
2001.85
1998.45
1981.73
1952.1
1910.18
1856.72
1792.62
1718.94
1636.88
1547.79
1453.15
1354.48
1253.27
1150.74
1047.44
942.71
833.776
714.419
573.857
399.894
194.363
1850.59
1900.88
1937.94
1961.58
1971.73
1968.52
1952.2
1923.2
1882.11
1829.68
1766.8
1694.5
1613.98
1526.56
1433.69
1336.87
1237.54
1136.86
1035.33
932.228
824.795
706.892
567.948
396.07
193.071
1872.67
1923.53
1960.98
1984.82
1995.01
1991.64
1974.99
1945.5
1903.76
1850.52
1786.69
1713.32
1631.61
1542.9
1448.66
1350.41
1249.64
1147.53
1044.64
940.286
831.698
712.677
572.488
399.007
194.064
1845.97
1896.16
1933.15
1956.76
1966.92
1963.75
1947.51
1918.63
1877.69
1825.44
1762.76
1690.69
1610.42
1523.27
1430.68
1334.16
1235.13
1134.74
1033.47
930.632
823.436
705.764
567.075
395.51
192.874
1845.97
1896.16
1933.15
1956.76
1966.92
1963.75
1947.52
1918.63
1877.69
1825.44
1762.76
1690.69
1610.42
1523.27
1430.68
1334.16
1235.13
1134.74
1033.47
930.632
823.437
705.764
567.076
395.51
192.874
1872.67
1923.53
1960.98
1984.82
1995.01
1991.64
1974.99
1945.5
1903.76
1850.52
1786.69
1713.32
1631.61
1542.9
1448.66
1350.41
1249.64
1147.53
1044.64
940.286
831.698
712.677
572.488
399.007
194.064
)
;

boundaryField
{
    outletCentralUnloaded
    {
        type            zeroGradient;
    }
    inletCentralUnloaded
    {
        type            zeroGradient;
    }
    outletFuelElement
    {
        type            zeroGradient;
    }
    inletFuelElement
    {
        type            zeroGradient;
    }
    defaultFaces
    {
        type            zeroGradient;
    }
    baffle_master
    {
        type            zeroGradient;
    }
    baffle_slave
    {
        type            zeroGradient;
    }
}


// ************************************************************************* //
