/*--------------------------------*- C++ -*----------------------------------*\
| =========                 |                                                 |
| \\      /  F ield         | OpenFOAM: The Open Source CFD Toolbox           |
|  \\    /   O peration     | Version:  2212                                  |
|   \\  /    A nd           | Website:  www.openfoam.com                      |
|    \\/     M anipulation  |                                                 |
\*---------------------------------------------------------------------------*/
FoamFile
{
    version     2.0;
    format      ascii;
    arch        "LSB;label=32;scalar=64";
    class       volScalarField;
    location    "52/fluidRegion";
    object      Tco.nuclearFuelPin;
}
// * * * * * * * * * * * * * * * * * * * * * * * * * * * * * * * * * * * * * //

dimensions      [0 0 0 1 0 0 0];

internalField   nonuniform List<scalar> 
350
(
0
0
0
0
0
0
0
0
0
0
0
0
0
0
0
0
0
0
0
0
0
0
0
0
0
0
0
0
0
0
0
0
0
0
0
0
0
0
0
0
0
0
0
0
0
0
0
0
0
0
1838.91
1865.75
1879.91
1881.56
1871.01
1848.67
1815.11
1771.04
1717.29
1654.79
1584.59
1507.86
1425.85
1339.91
1251.46
1161.94
1072.67
984.647
898.169
812.295
723.98
626.782
509.809
360.813
181.246
1867.26
1894.59
1909.01
1910.71
1899.97
1877.23
1843.07
1798.21
1743.47
1679.82
1608.32
1530.16
1446.6
1359.01
1268.83
1177.54
1086.51
996.78
908.712
821.404
731.805
633.392
515.051
364.234
182.403
1834.3
1861.08
1875.22
1876.89
1866.38
1844.12
1810.68
1766.75
1713.17
1650.86
1580.88
1504.39
1422.63
1336.96
1248.79
1159.54
1070.55
982.798
896.568
810.918
722.804
625.8
509.041
360.317
181.07
1860.89
1888.09
1902.43
1904.11
1893.39
1870.73
1836.7
1792
1737.48
1674.09
1602.88
1525.04
1441.82
1354.61
1264.83
1173.94
1083.31
993.975
906.274
819.297
729.994
631.861
513.836
363.44
182.135
1860.89
1888.09
1902.43
1904.11
1893.39
1870.73
1836.7
1792
1737.48
1674.09
1602.88
1525.04
1441.82
1354.61
1264.83
1173.94
1083.31
993.975
906.274
819.297
729.994
631.861
513.836
363.44
182.135
1834.31
1861.09
1875.22
1876.89
1866.38
1844.12
1810.68
1766.75
1713.17
1650.86
1580.88
1504.39
1422.63
1336.96
1248.79
1159.55
1070.55
982.799
896.569
810.919
722.805
625.801
509.042
360.318
181.07
1867.26
1894.59
1909.01
1910.71
1899.97
1877.23
1843.07
1798.21
1743.47
1679.82
1608.32
1530.16
1446.6
1359.01
1268.83
1177.54
1086.51
996.78
908.712
821.404
731.805
633.392
515.051
364.234
182.403
1838.91
1865.75
1879.91
1881.56
1871.01
1848.67
1815.11
1771.04
1717.29
1654.79
1584.59
1507.86
1425.85
1339.91
1251.46
1161.94
1072.67
984.647
898.169
812.295
723.98
626.782
509.809
360.813
181.246
1860.89
1888.09
1902.43
1904.11
1893.39
1870.73
1836.7
1792
1737.48
1674.09
1602.88
1525.04
1441.82
1354.61
1264.83
1173.94
1083.31
993.975
906.274
819.297
729.994
631.861
513.836
363.44
182.135
1834.3
1861.08
1875.22
1876.89
1866.38
1844.12
1810.68
1766.75
1713.17
1650.86
1580.88
1504.39
1422.63
1336.96
1248.79
1159.54
1070.55
982.798
896.568
810.918
722.804
625.8
509.041
360.317
181.07
1834.3
1861.09
1875.22
1876.89
1866.38
1844.12
1810.68
1766.75
1713.17
1650.86
1580.88
1504.39
1422.63
1336.96
1248.79
1159.55
1070.55
982.799
896.569
810.919
722.805
625.801
509.042
360.318
181.07
1860.89
1888.09
1902.43
1904.11
1893.39
1870.73
1836.7
1792
1737.48
1674.09
1602.88
1525.04
1441.82
1354.61
1264.83
1173.94
1083.31
993.975
906.274
819.297
729.994
631.861
513.836
363.44
182.135
)
;

boundaryField
{
    outletCentralUnloaded
    {
        type            zeroGradient;
    }
    inletCentralUnloaded
    {
        type            zeroGradient;
    }
    outletFuelElement
    {
        type            zeroGradient;
    }
    inletFuelElement
    {
        type            zeroGradient;
    }
    defaultFaces
    {
        type            zeroGradient;
    }
    baffle_master
    {
        type            zeroGradient;
    }
    baffle_slave
    {
        type            zeroGradient;
    }
}


// ************************************************************************* //
