/*--------------------------------*- C++ -*----------------------------------*\
| =========                 |                                                 |
| \\      /  F ield         | OpenFOAM: The Open Source CFD Toolbox           |
|  \\    /   O peration     | Version:  2212                                  |
|   \\  /    A nd           | Website:  www.openfoam.com                      |
|    \\/     M anipulation  |                                                 |
\*---------------------------------------------------------------------------*/
FoamFile
{
    version     2.0;
    format      ascii;
    arch        "LSB;label=32;scalar=64";
    class       volScalarField;
    location    "52/fluidRegion";
    object      Tfo.nuclearFuelPin;
}
// * * * * * * * * * * * * * * * * * * * * * * * * * * * * * * * * * * * * * //

dimensions      [0 0 0 1 0 0 0];

internalField   nonuniform List<scalar> 
350
(
0
0
0
0
0
0
0
0
0
0
0
0
0
0
0
0
0
0
0
0
0
0
0
0
0
0
0
0
0
0
0
0
0
0
0
0
0
0
0
0
0
0
0
0
0
0
0
0
0
0
2019.5
2408.77
2776.78
3118.1
3427.69
3700.92
3933.7
4122.53
4264.58
4357.68
4400.44
4392.25
4333.26
4224.48
4067.69
3865.39
3620.7
3337.05
3017.82
2665.77
2282.02
1864.82
1408.32
905.684
363.993
2049.9
2443.81
2816.13
3161.39
3474.46
3750.68
3985.91
4176.62
4319.92
4413.66
4456.42
4447.57
4387.3
4276.61
4117.31
3911.95
3663.71
3376.12
3052.64
2696.1
2307.69
1885.61
1423.85
915.342
367.241
2014.57
2403.12
2770.46
3111.18
3420.23
3693
3925.41
4113.96
4255.81
4348.83
4391.6
4383.52
4324.74
4216.27
4059.88
3858.07
3613.93
3330.91
3012.35
2661.01
2278
1861.58
1405.91
904.194
363.485
2043.05
2435.88
2807.19
3151.53
3463.78
3739.3
3973.96
4164.22
4307.22
4400.8
4443.55
4434.85
4374.87
4264.61
4105.88
3901.22
3653.8
3367.11
3044.61
2689.11
2301.77
1880.81
1420.26
913.112
366.492
2043.05
2435.88
2807.19
3151.53
3463.78
3739.3
3973.96
4164.22
4307.22
4400.8
4443.55
4434.85
4374.87
4264.61
4105.88
3901.22
3653.8
3367.11
3044.61
2689.11
2301.77
1880.81
1420.26
913.112
366.492
2014.57
2403.12
2770.46
3111.18
3420.23
3693
3925.41
4113.96
4255.81
4348.83
4391.6
4383.52
4324.75
4216.27
4059.88
3858.07
3613.94
3330.91
3012.35
2661.01
2278
1861.58
1405.91
904.195
363.485
2049.9
2443.81
2816.13
3161.39
3474.46
3750.68
3985.91
4176.61
4319.92
4413.66
4456.42
4447.57
4387.3
4276.61
4117.31
3911.95
3663.71
3376.12
3052.64
2696.1
2307.69
1885.61
1423.85
915.342
367.241
2019.5
2408.77
2776.78
3118.1
3427.69
3700.92
3933.7
4122.53
4264.58
4357.68
4400.44
4392.25
4333.26
4224.48
4067.69
3865.39
3620.7
3337.05
3017.82
2665.77
2282.02
1864.82
1408.32
905.684
363.994
2043.05
2435.88
2807.19
3151.53
3463.78
3739.3
3973.96
4164.22
4307.22
4400.8
4443.55
4434.85
4374.87
4264.61
4105.88
3901.22
3653.8
3367.11
3044.61
2689.11
2301.77
1880.81
1420.26
913.112
366.492
2014.57
2403.12
2770.46
3111.18
3420.23
3693
3925.41
4113.96
4255.81
4348.83
4391.6
4383.52
4324.74
4216.27
4059.88
3858.07
3613.93
3330.91
3012.35
2661.01
2278
1861.58
1405.91
904.194
363.485
2014.57
2403.12
2770.46
3111.18
3420.23
3693
3925.41
4113.96
4255.81
4348.83
4391.6
4383.52
4324.75
4216.27
4059.88
3858.07
3613.94
3330.91
3012.35
2661.01
2278
1861.58
1405.91
904.195
363.485
2043.05
2435.88
2807.19
3151.53
3463.78
3739.3
3973.96
4164.22
4307.22
4400.8
4443.55
4434.85
4374.87
4264.61
4105.88
3901.22
3653.8
3367.11
3044.61
2689.11
2301.77
1880.81
1420.26
913.112
366.492
)
;

boundaryField
{
    outletCentralUnloaded
    {
        type            zeroGradient;
    }
    inletCentralUnloaded
    {
        type            zeroGradient;
    }
    outletFuelElement
    {
        type            zeroGradient;
    }
    inletFuelElement
    {
        type            zeroGradient;
    }
    defaultFaces
    {
        type            zeroGradient;
    }
    baffle_master
    {
        type            zeroGradient;
    }
    baffle_slave
    {
        type            zeroGradient;
    }
}


// ************************************************************************* //
