/*--------------------------------*- C++ -*----------------------------------*\
| =========                 |                                                 |
| \\      /  F ield         | OpenFOAM: The Open Source CFD Toolbox           |
|  \\    /   O peration     | Version:  2212                                  |
|   \\  /    A nd           | Website:  www.openfoam.com                      |
|    \\/     M anipulation  |                                                 |
\*---------------------------------------------------------------------------*/
FoamFile
{
    version     2.0;
    format      ascii;
    arch        "LSB;label=32;scalar=64";
    class       volScalarField;
    location    "20/fluidRegion";
    object      alphaRhoMagU.vapour;
}
// * * * * * * * * * * * * * * * * * * * * * * * * * * * * * * * * * * * * * //

dimensions      [1 -2 -1 0 0 0 0];

internalField   nonuniform List<scalar> 
17
(
0
0
0
0
0
0
0
0
0
0
0.337585
2.27256
6.22904
11.3685
17.6715
24.986
32.8255
)
;

boundaryField
{
    inlet
    {
        type            calculated;
        value           uniform 0;
    }
    outlet
    {
        type            calculated;
        value           uniform 32.8161;
    }
    fixedWalls
    {
        type            calculated;
        value           nonuniform List<scalar> 
68
(
0
0
0
0
0
0
0
0
0
0
0.337585
2.27256
6.22904
11.3685
17.6715
24.986
32.8255
0
0
0
0
0
0
0
0
0
0
0.337585
2.27256
6.22904
11.3685
17.6715
24.986
32.8255
0
0
0
0
0
0
0
0
0
0
0.337585
2.27256
6.22904
11.3685
17.6715
24.986
32.8255
0
0
0
0
0
0
0
0
0
0
0.337585
2.27256
6.22904
11.3685
17.6715
24.986
32.8255
)
;
    }
}


// ************************************************************************* //
