/*--------------------------------*- C++ -*----------------------------------*\
| =========                 |                                                 |
| \\      /  F ield         | OpenFOAM: The Open Source CFD Toolbox           |
|  \\    /   O peration     | Version:  2212                                  |
|   \\  /    A nd           | Website:  www.openfoam.com                      |
|    \\/     M anipulation  |                                                 |
\*---------------------------------------------------------------------------*/
FoamFile
{
    version     2.0;
    format      ascii;
    arch        "LSB;label=32;scalar=64";
    class       volTensorField;
    location    "20/fluidRegion";
    object      KdTotU;
}
// * * * * * * * * * * * * * * * * * * * * * * * * * * * * * * * * * * * * * //

dimensions      [1 -2 -2 0 0 0 0];

internalField   nonuniform List<tensor> 
17
(
(5252.12 0 0 0 5252.12 0 0 0 5252.12)
(5252.12 0 0 0 5252.12 0 0 0 5252.12)
(5246.89 0 0 0 5246.89 0 0 0 5246.89)
(5265.89 0 0 0 5265.89 0 0 0 5265.89)
(5285.06 0 0 0 5285.06 0 0 0 5285.06)
(5304.41 0 0 0 5304.41 0 0 0 5304.41)
(5323.9 0 0 0 5323.9 0 0 0 5323.9)
(5343.53 0 0 0 5343.53 0 0 0 5343.53)
(5363.29 0 0 0 5363.29 0 0 0 5363.29)
(5383.15 0 0 0 5383.15 0 0 0 5383.15)
(5783.41 0 0 0 5783.41 0 0 0 5783.41)
(7543.61 0 0 0 7543.61 0 0 0 7543.61)
(10759.8 0 0 0 10759.8 0 0 0 10759.8)
(14624.7 0 0 0 14624.7 0 0 0 14624.7)
(19119 0 0 0 19119 0 0 0 19119)
(24120.2 0 0 0 24120.2 0 0 0 24120.2)
(29335.2 0 0 0 29335.2 0 0 0 29335.2)
)
;

boundaryField
{
    inlet
    {
        type            zeroGradient;
    }
    outlet
    {
        type            zeroGradient;
    }
    fixedWalls
    {
        type            zeroGradient;
    }
}


// ************************************************************************* //
