/*--------------------------------*- C++ -*----------------------------------*\
| =========                 |                                                 |
| \\      /  F ield         | OpenFOAM: The Open Source CFD Toolbox           |
|  \\    /   O peration     | Version:  2212                                  |
|   \\  /    A nd           | Website:  www.openfoam.com                      |
|    \\/     M anipulation  |                                                 |
\*---------------------------------------------------------------------------*/
FoamFile
{
    version     2.0;
    format      ascii;
    arch        "LSB;label=32;scalar=64";
    class       volScalarField;
    location    "20/fluidRegion";
    object      p;
}
// * * * * * * * * * * * * * * * * * * * * * * * * * * * * * * * * * * * * * //

dimensions      [1 -1 -2 0 0 0 0];

internalField   nonuniform List<scalar> 
17
(
1.47816e+07
1.47807e+07
1.47793e+07
1.47773e+07
1.47753e+07
1.47733e+07
1.47714e+07
1.47694e+07
1.47674e+07
1.47654e+07
1.47633e+07
1.4761e+07
1.4758e+07
1.4754e+07
1.47489e+07
1.47427e+07
1.47352e+07
)
;

boundaryField
{
    inlet
    {
        type            calculated;
        value           uniform 1.47821e+07;
    }
    outlet
    {
        type            calculated;
        value           uniform 1.4731e+07;
    }
    fixedWalls
    {
        type            calculated;
        value           nonuniform List<scalar> 
68
(
1.47816e+07
1.47807e+07
1.47793e+07
1.47773e+07
1.47753e+07
1.47733e+07
1.47714e+07
1.47694e+07
1.47674e+07
1.47654e+07
1.47633e+07
1.4761e+07
1.4758e+07
1.4754e+07
1.47489e+07
1.47427e+07
1.47352e+07
1.47816e+07
1.47807e+07
1.47793e+07
1.47773e+07
1.47753e+07
1.47733e+07
1.47714e+07
1.47694e+07
1.47674e+07
1.47654e+07
1.47633e+07
1.4761e+07
1.4758e+07
1.4754e+07
1.47489e+07
1.47427e+07
1.47352e+07
1.47816e+07
1.47807e+07
1.47793e+07
1.47773e+07
1.47753e+07
1.47733e+07
1.47714e+07
1.47694e+07
1.47674e+07
1.47654e+07
1.47633e+07
1.4761e+07
1.4758e+07
1.4754e+07
1.47489e+07
1.47427e+07
1.47352e+07
1.47816e+07
1.47807e+07
1.47793e+07
1.47773e+07
1.47753e+07
1.47733e+07
1.47714e+07
1.47694e+07
1.47674e+07
1.47654e+07
1.47633e+07
1.4761e+07
1.4758e+07
1.4754e+07
1.47489e+07
1.47427e+07
1.47352e+07
)
;
    }
}


// ************************************************************************* //
