/*--------------------------------*- C++ -*----------------------------------*\
| =========                 |                                                 |
| \\      /  F ield         | OpenFOAM: The Open Source CFD Toolbox           |
|  \\    /   O peration     | Version:  2212                                  |
|   \\  /    A nd           | Website:  www.openfoam.com                      |
|    \\/     M anipulation  |                                                 |
\*---------------------------------------------------------------------------*/
FoamFile
{
    version     2.0;
    format      ascii;
    arch        "LSB;label=32;scalar=64";
    class       volScalarField;
    location    "20/fluidRegion";
    object      p_rgh;
}
// * * * * * * * * * * * * * * * * * * * * * * * * * * * * * * * * * * * * * //

dimensions      [1 -1 -2 0 0 0 0];

internalField   nonuniform List<scalar> 
17
(
1.47818e+07
1.47812e+07
1.47802e+07
1.47789e+07
1.47776e+07
1.47762e+07
1.47749e+07
1.47735e+07
1.47721e+07
1.47707e+07
1.47693e+07
1.47674e+07
1.47648e+07
1.47612e+07
1.47565e+07
1.47506e+07
1.47434e+07
)
;

boundaryField
{
    inlet
    {
        type            fixedFluxPressure;
        gradient        uniform 12087.9;
        value           uniform 1.47821e+07;
    }
    outlet
    {
        type            fixedValue;
        value           uniform 1.47394e+07;
    }
    fixedWalls
    {
        type            fixedFluxPressure;
        gradient        uniform 0;
        value           nonuniform List<scalar> 
68
(
1.47818e+07
1.47812e+07
1.47802e+07
1.47789e+07
1.47776e+07
1.47762e+07
1.47749e+07
1.47735e+07
1.47721e+07
1.47707e+07
1.47693e+07
1.47674e+07
1.47648e+07
1.47612e+07
1.47565e+07
1.47506e+07
1.47434e+07
1.47818e+07
1.47812e+07
1.47802e+07
1.47789e+07
1.47776e+07
1.47762e+07
1.47749e+07
1.47735e+07
1.47721e+07
1.47707e+07
1.47693e+07
1.47674e+07
1.47648e+07
1.47612e+07
1.47565e+07
1.47506e+07
1.47434e+07
1.47818e+07
1.47812e+07
1.47802e+07
1.47789e+07
1.47776e+07
1.47762e+07
1.47749e+07
1.47735e+07
1.47721e+07
1.47707e+07
1.47693e+07
1.47674e+07
1.47648e+07
1.47612e+07
1.47565e+07
1.47506e+07
1.47434e+07
1.47818e+07
1.47812e+07
1.47802e+07
1.47789e+07
1.47776e+07
1.47762e+07
1.47749e+07
1.47735e+07
1.47721e+07
1.47707e+07
1.47693e+07
1.47674e+07
1.47648e+07
1.47612e+07
1.47565e+07
1.47506e+07
1.47434e+07
)
;
    }
}


// ************************************************************************* //
