/*--------------------------------*- C++ -*----------------------------------*\
| =========                 |                                                 |
| \\      /  F ield         | OpenFOAM: The Open Source CFD Toolbox           |
|  \\    /   O peration     | Version:  2212                                  |
|   \\  /    A nd           | Website:  www.openfoam.com                      |
|    \\/     M anipulation  |                                                 |
\*---------------------------------------------------------------------------*/
FoamFile
{
    version     2.0;
    format      ascii;
    arch        "LSB;label=32;scalar=64";
    class       volScalarField;
    location    "74/fluidRegion";
    object      k;
}
// * * * * * * * * * * * * * * * * * * * * * * * * * * * * * * * * * * * * * //

dimensions      [0 2 -2 0 0 0 0];

internalField   nonuniform List<scalar> 
350
(
0.421087
0.421019
0.420954
0.420889
0.420824
0.420757
0.420687
0.420617
0.420547
0.420479
0.420413
0.420349
0.42029
0.420236
0.42019
0.420157
0.420144
0.420161
0.420225
0.420361
0.420605
0.421016
0.421681
0.422734
0.424378
0.421087
0.421019
0.420954
0.420889
0.420824
0.420757
0.420687
0.420617
0.420547
0.420479
0.420413
0.420349
0.42029
0.420236
0.42019
0.420157
0.420144
0.420161
0.420225
0.420361
0.420605
0.421016
0.421681
0.422734
0.424378
406.903
384.298
358.591
330.293
300.189
269.057
237.643
206.65
176.715
148.4
122.182
98.4422
77.4531
59.3709
44.2272
31.9294
22.2723
14.9623
9.6501
5.96613
3.55022
2.07281
1.25017
0.853304
0.713258
412.627
389.757
363.746
335.093
304.596
273.045
241.197
209.764
179.394
150.659
124.044
99.9367
78.6179
60.2485
44.8636
32.3713
22.5644
15.1446
9.75635
6.02297
3.57741
2.08401
1.25394
0.854332
0.713646
405.956
383.393
357.74
329.504
299.467
268.405
237.065
206.146
176.282
148.036
121.884
98.2033
77.2674
59.2313
44.1261
31.8592
22.2258
14.9331
9.6329
5.95672
3.5455
2.07067
1.24929
0.852963
0.713126
411.371
388.556
362.608
334.031
303.619
272.159
240.406
209.069
178.795
150.152
123.625
99.5999
78.3547
60.0498
44.7192
32.2709
22.4979
15.103
9.73214
6.01002
3.57123
2.08148
1.2531
0.854118
0.71357
411.371
388.556
362.608
334.031
303.619
272.159
240.406
209.069
178.795
150.152
123.625
99.5999
78.3547
60.0498
44.7192
32.2709
22.4979
15.103
9.73214
6.01002
3.57123
2.08148
1.2531
0.854118
0.71357
405.956
383.393
357.741
329.504
299.467
268.406
237.066
206.146
176.282
148.036
121.884
98.2034
77.2675
59.2313
44.1261
31.8592
22.2258
14.9331
9.6329
5.95671
3.54549
2.07067
1.24928
0.85296
0.713125
412.627
389.757
363.746
335.093
304.596
273.045
241.197
209.764
179.394
150.659
124.044
99.9367
78.6179
60.2485
44.8636
32.3713
22.5644
15.1446
9.75635
6.02297
3.57741
2.08401
1.25394
0.854332
0.713646
406.903
384.298
358.591
330.293
300.189
269.057
237.643
206.65
176.715
148.4
122.182
98.4422
77.4531
59.3709
44.2272
31.9294
22.2723
14.9623
9.6501
5.96613
3.55022
2.07281
1.25017
0.853303
0.713257
411.371
388.556
362.608
334.031
303.619
272.159
240.406
209.069
178.795
150.152
123.625
99.5999
78.3547
60.0498
44.7192
32.2709
22.4979
15.103
9.73214
6.01002
3.57123
2.08148
1.2531
0.854118
0.71357
405.956
383.393
357.74
329.504
299.467
268.406
237.065
206.146
176.282
148.036
121.884
98.2033
77.2674
59.2313
44.1261
31.8592
22.2258
14.9331
9.6329
5.95672
3.5455
2.07068
1.24929
0.852966
0.713129
405.956
383.393
357.741
329.504
299.467
268.406
237.066
206.146
176.282
148.036
121.884
98.2034
77.2675
59.2313
44.1261
31.8592
22.2258
14.9331
9.63289
5.95671
3.54549
2.07067
1.24928
0.85296
0.713125
411.371
388.556
362.609
334.031
303.619
272.159
240.406
209.069
178.795
150.152
123.625
99.5999
78.3547
60.0498
44.7192
32.2709
22.4979
15.103
9.73213
6.01002
3.57123
2.08148
1.2531
0.854116
0.713569
)
;

boundaryField
{
    outletCentralUnloaded
    {
        type            zeroGradient;
    }
    inletCentralUnloaded
    {
        type            zeroGradient;
    }
    outletFuelElement
    {
        type            zeroGradient;
    }
    inletFuelElement
    {
        type            zeroGradient;
    }
    defaultFaces
    {
        type            zeroGradient;
    }
    baffle_master
    {
        type            zeroGradient;
    }
    baffle_slave
    {
        type            zeroGradient;
    }
}


// ************************************************************************* //
