/*--------------------------------*- C++ -*----------------------------------*\
| =========                 |                                                 |
| \\      /  F ield         | OpenFOAM: The Open Source CFD Toolbox           |
|  \\    /   O peration     | Version:  2212                                  |
|   \\  /    A nd           | Website:  www.openfoam.com                      |
|    \\/     M anipulation  |                                                 |
\*---------------------------------------------------------------------------*/
FoamFile
{
    version     2.0;
    format      ascii;
    arch        "LSB;label=32;scalar=64";
    class       volScalarField;
    location    "74/fluidRegion";
    object      T.fuelAvForNeutronics;
}
// * * * * * * * * * * * * * * * * * * * * * * * * * * * * * * * * * * * * * //

dimensions      [0 0 0 1 0 0 0];

internalField   nonuniform List<scalar> 
350
(
0
0
0
0
0
0
0
0
0
0
0
0
0
0
0
0
0
0
0
0
0
0
0
0
0
0
0
0
0
0
0
0
0
0
0
0
0
0
0
0
0
0
0
0
0
0
0
0
0
0
2223.17
3010.21
3766.54
4480.62
5141.53
5739.08
6264.08
6708.42
7065.22
7328.94
7495.5
7562.31
7528.37
7394.27
7162.19
6835.83
6420.25
5921.59
5346.6
4702.11
3993.83
3225.12
2395.61
1504.29
564.356
2255.95
3052.18
3817.27
4539.56
5207.97
5812.23
6343.02
6792.16
7152.67
7418.98
7586.95
7653.97
7619.03
7482.73
7247.28
6916.43
6495.35
5990.28
5408.1
4755.78
4039.11
3261.5
2422.45
1520.81
569.903
2217.86
3003.45
3758.41
4471.21
5130.93
5727.44
6251.53
6695.12
7051.34
7314.67
7481.01
7547.8
7514.02
7380.28
7148.74
6823.09
6408.38
5910.73
5336.89
4693.64
3986.69
3219.4
2391.4
1501.7
563.481
2248.55
3042.65
3805.71
4526.1
5192.76
5795.47
6324.92
6772.93
7132.58
7398.29
7565.92
7632.89
7598.17
7462.37
7227.68
6897.87
6478.05
5974.45
5393.94
4743.42
4028.68
3253.11
2416.26
1517
568.625
2248.55
3042.65
3805.71
4526.1
5192.76
5795.47
6324.92
6772.93
7132.58
7398.29
7565.92
7632.89
7598.17
7462.37
7227.68
6897.87
6478.05
5974.45
5393.94
4743.42
4028.68
3253.11
2416.26
1517
568.625
2217.86
3003.45
3758.41
4471.21
5130.93
5727.44
6251.54
6695.13
7051.35
7314.67
7481.01
7547.8
7514.03
7380.28
7148.74
6823.09
6408.38
5910.74
5336.89
4693.64
3986.69
3219.4
2391.4
1501.71
563.481
2255.95
3052.18
3817.27
4539.56
5207.97
5812.23
6343.02
6792.16
7152.67
7418.98
7586.95
7653.97
7619.03
7482.73
7247.28
6916.43
6495.35
5990.28
5408.1
4755.78
4039.11
3261.5
2422.45
1520.81
569.903
2223.17
3010.21
3766.54
4480.63
5141.53
5739.08
6264.08
6708.42
7065.22
7328.94
7495.5
7562.31
7528.37
7394.27
7162.19
6835.83
6420.25
5921.59
5346.6
4702.11
3993.83
3225.12
2395.61
1504.29
564.356
2248.55
3042.65
3805.71
4526.1
5192.76
5795.47
6324.92
6772.93
7132.58
7398.29
7565.92
7632.89
7598.17
7462.37
7227.68
6897.87
6478.05
5974.45
5393.94
4743.42
4028.68
3253.11
2416.26
1517
568.625
2217.86
3003.45
3758.41
4471.21
5130.93
5727.44
6251.53
6695.12
7051.34
7314.67
7481.01
7547.8
7514.02
7380.28
7148.73
6823.09
6408.38
5910.73
5336.89
4693.64
3986.69
3219.4
2391.4
1501.7
563.481
2217.86
3003.45
3758.41
4471.21
5130.93
5727.44
6251.54
6695.13
7051.34
7314.67
7481.01
7547.8
7514.03
7380.28
7148.74
6823.09
6408.38
5910.74
5336.89
4693.64
3986.69
3219.4
2391.4
1501.71
563.481
2248.55
3042.65
3805.71
4526.1
5192.76
5795.47
6324.92
6772.93
7132.58
7398.29
7565.92
7632.88
7598.17
7462.37
7227.68
6897.87
6478.05
5974.45
5393.94
4743.42
4028.68
3253.11
2416.26
1517
568.625
)
;

boundaryField
{
    outletCentralUnloaded
    {
        type            zeroGradient;
    }
    inletCentralUnloaded
    {
        type            zeroGradient;
    }
    outletFuelElement
    {
        type            zeroGradient;
    }
    inletFuelElement
    {
        type            zeroGradient;
    }
    defaultFaces
    {
        type            zeroGradient;
    }
    baffle_master
    {
        type            zeroGradient;
    }
    baffle_slave
    {
        type            zeroGradient;
    }
}


// ************************************************************************* //
