/*--------------------------------*- C++ -*----------------------------------*\
| =========                 |                                                 |
| \\      /  F ield         | OpenFOAM: The Open Source CFD Toolbox           |
|  \\    /   O peration     | Version:  2212                                  |
|   \\  /    A nd           | Website:  www.openfoam.com                      |
|    \\/     M anipulation  |                                                 |
\*---------------------------------------------------------------------------*/
FoamFile
{
    version     2.0;
    format      ascii;
    arch        "LSB;label=32;scalar=64";
    class       volScalarField;
    location    "74/fluidRegion";
    object      Tfi.nuclearFuelPin;
}
// * * * * * * * * * * * * * * * * * * * * * * * * * * * * * * * * * * * * * //

dimensions      [0 0 0 1 0 0 0];

internalField   nonuniform List<scalar> 
350
(
0
0
0
0
0
0
0
0
0
0
0
0
0
0
0
0
0
0
0
0
0
0
0
0
0
0
0
0
0
0
0
0
0
0
0
0
0
0
0
0
0
0
0
0
0
0
0
0
0
0
2425.36
3613.77
4761.95
5852.2
6867.62
7792.48
8612.39
9314.61
9888.18
10324.2
10615.7
10758.4
10749.8
10590.3
10282.4
9831.07
9243.25
8527.81
7694.94
6755.56
5719.98
4596.77
3391.09
2107.92
766.641
2460.45
3662.65
4824.09
5926.84
6953.83
7889.14
8718.23
9428.2
10008
10448.5
10742.9
10886.6
10877.4
10715.4
10403.3
9945.99
9350.68
8626.36
7783.35
6832.75
5785.04
4648.86
3429.34
2131.35
774.505
2419.68
3605.92
4752.01
5840.28
6853.88
7777.09
8595.56
9296.56
9869.16
10304.4
10595.6
10738
10729.6
10570.5
10263.3
9812.87
9226.23
8512.21
7680.95
6743.34
5709.69
4588.55
3385.07
2104.23
765.398
2452.52
3651.54
4809.91
5909.76
6934.08
7866.97
8693.93
9402.1
9980.44
10419.9
10713.7
10857.1
10848
10686.6
10375.5
9919.52
9325.94
8603.66
7762.99
6814.97
5770.05
4636.86
3420.53
2125.95
772.693
2452.52
3651.54
4809.91
5909.76
6934.08
7866.97
8693.93
9402.1
9980.44
10419.9
10713.7
10857.1
10848
10686.6
10375.5
9919.52
9325.94
8603.66
7762.99
6814.97
5770.05
4636.86
3420.53
2125.95
772.694
2419.68
3605.92
4752.01
5840.28
6853.88
7777.09
8595.56
9296.56
9869.16
10304.4
10595.6
10738
10729.6
10570.5
10263.3
9812.87
9226.23
8512.21
7680.95
6743.34
5709.69
4588.55
3385.07
2104.23
765.398
2460.45
3662.65
4824.09
5926.84
6953.83
7889.14
8718.23
9428.19
10008
10448.5
10742.9
10886.6
10877.4
10715.4
10403.3
9945.99
9350.68
8626.36
7783.35
6832.75
5785.04
4648.86
3429.34
2131.35
774.505
2425.36
3613.77
4761.96
5852.2
6867.62
7792.48
8612.39
9314.61
9888.18
10324.2
10615.7
10758.4
10749.8
10590.3
10282.4
9831.07
9243.25
8527.81
7694.94
6755.56
5719.98
4596.77
3391.09
2107.92
766.641
2452.52
3651.54
4809.91
5909.76
6934.08
7866.97
8693.93
9402.1
9980.44
10419.9
10713.7
10857.1
10848
10686.6
10375.5
9919.52
9325.94
8603.66
7762.99
6814.97
5770.05
4636.86
3420.53
2125.95
772.694
2419.68
3605.92
4752.01
5840.28
6853.88
7777.09
8595.56
9296.56
9869.16
10304.4
10595.6
10738
10729.6
10570.5
10263.3
9812.87
9226.23
8512.21
7680.95
6743.34
5709.69
4588.55
3385.07
2104.23
765.398
2419.68
3605.92
4752.01
5840.28
6853.88
7777.09
8595.56
9296.56
9869.16
10304.4
10595.6
10738
10729.6
10570.5
10263.3
9812.87
9226.23
8512.21
7680.95
6743.34
5709.69
4588.55
3385.07
2104.23
765.398
2452.52
3651.54
4809.91
5909.76
6934.08
7866.97
8693.93
9402.1
9980.44
10419.9
10713.7
10857.1
10848
10686.6
10375.5
9919.52
9325.94
8603.66
7762.99
6814.97
5770.05
4636.86
3420.53
2125.95
772.693
)
;

boundaryField
{
    outletCentralUnloaded
    {
        type            zeroGradient;
    }
    inletCentralUnloaded
    {
        type            zeroGradient;
    }
    outletFuelElement
    {
        type            zeroGradient;
    }
    inletFuelElement
    {
        type            zeroGradient;
    }
    defaultFaces
    {
        type            zeroGradient;
    }
    baffle_master
    {
        type            zeroGradient;
    }
    baffle_slave
    {
        type            zeroGradient;
    }
}


// ************************************************************************* //
