/*--------------------------------*- C++ -*----------------------------------*\
| =========                 |                                                 |
| \\      /  F ield         | OpenFOAM: The Open Source CFD Toolbox           |
|  \\    /   O peration     | Version:  2212                                  |
|   \\  /    A nd           | Website:  www.openfoam.com                      |
|    \\/     M anipulation  |                                                 |
\*---------------------------------------------------------------------------*/
FoamFile
{
    version     2.0;
    format      ascii;
    arch        "LSB;label=32;scalar=64";
    class       volScalarField;
    location    "74/fluidRegion";
    object      Tfo.nuclearFuelPin;
}
// * * * * * * * * * * * * * * * * * * * * * * * * * * * * * * * * * * * * * //

dimensions      [0 0 0 1 0 0 0];

internalField   nonuniform List<scalar> 
350
(
0
0
0
0
0
0
0
0
0
0
0
0
0
0
0
0
0
0
0
0
0
0
0
0
0
0
0
0
0
0
0
0
0
0
0
0
0
0
0
0
0
0
0
0
0
0
0
0
0
0
2022.76
2411.98
2779.92
3121.18
3430.7
3703.85
3936.55
4125.29
4267.23
4360.22
4402.87
4394.54
4335.42
4226.49
4069.55
3867.09
3622.23
3338.42
3019.04
2666.84
2282.95
1865.61
1408.92
905.998
363.861
2053.24
2447.09
2819.35
3164.54
3477.54
3753.68
3988.83
4179.43
4322.63
4416.26
4458.89
4449.92
4389.51
4278.67
4119.2
3913.69
3665.28
3377.52
3053.88
2697.19
2308.63
1886.41
1424.47
915.665
367.112
2017.82
2406.31
2773.59
3114.24
3423.22
3695.92
3928.24
4116.7
4258.46
4351.36
4394.02
4385.8
4326.89
4218.28
4061.73
3859.76
3615.47
3332.28
3013.57
2662.07
2278.93
1862.36
1406.52
904.507
363.352
2046.38
2439.15
2810.39
3154.66
3466.85
3742.29
3976.85
4167.02
4309.92
4403.39
4446.02
4437.18
4377.06
4266.65
4107.77
3902.95
3655.36
3368.51
3045.85
2690.19
2302.71
1881.61
1420.88
913.433
366.362
2046.38
2439.15
2810.39
3154.66
3466.85
3742.29
3976.85
4167.02
4309.92
4403.39
4446.02
4437.18
4377.06
4266.65
4107.77
3902.95
3655.36
3368.51
3045.84
2690.19
2302.71
1881.61
1420.88
913.433
366.362
2017.82
2406.31
2773.59
3114.24
3423.22
3695.92
3928.25
4116.71
4258.46
4351.36
4394.02
4385.8
4326.9
4218.28
4061.73
3859.76
3615.47
3332.28
3013.57
2662.08
2278.93
1862.37
1406.52
904.507
363.353
2053.24
2447.09
2819.35
3164.54
3477.54
3753.68
3988.83
4179.43
4322.63
4416.26
4458.89
4449.92
4389.51
4278.66
4119.2
3913.69
3665.28
3377.52
3053.88
2697.19
2308.63
1886.41
1424.47
915.665
367.112
2022.76
2411.97
2779.92
3121.18
3430.7
3703.85
3936.55
4125.29
4267.23
4360.22
4402.87
4394.54
4335.42
4226.49
4069.54
3867.09
3622.23
3338.42
3019.04
2666.84
2282.94
1865.61
1408.92
905.997
363.861
2046.38
2439.15
2810.39
3154.67
3466.85
3742.29
3976.85
4167.02
4309.92
4403.39
4446.02
4437.18
4377.06
4266.65
4107.77
3902.95
3655.36
3368.51
3045.85
2690.19
2302.71
1881.61
1420.88
913.433
366.362
2017.82
2406.31
2773.59
3114.24
3423.22
3695.92
3928.24
4116.7
4258.46
4351.36
4394.02
4385.8
4326.89
4218.28
4061.73
3859.76
3615.47
3332.28
3013.57
2662.07
2278.93
1862.37
1406.52
904.507
363.352
2017.82
2406.31
2773.59
3114.24
3423.22
3695.92
3928.24
4116.7
4258.46
4351.36
4394.02
4385.8
4326.9
4218.28
4061.73
3859.76
3615.47
3332.28
3013.57
2662.08
2278.93
1862.37
1406.52
904.507
363.353
2046.38
2439.14
2810.39
3154.66
3466.85
3742.29
3976.85
4167.02
4309.92
4403.39
4446.02
4437.18
4377.06
4266.65
4107.77
3902.95
3655.36
3368.51
3045.84
2690.19
2302.71
1881.61
1420.88
913.433
366.362
)
;

boundaryField
{
    outletCentralUnloaded
    {
        type            zeroGradient;
    }
    inletCentralUnloaded
    {
        type            zeroGradient;
    }
    outletFuelElement
    {
        type            zeroGradient;
    }
    inletFuelElement
    {
        type            zeroGradient;
    }
    defaultFaces
    {
        type            zeroGradient;
    }
    baffle_master
    {
        type            zeroGradient;
    }
    baffle_slave
    {
        type            zeroGradient;
    }
}


// ************************************************************************* //
