/*--------------------------------*- C++ -*----------------------------------*\
| =========                 |                                                 |
| \\      /  F ield         | OpenFOAM: The Open Source CFD Toolbox           |
|  \\    /   O peration     | Version:  2212                                  |
|   \\  /    A nd           | Website:  www.openfoam.com                      |
|    \\/     M anipulation  |                                                 |
\*---------------------------------------------------------------------------*/
FoamFile
{
    version     2.0;
    format      ascii;
    arch        "LSB;label=32;scalar=64";
    class       volScalarField;
    location    "68/neutroRegion";
    object      TClad;
}
// * * * * * * * * * * * * * * * * * * * * * * * * * * * * * * * * * * * * * //

dimensions      [0 0 0 1 0 0 0];

internalField   nonuniform List<scalar> 
350
(
0
0
0
0
0
0
0
0
0
0
0
0
0
0
0
0
0
0
0
0
0
0
0
0
0
0
0
0
0
0
0
0
0
0
0
0
0
0
0
0
0
0
0
0
0
0
0
0
0
0
1845.81
1883.89
1909.03
1921.23
1920.61
1907.44
1882.14
1845.29
1797.59
1739.89
1673.17
1598.52
1517.18
1430.48
1339.85
1246.75
1152.59
1058.41
964.632
870.419
772.847
665.632
538.037
377.934
186.909
1874.26
1912.96
1938.49
1950.85
1950.15
1936.69
1910.88
1873.31
1824.7
1765.91
1697.93
1621.87
1538.98
1450.62
1358.24
1263.33
1167.35
1071.4
975.94
880.197
781.234
672.689
543.605
381.553
188.132
1841.19
1879.19
1904.29
1916.48
1915.89
1902.78
1877.58
1840.86
1793.32
1735.81
1669.3
1594.89
1513.8
1427.36
1337.01
1244.2
1150.33
1056.43
962.909
868.936
771.582
664.579
537.218
377.406
186.722
1867.86
1906.4
1931.83
1944.14
1943.44
1930.03
1904.33
1866.91
1818.5
1759.95
1692.25
1616.51
1533.97
1445.98
1353.99
1259.51
1163.94
1068.4
973.325
877.935
779.294
671.055
542.314
380.713
187.849
1867.86
1906.4
1931.83
1944.14
1943.44
1930.03
1904.33
1866.91
1818.5
1759.95
1692.25
1616.51
1533.97
1445.98
1353.99
1259.51
1163.94
1068.4
973.325
877.935
779.294
671.055
542.315
380.713
187.849
1841.19
1879.19
1904.29
1916.49
1915.89
1902.78
1877.58
1840.86
1793.32
1735.81
1669.3
1594.89
1513.8
1427.36
1337.01
1244.21
1150.33
1056.43
962.91
868.936
771.583
664.58
537.219
377.407
186.722
1874.26
1912.96
1938.49
1950.85
1950.15
1936.69
1910.88
1873.31
1824.7
1765.91
1697.93
1621.87
1538.98
1450.62
1358.24
1263.33
1167.35
1071.4
975.94
880.197
781.234
672.689
543.605
381.553
188.132
1845.81
1883.89
1909.03
1921.23
1920.61
1907.44
1882.14
1845.29
1797.59
1739.89
1673.17
1598.52
1517.18
1430.48
1339.84
1246.75
1152.59
1058.41
964.632
870.419
772.847
665.632
538.037
377.934
186.909
1867.86
1906.4
1931.83
1944.14
1943.44
1930.03
1904.33
1866.91
1818.5
1759.95
1692.25
1616.51
1533.97
1445.98
1353.99
1259.51
1163.94
1068.4
973.325
877.935
779.294
671.055
542.315
380.713
187.849
1841.19
1879.19
1904.29
1916.48
1915.89
1902.78
1877.58
1840.86
1793.32
1735.81
1669.3
1594.89
1513.8
1427.36
1337.01
1244.2
1150.33
1056.43
962.909
868.936
771.582
664.58
537.218
377.406
186.722
1841.19
1879.19
1904.29
1916.49
1915.89
1902.78
1877.58
1840.86
1793.32
1735.81
1669.3
1594.89
1513.8
1427.36
1337.01
1244.21
1150.33
1056.43
962.91
868.936
771.583
664.58
537.219
377.407
186.722
1867.86
1906.4
1931.83
1944.14
1943.44
1930.03
1904.33
1866.91
1818.5
1759.95
1692.25
1616.51
1533.97
1445.98
1353.99
1259.51
1163.94
1068.4
973.325
877.935
779.294
671.055
542.315
380.713
187.849
)
;

boundaryField
{
    outletCentralUnloaded
    {
        type            zeroGradient;
    }
    inletCentralUnloaded
    {
        type            zeroGradient;
    }
    outletFuelElement
    {
        type            zeroGradient;
    }
    inletFuelElement
    {
        type            zeroGradient;
    }
    defaultFaces
    {
        type            zeroGradient;
    }
}


// ************************************************************************* //
