/*--------------------------------*- C++ -*----------------------------------*\
| =========                 |                                                 |
| \\      /  F ield         | OpenFOAM: The Open Source CFD Toolbox           |
|  \\    /   O peration     | Version:  2212                                  |
|   \\  /    A nd           | Website:  www.openfoam.com                      |
|    \\/     M anipulation  |                                                 |
\*---------------------------------------------------------------------------*/
FoamFile
{
    version     2.0;
    format      ascii;
    arch        "LSB;label=32;scalar=64";
    class       volTensorField;
    location    "40/fluidRegion";
    object      KdTotU;
}
// * * * * * * * * * * * * * * * * * * * * * * * * * * * * * * * * * * * * * //

dimensions      [1 -2 -2 0 0 0 0];

internalField   nonuniform List<tensor> 
17
(
(5252.12 0 0 0 5252.12 0 0 0 5252.12)
(5252.12 0 0 0 5252.12 0 0 0 5252.12)
(5241.69 0 0 0 5241.69 0 0 0 5241.69)
(5279.74 0 0 0 5279.74 0 0 0 5279.74)
(5318.44 0 0 0 5318.44 0 0 0 5318.44)
(7097.83 0 0 0 7097.83 0 0 0 7097.83)
(11414.6 0 0 0 11414.6 0 0 0 11414.6)
(17479.8 0 0 0 17479.8 0 0 0 17479.8)
(24787.2 0 0 0 24787.2 0 0 0 24787.2)
(33356 0 0 0 33356 0 0 0 33356)
(42862.5 0 0 0 42862.5 0 0 0 42862.5)
(52932.5 0 0 0 52932.5 0 0 0 52932.5)
(63271.8 0 0 0 63271.8 0 0 0 63271.8)
(73734.2 0 0 0 73734.2 0 0 0 73734.2)
(84206.8 0 0 0 84206.8 0 0 0 84206.8)
(94566.4 0 0 0 94566.4 0 0 0 94566.4)
(104888 0 0 0 104888 0 0 0 104888)
)
;

boundaryField
{
    inlet
    {
        type            zeroGradient;
    }
    outlet
    {
        type            zeroGradient;
    }
    fixedWalls
    {
        type            zeroGradient;
    }
}


// ************************************************************************* //
