/*--------------------------------*- C++ -*----------------------------------*\
| =========                 |                                                 |
| \\      /  F ield         | OpenFOAM: The Open Source CFD Toolbox           |
|  \\    /   O peration     | Version:  2212                                  |
|   \\  /    A nd           | Website:  www.openfoam.com                      |
|    \\/     M anipulation  |                                                 |
\*---------------------------------------------------------------------------*/
FoamFile
{
    version     2.0;
    format      ascii;
    arch        "LSB;label=32;scalar=64";
    class       volScalarField;
    location    "40/fluidRegion";
    object      p;
}
// * * * * * * * * * * * * * * * * * * * * * * * * * * * * * * * * * * * * * //

dimensions      [1 -1 -2 0 0 0 0];

internalField   nonuniform List<scalar> 
17
(
1.49042e+07
1.49033e+07
1.49019e+07
1.48999e+07
1.48978e+07
1.48956e+07
1.48924e+07
1.48878e+07
1.48815e+07
1.48731e+07
1.48625e+07
1.48495e+07
1.48341e+07
1.48161e+07
1.47956e+07
1.47725e+07
1.4747e+07
)
;

boundaryField
{
    inlet
    {
        type            calculated;
        value           uniform 1.49047e+07;
    }
    outlet
    {
        type            calculated;
        value           uniform 1.47333e+07;
    }
    fixedWalls
    {
        type            calculated;
        value           nonuniform List<scalar> 
68
(
1.49042e+07
1.49033e+07
1.49019e+07
1.48999e+07
1.48978e+07
1.48956e+07
1.48924e+07
1.48878e+07
1.48815e+07
1.48731e+07
1.48625e+07
1.48495e+07
1.48341e+07
1.48161e+07
1.47956e+07
1.47725e+07
1.4747e+07
1.49042e+07
1.49033e+07
1.49019e+07
1.48999e+07
1.48978e+07
1.48956e+07
1.48924e+07
1.48878e+07
1.48815e+07
1.48731e+07
1.48625e+07
1.48495e+07
1.48341e+07
1.48161e+07
1.47956e+07
1.47725e+07
1.4747e+07
1.49042e+07
1.49033e+07
1.49019e+07
1.48999e+07
1.48978e+07
1.48956e+07
1.48924e+07
1.48878e+07
1.48815e+07
1.48731e+07
1.48625e+07
1.48495e+07
1.48341e+07
1.48161e+07
1.47956e+07
1.47725e+07
1.4747e+07
1.49042e+07
1.49033e+07
1.49019e+07
1.48999e+07
1.48978e+07
1.48956e+07
1.48924e+07
1.48878e+07
1.48815e+07
1.48731e+07
1.48625e+07
1.48495e+07
1.48341e+07
1.48161e+07
1.47956e+07
1.47725e+07
1.4747e+07
)
;
    }
}


// ************************************************************************* //
