/*--------------------------------*- C++ -*----------------------------------*\
| =========                 |                                                 |
| \\      /  F ield         | OpenFOAM: The Open Source CFD Toolbox           |
|  \\    /   O peration     | Version:  2212                                  |
|   \\  /    A nd           | Website:  www.openfoam.com                      |
|    \\/     M anipulation  |                                                 |
\*---------------------------------------------------------------------------*/
FoamFile
{
    version     2.0;
    format      ascii;
    arch        "LSB;label=32;scalar=64";
    class       volScalarField;
    location    "40/fluidRegion";
    object      p_rgh;
}
// * * * * * * * * * * * * * * * * * * * * * * * * * * * * * * * * * * * * * //

dimensions      [1 -1 -2 0 0 0 0];

internalField   nonuniform List<scalar> 
17
(
1.49044e+07
1.49038e+07
1.49029e+07
1.49015e+07
1.49e+07
1.48983e+07
1.48957e+07
1.48915e+07
1.48855e+07
1.48775e+07
1.48671e+07
1.48544e+07
1.48392e+07
1.48214e+07
1.48011e+07
1.47783e+07
1.4753e+07
)
;

boundaryField
{
    inlet
    {
        type            fixedFluxPressure;
        gradient        uniform 12087.9;
        value           uniform 1.49047e+07;
    }
    outlet
    {
        type            fixedValue;
        value           uniform 1.47394e+07;
    }
    fixedWalls
    {
        type            fixedFluxPressure;
        gradient        uniform 0;
        value           nonuniform List<scalar> 
68
(
1.49044e+07
1.49038e+07
1.49029e+07
1.49015e+07
1.49e+07
1.48983e+07
1.48957e+07
1.48915e+07
1.48855e+07
1.48775e+07
1.48671e+07
1.48544e+07
1.48392e+07
1.48214e+07
1.48011e+07
1.47783e+07
1.4753e+07
1.49044e+07
1.49038e+07
1.49029e+07
1.49015e+07
1.49e+07
1.48983e+07
1.48957e+07
1.48915e+07
1.48855e+07
1.48775e+07
1.48671e+07
1.48544e+07
1.48392e+07
1.48214e+07
1.48011e+07
1.47783e+07
1.4753e+07
1.49044e+07
1.49038e+07
1.49029e+07
1.49015e+07
1.49e+07
1.48983e+07
1.48957e+07
1.48915e+07
1.48855e+07
1.48775e+07
1.48671e+07
1.48544e+07
1.48392e+07
1.48214e+07
1.48011e+07
1.47783e+07
1.4753e+07
1.49044e+07
1.49038e+07
1.49029e+07
1.49015e+07
1.49e+07
1.48983e+07
1.48957e+07
1.48915e+07
1.48855e+07
1.48775e+07
1.48671e+07
1.48544e+07
1.48392e+07
1.48214e+07
1.48011e+07
1.47783e+07
1.4753e+07
)
;
    }
}


// ************************************************************************* //
