/*--------------------------------*- C++ -*----------------------------------*\
| =========                 |                                                 |
| \\      /  F ield         | OpenFOAM: The Open Source CFD Toolbox           |
|  \\    /   O peration     | Version:  2212                                  |
|   \\  /    A nd           | Website:  www.openfoam.com                      |
|    \\/     M anipulation  |                                                 |
\*---------------------------------------------------------------------------*/
FoamFile
{
    version     2.0;
    format      ascii;
    arch        "LSB;label=32;scalar=64";
    class       volScalarField;
    location    "66/neutroRegion";
    object      TFuel;
}
// * * * * * * * * * * * * * * * * * * * * * * * * * * * * * * * * * * * * * //

dimensions      [0 0 0 1 0 0 0];

internalField   nonuniform List<scalar> 
350
(
0
0
0
0
0
0
0
0
0
0
0
0
0
0
0
0
0
0
0
0
0
0
0
0
0
0
0
0
0
0
0
0
0
0
0
0
0
0
0
0
0
0
0
0
0
0
0
0
0
0
2222.7
3009.75
3766.09
4480.2
5141.11
5738.68
6263.7
6708.05
7064.86
7328.6
7495.18
7562.01
7528.09
7394.01
7161.95
6835.61
6420.05
5921.41
5346.44
4702
3993.68
3224.95
2395.52
1504.31
564.411
2255.47
3051.71
3816.82
4539.12
5207.54
5811.81
6342.62
6791.77
7152.31
7418.63
7586.62
7653.66
7618.74
7482.46
7247.03
6916.21
6495.14
5990.1
5407.94
4755.67
4038.96
3261.33
2422.37
1520.83
569.958
2217.4
3003
3757.97
4470.78
5130.52
5727.04
6251.15
6694.75
7050.99
7314.33
7480.69
7547.49
7513.74
7380.01
7148.49
6822.86
6408.18
5910.56
5336.73
4693.53
3986.54
3219.23
2391.32
1501.73
563.537
2248.08
3042.19
3805.26
4525.66
5192.34
5795.06
6324.52
6772.55
7132.22
7397.94
7565.59
7632.57
7597.88
7462.1
7227.44
6897.64
6477.85
5974.27
5393.77
4743.3
4028.52
3252.94
2416.18
1517.02
568.68
2248.08
3042.19
3805.26
4525.66
5192.34
5795.06
6324.52
6772.55
7132.22
7397.94
7565.59
7632.57
7597.88
7462.1
7227.44
6897.64
6477.85
5974.27
5393.77
4743.3
4028.52
3252.95
2416.18
1517.02
568.68
2217.4
3003
3757.97
4470.78
5130.52
5727.04
6251.15
6694.75
7050.99
7314.33
7480.69
7547.49
7513.74
7380.02
7148.49
6822.87
6408.18
5910.56
5336.73
4693.53
3986.54
3219.23
2391.32
1501.73
563.537
2255.47
3051.71
3816.82
4539.12
5207.54
5811.81
6342.62
6791.77
7152.31
7418.63
7586.62
7653.66
7618.74
7482.46
7247.03
6916.21
6495.15
5990.09
5407.94
4755.67
4038.96
3261.33
2422.37
1520.83
569.958
2222.7
3009.75
3766.1
4480.2
5141.11
5738.68
6263.7
6708.05
7064.86
7328.6
7495.18
7562.01
7528.09
7394.01
7161.95
6835.61
6420.05
5921.41
5346.44
4702
3993.68
3224.96
2395.52
1504.31
564.411
2248.08
3042.19
3805.26
4525.66
5192.34
5795.06
6324.52
6772.55
7132.22
7397.94
7565.59
7632.57
7597.88
7462.1
7227.44
6897.64
6477.85
5974.27
5393.77
4743.3
4028.52
3252.95
2416.18
1517.02
568.68
2217.4
3003
3757.97
4470.78
5130.52
5727.04
6251.15
6694.75
7050.99
7314.33
7480.69
7547.49
7513.74
7380.01
7148.49
6822.87
6408.18
5910.56
5336.73
4693.53
3986.54
3219.23
2391.32
1501.73
563.537
2217.4
3003
3757.97
4470.78
5130.52
5727.04
6251.15
6694.75
7050.99
7314.33
7480.69
7547.49
7513.74
7380.02
7148.49
6822.87
6408.18
5910.56
5336.73
4693.53
3986.54
3219.23
2391.32
1501.73
563.537
2248.08
3042.19
3805.26
4525.66
5192.34
5795.06
6324.52
6772.55
7132.22
7397.94
7565.59
7632.57
7597.88
7462.1
7227.43
6897.64
6477.85
5974.27
5393.77
4743.3
4028.52
3252.94
2416.18
1517.02
568.68
)
;

boundaryField
{
    outletCentralUnloaded
    {
        type            zeroGradient;
    }
    inletCentralUnloaded
    {
        type            zeroGradient;
    }
    outletFuelElement
    {
        type            zeroGradient;
    }
    inletFuelElement
    {
        type            zeroGradient;
    }
    defaultFaces
    {
        type            zeroGradient;
    }
}


// ************************************************************************* //
