/*--------------------------------*- C++ -*----------------------------------*\
| =========                 |                                                 |
| \\      /  F ield         | OpenFOAM: The Open Source CFD Toolbox           |
|  \\    /   O peration     | Version:  2212                                  |
|   \\  /    A nd           | Website:  www.openfoam.com                      |
|    \\/     M anipulation  |                                                 |
\*---------------------------------------------------------------------------*/
FoamFile
{
    version     2.0;
    format      ascii;
    arch        "LSB;label=32;scalar=64";
    class       volScalarField;
    location    "43/fluidRegion";
    object      k;
}
// * * * * * * * * * * * * * * * * * * * * * * * * * * * * * * * * * * * * * //

dimensions      [0 2 -2 0 0 0 0];

internalField   nonuniform List<scalar> 
350
(
0.421081
0.421014
0.420946
0.420879
0.420811
0.420743
0.420675
0.420607
0.42054
0.420474
0.420408
0.420344
0.420283
0.420227
0.420179
0.420145
0.420131
0.420149
0.420214
0.420352
0.4206
0.421014
0.421681
0.422737
0.424385
0.421081
0.421014
0.420946
0.420879
0.420811
0.420743
0.420675
0.420607
0.42054
0.420474
0.420408
0.420344
0.420283
0.420227
0.420179
0.420145
0.420131
0.420149
0.420214
0.420352
0.4206
0.421014
0.421681
0.422737
0.424385
404.513
382.155
356.697
328.635
298.753
267.826
236.601
205.778
175.996
147.817
121.718
98.0797
77.1769
59.1663
44.0803
31.8278
22.2048
14.9196
9.62472
5.95217
3.54334
2.06998
1.24936
0.853297
0.713457
410.192
387.573
361.815
333.402
303.132
271.789
240.133
208.875
178.661
150.064
123.569
99.5664
78.3357
60.0394
44.7135
32.2675
22.4955
15.101
9.73045
6.00873
3.57041
2.08113
1.25311
0.854321
0.713844
403.572
381.256
355.852
327.851
298.035
267.178
236.026
205.277
175.566
147.455
121.421
97.842
76.9922
59.0273
43.9797
31.7578
22.1585
14.8905
9.60758
5.94279
3.53864
2.06785
1.24848
0.852956
0.713324
408.945
386.381
360.686
332.348
302.161
270.908
239.347
208.183
178.064
149.56
123.153
99.2313
78.0739
59.8417
44.5699
32.1675
22.4293
15.0597
9.70635
5.99584
3.56426
2.07861
1.25228
0.854108
0.713768
408.945
386.381
360.686
332.348
302.161
270.908
239.347
208.183
178.064
149.56
123.153
99.2313
78.0739
59.8417
44.5699
32.1675
22.4293
15.0597
9.70636
5.99585
3.56426
2.07861
1.25228
0.854108
0.713768
403.573
381.257
355.852
327.851
298.035
267.179
236.026
205.277
175.566
147.455
121.421
97.8421
76.9923
59.0274
43.9797
31.7579
22.1586
14.8906
9.6076
5.9428
3.53864
2.06785
1.24848
0.852955
0.713325
410.192
387.573
361.815
333.402
303.132
271.789
240.133
208.875
178.661
150.064
123.569
99.5664
78.3357
60.0394
44.7135
32.2675
22.4955
15.101
9.73045
6.00873
3.57041
2.08113
1.25311
0.854321
0.713843
404.513
382.155
356.697
328.635
298.753
267.826
236.601
205.778
175.996
147.817
121.718
98.0797
77.177
59.1663
44.0803
31.8278
22.2049
14.9196
9.62473
5.95218
3.54335
2.06999
1.24936
0.853302
0.713461
408.945
386.381
360.686
332.348
302.161
270.908
239.347
208.183
178.064
149.56
123.153
99.2313
78.0739
59.8417
44.5699
32.1675
22.4293
15.0597
9.70636
5.99585
3.56426
2.07861
1.25228
0.85411
0.71377
403.572
381.256
355.852
327.851
298.035
267.178
236.026
205.277
175.566
147.455
121.421
97.842
76.9922
59.0273
43.9797
31.7578
22.1585
14.8905
9.60757
5.94278
3.53863
2.06784
1.24847
0.852948
0.713319
403.573
381.257
355.852
327.851
298.035
267.179
236.026
205.277
175.566
147.455
121.421
97.8422
76.9923
59.0274
43.9797
31.7579
22.1586
14.8906
9.6076
5.9428
3.53865
2.06785
1.24848
0.852954
0.713323
408.945
386.381
360.686
332.348
302.161
270.908
239.347
208.183
178.064
149.56
123.153
99.2314
78.0739
59.8417
44.5699
32.1675
22.4294
15.0597
9.70636
5.99585
3.56427
2.07862
1.25228
0.854115
0.713774
)
;

boundaryField
{
    outletCentralUnloaded
    {
        type            zeroGradient;
    }
    inletCentralUnloaded
    {
        type            zeroGradient;
    }
    outletFuelElement
    {
        type            zeroGradient;
    }
    inletFuelElement
    {
        type            zeroGradient;
    }
    defaultFaces
    {
        type            zeroGradient;
    }
    baffle_master
    {
        type            zeroGradient;
    }
    baffle_slave
    {
        type            zeroGradient;
    }
}


// ************************************************************************* //
