/*--------------------------------*- C++ -*----------------------------------*\
| =========                 |                                                 |
| \\      /  F ield         | OpenFOAM: The Open Source CFD Toolbox           |
|  \\    /   O peration     | Version:  2212                                  |
|   \\  /    A nd           | Website:  www.openfoam.com                      |
|    \\/     M anipulation  |                                                 |
\*---------------------------------------------------------------------------*/
FoamFile
{
    version     2.0;
    format      ascii;
    arch        "LSB;label=32;scalar=64";
    class       volTensorField;
    location    "43/fluidRegion";
    object      Kd;
}
// * * * * * * * * * * * * * * * * * * * * * * * * * * * * * * * * * * * * * //

dimensions      [1 -3 -1 0 0 0 0];

internalField   nonuniform List<tensor> 
350
(
(84.7403 0 0 0 84.7403 0 0 0 84.7403)
(84.7405 0 0 0 84.7405 0 0 0 84.7405)
(84.7408 0 0 0 84.7408 0 0 0 84.7408)
(84.741 0 0 0 84.741 0 0 0 84.741)
(84.7411 0 0 0 84.7411 0 0 0 84.7411)
(84.7412 0 0 0 84.7412 0 0 0 84.7412)
(84.7413 0 0 0 84.7413 0 0 0 84.7413)
(84.7416 0 0 0 84.7416 0 0 0 84.7416)
(84.7418 0 0 0 84.7418 0 0 0 84.7418)
(84.742 0 0 0 84.742 0 0 0 84.742)
(84.7419 0 0 0 84.7419 0 0 0 84.7419)
(84.7417 0 0 0 84.7417 0 0 0 84.7417)
(84.7413 0 0 0 84.7413 0 0 0 84.7413)
(84.7409 0 0 0 84.7409 0 0 0 84.7409)
(84.7406 0 0 0 84.7406 0 0 0 84.7406)
(84.7405 0 0 0 84.7405 0 0 0 84.7405)
(84.7404 0 0 0 84.7404 0 0 0 84.7404)
(84.7404 0 0 0 84.7404 0 0 0 84.7404)
(84.7405 0 0 0 84.7405 0 0 0 84.7405)
(84.7406 0 0 0 84.7406 0 0 0 84.7406)
(84.7408 0 0 0 84.7408 0 0 0 84.7408)
(84.7409 0 0 0 84.7409 0 0 0 84.7409)
(84.7411 0 0 0 84.7411 0 0 0 84.7411)
(84.7411 0 0 0 84.7411 0 0 0 84.7411)
(84.8734 0 0 0 84.8734 0 0 0 84.8734)
(84.7403 0 0 0 84.7403 0 0 0 84.7403)
(84.7405 0 0 0 84.7405 0 0 0 84.7405)
(84.7408 0 0 0 84.7408 0 0 0 84.7408)
(84.741 0 0 0 84.741 0 0 0 84.741)
(84.7411 0 0 0 84.7411 0 0 0 84.7411)
(84.7412 0 0 0 84.7412 0 0 0 84.7412)
(84.7413 0 0 0 84.7413 0 0 0 84.7413)
(84.7416 0 0 0 84.7416 0 0 0 84.7416)
(84.7418 0 0 0 84.7418 0 0 0 84.7418)
(84.742 0 0 0 84.742 0 0 0 84.742)
(84.7419 0 0 0 84.7419 0 0 0 84.7419)
(84.7417 0 0 0 84.7417 0 0 0 84.7417)
(84.7413 0 0 0 84.7413 0 0 0 84.7413)
(84.7409 0 0 0 84.7409 0 0 0 84.7409)
(84.7406 0 0 0 84.7406 0 0 0 84.7406)
(84.7405 0 0 0 84.7405 0 0 0 84.7405)
(84.7404 0 0 0 84.7404 0 0 0 84.7404)
(84.7404 0 0 0 84.7404 0 0 0 84.7404)
(84.7405 0 0 0 84.7405 0 0 0 84.7405)
(84.7406 0 0 0 84.7406 0 0 0 84.7406)
(84.7408 0 0 0 84.7408 0 0 0 84.7408)
(84.7409 0 0 0 84.7409 0 0 0 84.7409)
(84.7411 0 0 0 84.7411 0 0 0 84.7411)
(84.7411 0 0 0 84.7411 0 0 0 84.7411)
(84.8734 0 0 0 84.8734 0 0 0 84.8734)
(682.371 0 0 0 682.371 0 0 0 682.371)
(681.898 0 0 0 681.898 0 0 0 681.898)
(681.91 0 0 0 681.91 0 0 0 681.91)
(681.912 0 0 0 681.912 0 0 0 681.912)
(681.903 0 0 0 681.903 0 0 0 681.903)
(681.881 0 0 0 681.881 0 0 0 681.881)
(681.846 0 0 0 681.846 0 0 0 681.846)
(681.794 0 0 0 681.794 0 0 0 681.794)
(681.725 0 0 0 681.725 0 0 0 681.725)
(681.636 0 0 0 681.636 0 0 0 681.636)
(681.526 0 0 0 681.526 0 0 0 681.526)
(681.395 0 0 0 681.395 0 0 0 681.395)
(681.243 0 0 0 681.243 0 0 0 681.243)
(681.071 0 0 0 681.071 0 0 0 681.071)
(680.875 0 0 0 680.875 0 0 0 680.875)
(680.645 0 0 0 680.645 0 0 0 680.645)
(680.366 0 0 0 680.366 0 0 0 680.366)
(680.02 0 0 0 680.02 0 0 0 680.02)
(679.599 0 0 0 679.599 0 0 0 679.599)
(679.158 0 0 0 679.158 0 0 0 679.158)
(678.879 0 0 0 678.879 0 0 0 678.879)
(679.311 0 0 0 679.311 0 0 0 679.311)
(681.78 0 0 0 681.78 0 0 0 681.78)
(688.635 0 0 0 688.635 0 0 0 688.635)
(693.081 0 0 0 693.081 0 0 0 693.081)
(677.842 0 0 0 677.842 0 0 0 677.842)
(677.297 0 0 0 677.297 0 0 0 677.297)
(677.27 0 0 0 677.27 0 0 0 677.27)
(677.233 0 0 0 677.233 0 0 0 677.233)
(677.188 0 0 0 677.188 0 0 0 677.188)
(677.133 0 0 0 677.133 0 0 0 677.133)
(677.066 0 0 0 677.066 0 0 0 677.066)
(676.986 0 0 0 676.986 0 0 0 676.986)
(676.89 0 0 0 676.89 0 0 0 676.89)
(676.776 0 0 0 676.776 0 0 0 676.776)
(676.647 0 0 0 676.647 0 0 0 676.647)
(676.504 0 0 0 676.504 0 0 0 676.504)
(676.355 0 0 0 676.355 0 0 0 676.355)
(676.208 0 0 0 676.208 0 0 0 676.208)
(676.072 0 0 0 676.072 0 0 0 676.072)
(675.945 0 0 0 675.945 0 0 0 675.945)
(675.817 0 0 0 675.817 0 0 0 675.817)
(675.671 0 0 0 675.671 0 0 0 675.671)
(675.5 0 0 0 675.5 0 0 0 675.5)
(675.364 0 0 0 675.364 0 0 0 675.364)
(675.457 0 0 0 675.457 0 0 0 675.457)
(676.36 0 0 0 676.36 0 0 0 676.36)
(679.458 0 0 0 679.458 0 0 0 679.458)
(687.151 0 0 0 687.151 0 0 0 687.151)
(692.598 0 0 0 692.598 0 0 0 692.598)
(683.128 0 0 0 683.128 0 0 0 683.128)
(682.651 0 0 0 682.651 0 0 0 682.651)
(682.667 0 0 0 682.667 0 0 0 682.667)
(682.672 0 0 0 682.672 0 0 0 682.672)
(682.665 0 0 0 682.665 0 0 0 682.665)
(682.645 0 0 0 682.645 0 0 0 682.645)
(682.611 0 0 0 682.611 0 0 0 682.611)
(682.56 0 0 0 682.56 0 0 0 682.56)
(682.492 0 0 0 682.492 0 0 0 682.492)
(682.403 0 0 0 682.403 0 0 0 682.403)
(682.291 0 0 0 682.291 0 0 0 682.291)
(682.157 0 0 0 682.157 0 0 0 682.157)
(681.999 0 0 0 681.999 0 0 0 681.999)
(681.816 0 0 0 681.816 0 0 0 681.816)
(681.604 0 0 0 681.604 0 0 0 681.604)
(681.351 0 0 0 681.351 0 0 0 681.351)
(681.04 0 0 0 681.04 0 0 0 681.04)
(680.653 0 0 0 680.653 0 0 0 680.653)
(680.183 0 0 0 680.183 0 0 0 680.183)
(679.683 0 0 0 679.683 0 0 0 679.683)
(679.331 0 0 0 679.331 0 0 0 679.331)
(679.672 0 0 0 679.672 0 0 0 679.672)
(682.027 0 0 0 682.027 0 0 0 682.027)
(688.747 0 0 0 688.747 0 0 0 688.747)
(693.097 0 0 0 693.097 0 0 0 693.097)
(678.855 0 0 0 678.855 0 0 0 678.855)
(678.331 0 0 0 678.331 0 0 0 678.331)
(678.314 0 0 0 678.314 0 0 0 678.314)
(678.289 0 0 0 678.289 0 0 0 678.289)
(678.254 0 0 0 678.254 0 0 0 678.254)
(678.208 0 0 0 678.208 0 0 0 678.208)
(678.15 0 0 0 678.15 0 0 0 678.15)
(678.078 0 0 0 678.078 0 0 0 678.078)
(677.99 0 0 0 677.99 0 0 0 677.99)
(677.884 0 0 0 677.884 0 0 0 677.884)
(677.76 0 0 0 677.76 0 0 0 677.76)
(677.622 0 0 0 677.622 0 0 0 677.622)
(677.474 0 0 0 677.474 0 0 0 677.474)
(677.324 0 0 0 677.324 0 0 0 677.324)
(677.176 0 0 0 677.176 0 0 0 677.176)
(677.027 0 0 0 677.027 0 0 0 677.027)
(676.866 0 0 0 676.866 0 0 0 676.866)
(676.676 0 0 0 676.676 0 0 0 676.676)
(676.449 0 0 0 676.449 0 0 0 676.449)
(676.245 0 0 0 676.245 0 0 0 676.245)
(676.254 0 0 0 676.254 0 0 0 676.254)
(677.051 0 0 0 677.051 0 0 0 677.051)
(680.006 0 0 0 680.006 0 0 0 680.006)
(687.509 0 0 0 687.509 0 0 0 687.509)
(692.718 0 0 0 692.718 0 0 0 692.718)
(678.855 0 0 0 678.855 0 0 0 678.855)
(678.331 0 0 0 678.331 0 0 0 678.331)
(678.314 0 0 0 678.314 0 0 0 678.314)
(678.289 0 0 0 678.289 0 0 0 678.289)
(678.254 0 0 0 678.254 0 0 0 678.254)
(678.208 0 0 0 678.208 0 0 0 678.208)
(678.15 0 0 0 678.15 0 0 0 678.15)
(678.078 0 0 0 678.078 0 0 0 678.078)
(677.99 0 0 0 677.99 0 0 0 677.99)
(677.884 0 0 0 677.884 0 0 0 677.884)
(677.76 0 0 0 677.76 0 0 0 677.76)
(677.622 0 0 0 677.622 0 0 0 677.622)
(677.474 0 0 0 677.474 0 0 0 677.474)
(677.324 0 0 0 677.324 0 0 0 677.324)
(677.176 0 0 0 677.176 0 0 0 677.176)
(677.027 0 0 0 677.027 0 0 0 677.027)
(676.866 0 0 0 676.866 0 0 0 676.866)
(676.676 0 0 0 676.676 0 0 0 676.676)
(676.449 0 0 0 676.449 0 0 0 676.449)
(676.245 0 0 0 676.245 0 0 0 676.245)
(676.254 0 0 0 676.254 0 0 0 676.254)
(677.051 0 0 0 677.051 0 0 0 677.051)
(680.006 0 0 0 680.006 0 0 0 680.006)
(687.509 0 0 0 687.509 0 0 0 687.509)
(692.718 0 0 0 692.718 0 0 0 692.718)
(683.128 0 0 0 683.128 0 0 0 683.128)
(682.651 0 0 0 682.651 0 0 0 682.651)
(682.667 0 0 0 682.667 0 0 0 682.667)
(682.672 0 0 0 682.672 0 0 0 682.672)
(682.665 0 0 0 682.665 0 0 0 682.665)
(682.645 0 0 0 682.645 0 0 0 682.645)
(682.611 0 0 0 682.611 0 0 0 682.611)
(682.56 0 0 0 682.56 0 0 0 682.56)
(682.491 0 0 0 682.491 0 0 0 682.491)
(682.402 0 0 0 682.402 0 0 0 682.402)
(682.291 0 0 0 682.291 0 0 0 682.291)
(682.157 0 0 0 682.157 0 0 0 682.157)
(681.999 0 0 0 681.999 0 0 0 681.999)
(681.816 0 0 0 681.816 0 0 0 681.816)
(681.603 0 0 0 681.603 0 0 0 681.603)
(681.35 0 0 0 681.35 0 0 0 681.35)
(681.039 0 0 0 681.039 0 0 0 681.039)
(680.652 0 0 0 680.652 0 0 0 680.652)
(680.182 0 0 0 680.182 0 0 0 680.182)
(679.682 0 0 0 679.682 0 0 0 679.682)
(679.329 0 0 0 679.329 0 0 0 679.329)
(679.67 0 0 0 679.67 0 0 0 679.67)
(682.026 0 0 0 682.026 0 0 0 682.026)
(688.745 0 0 0 688.745 0 0 0 688.745)
(693.097 0 0 0 693.097 0 0 0 693.097)
(677.842 0 0 0 677.842 0 0 0 677.842)
(677.297 0 0 0 677.297 0 0 0 677.297)
(677.27 0 0 0 677.27 0 0 0 677.27)
(677.233 0 0 0 677.233 0 0 0 677.233)
(677.188 0 0 0 677.188 0 0 0 677.188)
(677.133 0 0 0 677.133 0 0 0 677.133)
(677.066 0 0 0 677.066 0 0 0 677.066)
(676.986 0 0 0 676.986 0 0 0 676.986)
(676.89 0 0 0 676.89 0 0 0 676.89)
(676.776 0 0 0 676.776 0 0 0 676.776)
(676.647 0 0 0 676.647 0 0 0 676.647)
(676.504 0 0 0 676.504 0 0 0 676.504)
(676.355 0 0 0 676.355 0 0 0 676.355)
(676.208 0 0 0 676.208 0 0 0 676.208)
(676.072 0 0 0 676.072 0 0 0 676.072)
(675.945 0 0 0 675.945 0 0 0 675.945)
(675.817 0 0 0 675.817 0 0 0 675.817)
(675.671 0 0 0 675.671 0 0 0 675.671)
(675.5 0 0 0 675.5 0 0 0 675.5)
(675.364 0 0 0 675.364 0 0 0 675.364)
(675.457 0 0 0 675.457 0 0 0 675.457)
(676.36 0 0 0 676.36 0 0 0 676.36)
(679.458 0 0 0 679.458 0 0 0 679.458)
(687.151 0 0 0 687.151 0 0 0 687.151)
(692.598 0 0 0 692.598 0 0 0 692.598)
(682.371 0 0 0 682.371 0 0 0 682.371)
(681.898 0 0 0 681.898 0 0 0 681.898)
(681.91 0 0 0 681.91 0 0 0 681.91)
(681.912 0 0 0 681.912 0 0 0 681.912)
(681.903 0 0 0 681.903 0 0 0 681.903)
(681.881 0 0 0 681.881 0 0 0 681.881)
(681.846 0 0 0 681.846 0 0 0 681.846)
(681.794 0 0 0 681.794 0 0 0 681.794)
(681.725 0 0 0 681.725 0 0 0 681.725)
(681.636 0 0 0 681.636 0 0 0 681.636)
(681.526 0 0 0 681.526 0 0 0 681.526)
(681.395 0 0 0 681.395 0 0 0 681.395)
(681.243 0 0 0 681.243 0 0 0 681.243)
(681.071 0 0 0 681.071 0 0 0 681.071)
(680.875 0 0 0 680.875 0 0 0 680.875)
(680.645 0 0 0 680.645 0 0 0 680.645)
(680.366 0 0 0 680.366 0 0 0 680.366)
(680.02 0 0 0 680.02 0 0 0 680.02)
(679.599 0 0 0 679.599 0 0 0 679.599)
(679.158 0 0 0 679.158 0 0 0 679.158)
(678.879 0 0 0 678.879 0 0 0 678.879)
(679.31 0 0 0 679.31 0 0 0 679.31)
(681.78 0 0 0 681.78 0 0 0 681.78)
(688.635 0 0 0 688.635 0 0 0 688.635)
(693.081 0 0 0 693.081 0 0 0 693.081)
(678.855 0 0 0 678.855 0 0 0 678.855)
(678.331 0 0 0 678.331 0 0 0 678.331)
(678.314 0 0 0 678.314 0 0 0 678.314)
(678.289 0 0 0 678.289 0 0 0 678.289)
(678.254 0 0 0 678.254 0 0 0 678.254)
(678.208 0 0 0 678.208 0 0 0 678.208)
(678.15 0 0 0 678.15 0 0 0 678.15)
(678.078 0 0 0 678.078 0 0 0 678.078)
(677.99 0 0 0 677.99 0 0 0 677.99)
(677.884 0 0 0 677.884 0 0 0 677.884)
(677.76 0 0 0 677.76 0 0 0 677.76)
(677.622 0 0 0 677.622 0 0 0 677.622)
(677.474 0 0 0 677.474 0 0 0 677.474)
(677.324 0 0 0 677.324 0 0 0 677.324)
(677.176 0 0 0 677.176 0 0 0 677.176)
(677.027 0 0 0 677.027 0 0 0 677.027)
(676.866 0 0 0 676.866 0 0 0 676.866)
(676.676 0 0 0 676.676 0 0 0 676.676)
(676.449 0 0 0 676.449 0 0 0 676.449)
(676.245 0 0 0 676.245 0 0 0 676.245)
(676.254 0 0 0 676.254 0 0 0 676.254)
(677.051 0 0 0 677.051 0 0 0 677.051)
(680.006 0 0 0 680.006 0 0 0 680.006)
(687.509 0 0 0 687.509 0 0 0 687.509)
(692.718 0 0 0 692.718 0 0 0 692.718)
(683.128 0 0 0 683.128 0 0 0 683.128)
(682.651 0 0 0 682.651 0 0 0 682.651)
(682.667 0 0 0 682.667 0 0 0 682.667)
(682.672 0 0 0 682.672 0 0 0 682.672)
(682.665 0 0 0 682.665 0 0 0 682.665)
(682.645 0 0 0 682.645 0 0 0 682.645)
(682.611 0 0 0 682.611 0 0 0 682.611)
(682.561 0 0 0 682.561 0 0 0 682.561)
(682.492 0 0 0 682.492 0 0 0 682.492)
(682.403 0 0 0 682.403 0 0 0 682.403)
(682.292 0 0 0 682.292 0 0 0 682.292)
(682.157 0 0 0 682.157 0 0 0 682.157)
(681.999 0 0 0 681.999 0 0 0 681.999)
(681.816 0 0 0 681.816 0 0 0 681.816)
(681.604 0 0 0 681.604 0 0 0 681.604)
(681.351 0 0 0 681.351 0 0 0 681.351)
(681.04 0 0 0 681.04 0 0 0 681.04)
(680.653 0 0 0 680.653 0 0 0 680.653)
(680.183 0 0 0 680.183 0 0 0 680.183)
(679.683 0 0 0 679.683 0 0 0 679.683)
(679.33 0 0 0 679.33 0 0 0 679.33)
(679.671 0 0 0 679.671 0 0 0 679.671)
(682.027 0 0 0 682.027 0 0 0 682.027)
(688.747 0 0 0 688.747 0 0 0 688.747)
(693.098 0 0 0 693.098 0 0 0 693.098)
(683.128 0 0 0 683.128 0 0 0 683.128)
(682.651 0 0 0 682.651 0 0 0 682.651)
(682.667 0 0 0 682.667 0 0 0 682.667)
(682.672 0 0 0 682.672 0 0 0 682.672)
(682.665 0 0 0 682.665 0 0 0 682.665)
(682.645 0 0 0 682.645 0 0 0 682.645)
(682.611 0 0 0 682.611 0 0 0 682.611)
(682.56 0 0 0 682.56 0 0 0 682.56)
(682.491 0 0 0 682.491 0 0 0 682.491)
(682.402 0 0 0 682.402 0 0 0 682.402)
(682.291 0 0 0 682.291 0 0 0 682.291)
(682.157 0 0 0 682.157 0 0 0 682.157)
(681.999 0 0 0 681.999 0 0 0 681.999)
(681.816 0 0 0 681.816 0 0 0 681.816)
(681.603 0 0 0 681.603 0 0 0 681.603)
(681.35 0 0 0 681.35 0 0 0 681.35)
(681.039 0 0 0 681.039 0 0 0 681.039)
(680.652 0 0 0 680.652 0 0 0 680.652)
(680.182 0 0 0 680.182 0 0 0 680.182)
(679.682 0 0 0 679.682 0 0 0 679.682)
(679.33 0 0 0 679.33 0 0 0 679.33)
(679.671 0 0 0 679.671 0 0 0 679.671)
(682.026 0 0 0 682.026 0 0 0 682.026)
(688.745 0 0 0 688.745 0 0 0 688.745)
(693.097 0 0 0 693.097 0 0 0 693.097)
(678.855 0 0 0 678.855 0 0 0 678.855)
(678.331 0 0 0 678.331 0 0 0 678.331)
(678.314 0 0 0 678.314 0 0 0 678.314)
(678.289 0 0 0 678.289 0 0 0 678.289)
(678.254 0 0 0 678.254 0 0 0 678.254)
(678.208 0 0 0 678.208 0 0 0 678.208)
(678.15 0 0 0 678.15 0 0 0 678.15)
(678.078 0 0 0 678.078 0 0 0 678.078)
(677.99 0 0 0 677.99 0 0 0 677.99)
(677.884 0 0 0 677.884 0 0 0 677.884)
(677.76 0 0 0 677.76 0 0 0 677.76)
(677.622 0 0 0 677.622 0 0 0 677.622)
(677.474 0 0 0 677.474 0 0 0 677.474)
(677.324 0 0 0 677.324 0 0 0 677.324)
(677.176 0 0 0 677.176 0 0 0 677.176)
(677.027 0 0 0 677.027 0 0 0 677.027)
(676.866 0 0 0 676.866 0 0 0 676.866)
(676.676 0 0 0 676.676 0 0 0 676.676)
(676.449 0 0 0 676.449 0 0 0 676.449)
(676.245 0 0 0 676.245 0 0 0 676.245)
(676.254 0 0 0 676.254 0 0 0 676.254)
(677.051 0 0 0 677.051 0 0 0 677.051)
(680.006 0 0 0 680.006 0 0 0 680.006)
(687.509 0 0 0 687.509 0 0 0 687.509)
(692.718 0 0 0 692.718 0 0 0 692.718)
)
;

boundaryField
{
    outletCentralUnloaded
    {
        type            zeroGradient;
    }
    inletCentralUnloaded
    {
        type            zeroGradient;
    }
    outletFuelElement
    {
        type            zeroGradient;
    }
    inletFuelElement
    {
        type            zeroGradient;
    }
    defaultFaces
    {
        type            zeroGradient;
    }
    baffle_master
    {
        type            zeroGradient;
    }
    baffle_slave
    {
        type            zeroGradient;
    }
}


// ************************************************************************* //
