/*--------------------------------*- C++ -*----------------------------------*\
| =========                 |                                                 |
| \\      /  F ield         | OpenFOAM: The Open Source CFD Toolbox           |
|  \\    /   O peration     | Version:  2212                                  |
|   \\  /    A nd           | Website:  www.openfoam.com                      |
|    \\/     M anipulation  |                                                 |
\*---------------------------------------------------------------------------*/
FoamFile
{
    version     2.0;
    format      ascii;
    arch        "LSB;label=32;scalar=64";
    class       volScalarField;
    location    "43/fluidRegion";
    object      p;
}
// * * * * * * * * * * * * * * * * * * * * * * * * * * * * * * * * * * * * * //

dimensions      [1 -1 -2 0 0 0 0];

internalField   nonuniform List<scalar> 
350
(
3.44743e+06
3.44772e+06
3.44802e+06
3.44831e+06
3.44861e+06
3.4489e+06
3.4492e+06
3.4495e+06
3.44979e+06
3.45009e+06
3.45039e+06
3.45068e+06
3.45098e+06
3.45127e+06
3.45157e+06
3.45186e+06
3.45216e+06
3.45245e+06
3.45275e+06
3.45304e+06
3.45334e+06
3.45363e+06
3.45393e+06
3.45422e+06
3.45451e+06
3.44743e+06
3.44772e+06
3.44802e+06
3.44831e+06
3.44861e+06
3.4489e+06
3.4492e+06
3.4495e+06
3.44979e+06
3.45009e+06
3.45039e+06
3.45068e+06
3.45098e+06
3.45127e+06
3.45157e+06
3.45186e+06
3.45216e+06
3.45245e+06
3.45275e+06
3.45304e+06
3.45334e+06
3.45363e+06
3.45393e+06
3.45422e+06
3.45451e+06
3.47374e+06
3.52539e+06
3.57643e+06
3.62658e+06
3.6755e+06
3.72294e+06
3.76862e+06
3.8123e+06
3.85379e+06
3.89289e+06
3.92943e+06
3.96329e+06
3.99435e+06
4.02254e+06
4.0478e+06
4.07013e+06
4.08958e+06
4.10625e+06
4.12025e+06
4.13178e+06
4.14103e+06
4.14821e+06
4.15359e+06
4.15744e+06
4.16011e+06
3.47374e+06
3.52539e+06
3.57643e+06
3.62658e+06
3.6755e+06
3.72294e+06
3.76862e+06
3.8123e+06
3.85379e+06
3.89289e+06
3.92943e+06
3.96329e+06
3.99435e+06
4.02254e+06
4.0478e+06
4.07013e+06
4.08958e+06
4.10625e+06
4.12025e+06
4.13178e+06
4.14103e+06
4.14821e+06
4.15359e+06
4.15744e+06
4.16011e+06
3.47374e+06
3.52539e+06
3.57644e+06
3.62658e+06
3.6755e+06
3.72294e+06
3.76862e+06
3.8123e+06
3.85379e+06
3.89289e+06
3.92943e+06
3.96329e+06
3.99435e+06
4.02254e+06
4.0478e+06
4.07013e+06
4.08958e+06
4.10624e+06
4.12025e+06
4.13178e+06
4.14103e+06
4.14821e+06
4.15358e+06
4.15744e+06
4.16011e+06
3.47374e+06
3.52539e+06
3.57643e+06
3.62658e+06
3.6755e+06
3.72294e+06
3.76862e+06
3.8123e+06
3.85379e+06
3.89289e+06
3.92943e+06
3.96329e+06
3.99435e+06
4.02254e+06
4.0478e+06
4.07013e+06
4.08958e+06
4.10625e+06
4.12025e+06
4.13178e+06
4.14103e+06
4.14821e+06
4.15359e+06
4.15744e+06
4.16011e+06
3.47374e+06
3.52539e+06
3.57643e+06
3.62658e+06
3.6755e+06
3.72294e+06
3.76862e+06
3.8123e+06
3.85379e+06
3.89289e+06
3.92943e+06
3.96329e+06
3.99435e+06
4.02254e+06
4.0478e+06
4.07013e+06
4.08958e+06
4.10625e+06
4.12025e+06
4.13178e+06
4.14103e+06
4.14821e+06
4.15359e+06
4.15744e+06
4.16011e+06
3.47374e+06
3.52539e+06
3.57644e+06
3.62658e+06
3.6755e+06
3.72294e+06
3.76862e+06
3.8123e+06
3.85379e+06
3.89289e+06
3.92943e+06
3.96329e+06
3.99435e+06
4.02254e+06
4.0478e+06
4.07013e+06
4.08958e+06
4.10624e+06
4.12025e+06
4.13178e+06
4.14103e+06
4.14821e+06
4.15358e+06
4.15744e+06
4.16011e+06
3.47374e+06
3.52539e+06
3.57643e+06
3.62658e+06
3.6755e+06
3.72294e+06
3.76862e+06
3.8123e+06
3.85379e+06
3.89289e+06
3.92943e+06
3.96329e+06
3.99435e+06
4.02254e+06
4.0478e+06
4.07013e+06
4.08958e+06
4.10625e+06
4.12025e+06
4.13178e+06
4.14103e+06
4.14821e+06
4.15359e+06
4.15744e+06
4.16011e+06
3.47374e+06
3.52539e+06
3.57643e+06
3.62658e+06
3.6755e+06
3.72294e+06
3.76862e+06
3.8123e+06
3.85379e+06
3.89289e+06
3.92943e+06
3.96329e+06
3.99435e+06
4.02254e+06
4.0478e+06
4.07013e+06
4.08958e+06
4.10625e+06
4.12025e+06
4.13178e+06
4.14103e+06
4.14821e+06
4.15359e+06
4.15744e+06
4.16011e+06
3.47374e+06
3.52539e+06
3.57643e+06
3.62658e+06
3.6755e+06
3.72294e+06
3.76862e+06
3.8123e+06
3.85379e+06
3.89289e+06
3.92943e+06
3.96329e+06
3.99435e+06
4.02254e+06
4.0478e+06
4.07013e+06
4.08958e+06
4.10625e+06
4.12025e+06
4.13178e+06
4.14103e+06
4.14821e+06
4.15359e+06
4.15744e+06
4.16011e+06
3.47374e+06
3.52539e+06
3.57644e+06
3.62658e+06
3.6755e+06
3.72294e+06
3.76862e+06
3.8123e+06
3.85379e+06
3.89289e+06
3.92943e+06
3.96329e+06
3.99435e+06
4.02254e+06
4.0478e+06
4.07013e+06
4.08958e+06
4.10624e+06
4.12025e+06
4.13178e+06
4.14103e+06
4.14821e+06
4.15358e+06
4.15744e+06
4.16011e+06
3.47374e+06
3.52539e+06
3.57644e+06
3.62658e+06
3.6755e+06
3.72294e+06
3.76862e+06
3.8123e+06
3.85379e+06
3.89289e+06
3.92943e+06
3.96329e+06
3.99435e+06
4.02254e+06
4.0478e+06
4.07013e+06
4.08958e+06
4.10624e+06
4.12025e+06
4.13178e+06
4.14103e+06
4.14821e+06
4.15358e+06
4.15744e+06
4.16011e+06
3.47374e+06
3.52539e+06
3.57643e+06
3.62658e+06
3.6755e+06
3.72294e+06
3.76862e+06
3.8123e+06
3.85379e+06
3.89289e+06
3.92943e+06
3.96329e+06
3.99435e+06
4.02254e+06
4.0478e+06
4.07013e+06
4.08958e+06
4.10625e+06
4.12025e+06
4.13178e+06
4.14103e+06
4.14821e+06
4.15359e+06
4.15744e+06
4.16011e+06
)
;

boundaryField
{
    outletCentralUnloaded
    {
        type            fixedValue;
        value           uniform 3.44728e+06;
    }
    inletCentralUnloaded
    {
        type            zeroGradient;
    }
    outletFuelElement
    {
        type            fixedValue;
        value           uniform 3.44728e+06;
    }
    inletFuelElement
    {
        type            zeroGradient;
    }
    defaultFaces
    {
        type            zeroGradient;
    }
    baffle_master
    {
        type            zeroGradient;
    }
    baffle_slave
    {
        type            zeroGradient;
    }
}


// ************************************************************************* //
