/*--------------------------------*- C++ -*----------------------------------*\
| =========                 |                                                 |
| \\      /  F ield         | OpenFOAM: The Open Source CFD Toolbox           |
|  \\    /   O peration     | Version:  2212                                  |
|   \\  /    A nd           | Website:  www.openfoam.com                      |
|    \\/     M anipulation  |                                                 |
\*---------------------------------------------------------------------------*/
FoamFile
{
    version     2.0;
    format      ascii;
    arch        "LSB;label=32;scalar=64";
    class       volScalarField;
    location    "43/fluidRegion";
    object      T;
}
// * * * * * * * * * * * * * * * * * * * * * * * * * * * * * * * * * * * * * //

dimensions      [0 0 0 1 0 0 0];

internalField   nonuniform List<scalar> 
350
(
83.289
83.2896
83.2902
83.2907
83.2912
83.2916
83.292
83.2924
83.2928
83.2933
83.2937
83.2942
83.2946
83.295
83.2954
83.2958
83.2962
83.2966
83.2971
83.2976
83.2981
83.2987
83.2992
83.2997
83.3001
83.289
83.2896
83.2902
83.2907
83.2912
83.2916
83.292
83.2924
83.2928
83.2933
83.2937
83.2942
83.2946
83.295
83.2954
83.2958
83.2962
83.2966
83.2971
83.2976
83.2981
83.2987
83.2992
83.2997
83.3001
1818.64
1812.74
1794.42
1763.92
1721.57
1667.87
1603.44
1529.03
1445.52
1353.91
1255.35
1151.17
1042.9
932.27
821.25
711.932
606.42
506.672
414.397
331.031
257.834
195.99
146.722
111.194
90.1004
1846.76
1841.08
1822.77
1792.05
1749.27
1694.93
1629.66
1554.22
1469.49
1376.49
1276.38
1170.49
1060.36
947.767
834.694
723.293
615.738
514.059
420.024
335.11
260.601
197.694
147.622
111.557
90.1775
1814.07
1808.15
1789.86
1759.4
1717.14
1663.57
1599.29
1525.06
1441.75
1350.37
1252.07
1148.18
1040.2
929.893
819.2
710.21
605.016
505.567
413.561
330.431
257.43
195.744
146.593
111.141
90.0881
1840.43
1834.69
1816.36
1785.68
1742.99
1688.79
1623.7
1548.48
1464.01
1371.32
1271.56
1166.06
1056.35
944.2
831.595
720.671
613.585
512.35
418.721
334.165
259.959
197.298
147.413
111.473
90.1598
1840.43
1834.69
1816.36
1785.68
1742.99
1688.79
1623.7
1548.48
1464.01
1371.32
1271.56
1166.06
1056.35
944.2
831.595
720.671
613.585
512.35
418.721
334.165
259.959
197.298
147.413
111.473
90.1598
1814.07
1808.15
1789.86
1759.41
1717.15
1663.57
1599.29
1525.06
1441.75
1350.37
1252.08
1148.18
1040.2
929.894
819.201
710.211
605.017
505.567
413.562
330.431
257.431
195.744
146.593
111.141
90.0881
1846.76
1841.08
1822.77
1792.05
1749.27
1694.93
1629.66
1554.22
1469.49
1376.49
1276.38
1170.49
1060.36
947.767
834.694
723.293
615.738
514.059
420.024
335.11
260.601
197.694
147.622
111.557
90.1775
1818.64
1812.74
1794.42
1763.92
1721.57
1667.87
1603.44
1529.03
1445.52
1353.91
1255.35
1151.17
1042.9
932.27
821.25
711.932
606.42
506.672
414.397
331.031
257.834
195.99
146.722
111.194
90.1004
1840.43
1834.69
1816.36
1785.68
1742.99
1688.79
1623.7
1548.48
1464.01
1371.32
1271.56
1166.06
1056.35
944.2
831.595
720.671
613.585
512.35
418.721
334.165
259.959
197.298
147.413
111.473
90.1598
1814.07
1808.15
1789.86
1759.4
1717.14
1663.57
1599.29
1525.06
1441.75
1350.37
1252.07
1148.18
1040.2
929.892
819.2
710.21
605.016
505.567
413.561
330.431
257.43
195.744
146.593
111.141
90.0881
1814.07
1808.15
1789.86
1759.41
1717.15
1663.57
1599.29
1525.06
1441.75
1350.37
1252.08
1148.18
1040.2
929.894
819.201
710.211
605.017
505.567
413.562
330.431
257.431
195.744
146.593
111.141
90.0881
1840.43
1834.69
1816.36
1785.68
1742.99
1688.79
1623.7
1548.48
1464.01
1371.32
1271.56
1166.06
1056.35
944.2
831.595
720.671
613.585
512.35
418.721
334.165
259.959
197.298
147.413
111.473
90.1598
)
;

boundaryField
{
    outletCentralUnloaded
    {
        type            zeroGradient;
    }
    inletCentralUnloaded
    {
        type            fixedValue;
        value           uniform 83.3;
    }
    outletFuelElement
    {
        type            zeroGradient;
    }
    inletFuelElement
    {
        type            fixedValue;
        value           uniform 83.3;
    }
    defaultFaces
    {
        type            zeroGradient;
    }
    baffle_master
    {
        type            zeroGradient;
    }
    baffle_slave
    {
        type            zeroGradient;
    }
}


// ************************************************************************* //
