/*--------------------------------*- C++ -*----------------------------------*\
| =========                 |                                                 |
| \\      /  F ield         | OpenFOAM: The Open Source CFD Toolbox           |
|  \\    /   O peration     | Version:  2212                                  |
|   \\  /    A nd           | Website:  www.openfoam.com                      |
|    \\/     M anipulation  |                                                 |
\*---------------------------------------------------------------------------*/
FoamFile
{
    version     2.0;
    format      ascii;
    arch        "LSB;label=32;scalar=64";
    class       volScalarField;
    location    "43/fluidRegion";
    object      Tco.nuclearFuelPin;
}
// * * * * * * * * * * * * * * * * * * * * * * * * * * * * * * * * * * * * * //

dimensions      [0 0 0 1 0 0 0];

internalField   nonuniform List<scalar> 
350
(
0
0
0
0
0
0
0
0
0
0
0
0
0
0
0
0
0
0
0
0
0
0
0
0
0
0
0
0
0
0
0
0
0
0
0
0
0
0
0
0
0
0
0
0
0
0
0
0
0
0
1834.43
1861.51
1875.9
1877.79
1867.46
1845.34
1812
1768.15
1714.61
1652.31
1582.32
1505.78
1423.97
1338.21
1249.94
1160.59
1071.48
983.602
897.249
811.476
723.236
626.102
509.234
360.505
181.419
1862.67
1890.24
1904.9
1906.83
1896.32
1873.81
1839.88
1795.24
1740.72
1677.28
1605.99
1528.03
1444.66
1357.26
1267.27
1176.16
1085.29
995.708
907.77
820.566
731.046
632.697
514.463
363.915
182.572
1829.84
1856.86
1871.23
1873.13
1862.85
1840.81
1807.58
1763.87
1710.5
1648.4
1578.62
1502.32
1420.76
1335.27
1247.27
1158.2
1069.37
981.756
895.65
810.101
722.063
625.122
508.468
360.01
181.243
1856.32
1883.76
1898.35
1900.25
1889.77
1867.34
1833.53
1789.05
1734.74
1671.56
1600.56
1522.92
1439.9
1352.87
1263.27
1172.56
1082.1
992.909
905.336
818.463
729.238
631.17
513.251
363.123
182.305
1856.32
1883.76
1898.35
1900.25
1889.77
1867.34
1833.53
1789.05
1734.74
1671.56
1600.56
1522.92
1439.9
1352.87
1263.27
1172.56
1082.1
992.909
905.336
818.463
729.238
631.17
513.251
363.123
182.305
1829.85
1856.86
1871.24
1873.13
1862.85
1840.81
1807.58
1763.87
1710.5
1648.4
1578.62
1502.32
1420.76
1335.27
1247.27
1158.2
1069.37
981.757
895.651
810.102
722.063
625.123
508.469
360.011
181.243
1862.67
1890.24
1904.9
1906.83
1896.32
1873.81
1839.88
1795.24
1740.72
1677.28
1605.99
1528.03
1444.66
1357.26
1267.27
1176.16
1085.29
995.708
907.77
820.566
731.046
632.698
514.463
363.914
182.572
1834.43
1861.51
1875.9
1877.79
1867.46
1845.34
1812
1768.15
1714.61
1652.31
1582.32
1505.78
1423.97
1338.21
1249.94
1160.59
1071.48
983.602
897.249
811.476
723.236
626.102
509.234
360.505
181.419
1856.32
1883.76
1898.35
1900.25
1889.77
1867.34
1833.53
1789.05
1734.74
1671.56
1600.56
1522.92
1439.9
1352.87
1263.27
1172.56
1082.1
992.909
905.336
818.463
729.238
631.17
513.251
363.123
182.305
1829.84
1856.86
1871.23
1873.13
1862.85
1840.81
1807.58
1763.87
1710.5
1648.4
1578.62
1502.32
1420.75
1335.27
1247.27
1158.2
1069.37
981.756
895.65
810.101
722.063
625.122
508.469
360.01
181.243
1829.85
1856.86
1871.24
1873.13
1862.85
1840.81
1807.58
1763.87
1710.5
1648.4
1578.62
1502.32
1420.76
1335.27
1247.27
1158.2
1069.37
981.757
895.651
810.102
722.063
625.123
508.469
360.011
181.243
1856.32
1883.76
1898.35
1900.25
1889.77
1867.34
1833.53
1789.05
1734.74
1671.56
1600.56
1522.92
1439.9
1352.87
1263.27
1172.56
1082.1
992.909
905.336
818.463
729.238
631.17
513.251
363.123
182.305
)
;

boundaryField
{
    outletCentralUnloaded
    {
        type            zeroGradient;
    }
    inletCentralUnloaded
    {
        type            zeroGradient;
    }
    outletFuelElement
    {
        type            zeroGradient;
    }
    inletFuelElement
    {
        type            zeroGradient;
    }
    defaultFaces
    {
        type            zeroGradient;
    }
    baffle_master
    {
        type            zeroGradient;
    }
    baffle_slave
    {
        type            zeroGradient;
    }
}


// ************************************************************************* //
