/*--------------------------------*- C++ -*----------------------------------*\
| =========                 |                                                 |
| \\      /  F ield         | OpenFOAM: The Open Source CFD Toolbox           |
|  \\    /   O peration     | Version:  2212                                  |
|   \\  /    A nd           | Website:  www.openfoam.com                      |
|    \\/     M anipulation  |                                                 |
\*---------------------------------------------------------------------------*/
FoamFile
{
    version     2.0;
    format      ascii;
    arch        "LSB;label=32;scalar=64";
    class       volScalarField;
    location    "43/fluidRegion";
    object      Tfi.nuclearFuelPin;
}
// * * * * * * * * * * * * * * * * * * * * * * * * * * * * * * * * * * * * * //

dimensions      [0 0 0 1 0 0 0];

internalField   nonuniform List<scalar> 
350
(
0
0
0
0
0
0
0
0
0
0
0
0
0
0
0
0
0
0
0
0
0
0
0
0
0
0
0
0
0
0
0
0
0
0
0
0
0
0
0
0
0
0
0
0
0
0
0
0
0
0
2389.72
3577.07
4724.34
5813.84
6828.71
7753.24
8573.07
9275.46
9849.47
10286.2
10578.7
10722.6
10715.6
10557.9
10252
9802.92
9217.5
8504.6
7674.33
6737.58
5704.68
4584.3
3381.97
2103.35
768.02
2423.97
3625.12
4785.64
5887.65
6914.11
7849.1
8678.12
9388.28
9968.52
10409.8
10705.2
10850.2
10842.6
10682.4
10372.3
9917.34
9324.5
8602.75
7762.4
6814.49
5769.49
4636.18
3420.05
2126.67
775.845
2384.17
3569.35
4714.52
5802.05
6815.1
7737.98
8556.36
9257.53
9830.56
10266.5
10558.6
10702.4
10695.5
10538.2
10233
9784.78
9200.54
8489.05
7660.38
6725.41
5694.43
4576.11
3375.98
2099.69
766.783
2416.23
3614.19
4771.65
5870.76
6894.54
7827.11
8654
9362.36
9941.15
10381.4
10676.1
10820.9
10813.3
10653.7
10344.6
9890.99
9299.85
8580.15
7742.12
6796.78
5754.56
4624.23
3411.28
2121.3
774.043
2416.23
3614.19
4771.65
5870.76
6894.54
7827.11
8654
9362.36
9941.15
10381.4
10676.1
10820.9
10813.3
10653.7
10344.6
9890.99
9299.85
8580.15
7742.12
6796.78
5754.56
4624.23
3411.28
2121.3
774.043
2384.17
3569.35
4714.53
5802.05
6815.1
7737.98
8556.36
9257.53
9830.56
10266.5
10558.6
10702.4
10695.5
10538.2
10233
9784.78
9200.54
8489.05
7660.38
6725.41
5694.43
4576.11
3375.98
2099.69
766.783
2423.97
3625.12
4785.64
5887.65
6914.11
7849.1
8678.12
9388.28
9968.52
10409.8
10705.2
10850.2
10842.6
10682.4
10372.3
9917.34
9324.5
8602.75
7762.4
6814.49
5769.49
4636.18
3420.06
2126.67
775.845
2389.72
3577.07
4724.34
5813.84
6828.71
7753.24
8573.07
9275.46
9849.47
10286.2
10578.7
10722.6
10715.6
10557.9
10252
9802.92
9217.5
8504.6
7674.33
6737.58
5704.68
4584.3
3381.98
2103.35
768.02
2416.23
3614.19
4771.65
5870.76
6894.54
7827.11
8654
9362.36
9941.15
10381.4
10676.1
10820.9
10813.3
10653.7
10344.6
9890.99
9299.85
8580.15
7742.12
6796.78
5754.56
4624.23
3411.28
2121.3
774.043
2384.17
3569.35
4714.52
5802.05
6815.1
7737.98
8556.36
9257.53
9830.56
10266.5
10558.6
10702.4
10695.5
10538.2
10233
9784.78
9200.54
8489.05
7660.38
6725.41
5694.43
4576.11
3375.98
2099.69
766.783
2384.17
3569.35
4714.53
5802.05
6815.1
7737.98
8556.36
9257.53
9830.56
10266.5
10558.6
10702.4
10695.5
10538.2
10233
9784.78
9200.54
8489.05
7660.38
6725.41
5694.43
4576.11
3375.98
2099.69
766.783
2416.23
3614.19
4771.65
5870.76
6894.54
7827.11
8654
9362.36
9941.15
10381.4
10676.1
10820.9
10813.3
10653.7
10344.6
9890.99
9299.85
8580.15
7742.12
6796.78
5754.56
4624.23
3411.28
2121.3
774.043
)
;

boundaryField
{
    outletCentralUnloaded
    {
        type            zeroGradient;
    }
    inletCentralUnloaded
    {
        type            zeroGradient;
    }
    outletFuelElement
    {
        type            zeroGradient;
    }
    inletFuelElement
    {
        type            zeroGradient;
    }
    defaultFaces
    {
        type            zeroGradient;
    }
    baffle_master
    {
        type            zeroGradient;
    }
    baffle_slave
    {
        type            zeroGradient;
    }
}


// ************************************************************************* //
