/*--------------------------------*- C++ -*----------------------------------*\
| =========                 |                                                 |
| \\      /  F ield         | OpenFOAM: The Open Source CFD Toolbox           |
|  \\    /   O peration     | Version:  2212                                  |
|   \\  /    A nd           | Website:  www.openfoam.com                      |
|    \\/     M anipulation  |                                                 |
\*---------------------------------------------------------------------------*/
FoamFile
{
    version     2.0;
    format      ascii;
    arch        "LSB;label=32;scalar=64";
    class       volScalarField;
    location    "43/fluidRegion";
    object      Tfo.nuclearFuelPin;
}
// * * * * * * * * * * * * * * * * * * * * * * * * * * * * * * * * * * * * * //

dimensions      [0 0 0 1 0 0 0];

internalField   nonuniform List<scalar> 
350
(
0
0
0
0
0
0
0
0
0
0
0
0
0
0
0
0
0
0
0
0
0
0
0
0
0
0
0
0
0
0
0
0
0
0
0
0
0
0
0
0
0
0
0
0
0
0
0
0
0
0
2008.94
2398.15
2766.11
3107.43
3417.05
3690.36
3923.27
4112.28
4254.56
4347.95
4391.06
4383.26
4324.73
4216.46
4060.21
3858.51
3614.43
3331.42
3012.82
2661.4
2278.27
1861.72
1406
904.509
364.399
2039.09
2432.93
2805.21
3150.47
3463.58
3739.89
3975.25
4166.14
4309.69
4403.73
4446.84
4438.41
4378.61
4268.43
4109.69
3904.94
3657.33
3370.39
3047.56
2691.66
2303.88
1882.45
1421.48
914.135
367.636
2004.05
2392.54
2759.83
3100.54
3409.62
3682.47
3915.01
4103.74
4245.82
4339.12
4382.24
4374.56
4316.24
4208.27
4052.42
3851.2
3607.69
3325.29
3007.37
2656.65
2274.26
1858.49
1403.6
903.024
363.892
2032.3
2425.06
2796.33
3140.67
3452.96
3728.56
3963.35
4153.8
4297.04
4390.92
4434.02
4425.73
4366.21
4256.47
4098.3
3894.24
3647.45
3361.41
3039.55
2684.69
2297.97
1877.67
1417.91
911.913
366.889
2032.3
2425.06
2796.33
3140.67
3452.96
3728.56
3963.35
4153.8
4297.04
4390.92
4434.02
4425.72
4366.21
4256.46
4098.3
3894.24
3647.45
3361.41
3039.55
2684.69
2297.97
1877.67
1417.91
911.913
366.889
2004.05
2392.54
2759.83
3100.54
3409.62
3682.47
3915.01
4103.74
4245.82
4339.13
4382.24
4374.56
4316.24
4208.27
4052.42
3851.2
3607.69
3325.29
3007.37
2656.65
2274.26
1858.49
1403.6
903.024
363.892
2039.09
2432.93
2805.22
3150.47
3463.58
3739.89
3975.25
4166.14
4309.69
4403.73
4446.84
4438.41
4378.61
4268.43
4109.69
3904.94
3657.33
3370.39
3047.56
2691.66
2303.88
1882.45
1421.48
914.135
367.636
2008.94
2398.15
2766.11
3107.43
3417.05
3690.36
3923.27
4112.28
4254.56
4347.95
4391.06
4383.26
4324.73
4216.46
4060.21
3858.51
3614.43
3331.42
3012.82
2661.4
2278.27
1861.72
1406
904.509
364.399
2032.3
2425.06
2796.33
3140.67
3452.96
3728.56
3963.35
4153.8
4297.04
4390.92
4434.02
4425.72
4366.21
4256.47
4098.3
3894.24
3647.45
3361.41
3039.55
2684.69
2297.97
1877.67
1417.91
911.913
366.889
2004.05
2392.54
2759.83
3100.54
3409.62
3682.47
3915.01
4103.74
4245.82
4339.12
4382.24
4374.56
4316.24
4208.27
4052.42
3851.2
3607.69
3325.29
3007.37
2656.65
2274.26
1858.49
1403.6
903.024
363.892
2004.05
2392.54
2759.83
3100.54
3409.62
3682.47
3915.01
4103.74
4245.82
4339.13
4382.24
4374.56
4316.24
4208.27
4052.42
3851.2
3607.69
3325.29
3007.37
2656.65
2274.26
1858.49
1403.6
903.024
363.892
2032.3
2425.06
2796.33
3140.67
3452.96
3728.56
3963.35
4153.8
4297.04
4390.92
4434.02
4425.72
4366.21
4256.46
4098.29
3894.24
3647.45
3361.41
3039.55
2684.69
2297.97
1877.67
1417.91
911.912
366.889
)
;

boundaryField
{
    outletCentralUnloaded
    {
        type            zeroGradient;
    }
    inletCentralUnloaded
    {
        type            zeroGradient;
    }
    outletFuelElement
    {
        type            zeroGradient;
    }
    inletFuelElement
    {
        type            zeroGradient;
    }
    defaultFaces
    {
        type            zeroGradient;
    }
    baffle_master
    {
        type            zeroGradient;
    }
    baffle_slave
    {
        type            zeroGradient;
    }
}


// ************************************************************************* //
