/*--------------------------------*- C++ -*----------------------------------*\
| =========                 |                                                 |
| \\      /  F ield         | OpenFOAM: The Open Source CFD Toolbox           |
|  \\    /   O peration     | Version:  2212                                  |
|   \\  /    A nd           | Website:  www.openfoam.com                      |
|    \\/     M anipulation  |                                                 |
\*---------------------------------------------------------------------------*/
FoamFile
{
    version     2.0;
    format      ascii;
    arch        "LSB;label=32;scalar=64";
    class       volScalarField;
    location    "50/fluidRegion";
    object      alphat;
}
// * * * * * * * * * * * * * * * * * * * * * * * * * * * * * * * * * * * * * //

dimensions      [1 -1 -1 0 0 0 0];

internalField   nonuniform List<scalar> 
350
(
0.00258572
0.00258575
0.00258577
0.00258576
0.00258573
0.00258568
0.00258563
0.0025856
0.00258558
0.00258559
0.00258562
0.00258567
0.00258573
0.00258582
0.00258594
0.00258614
0.00258644
0.0025869
0.00258761
0.00258868
0.0025903
0.00259277
0.00259654
0.00260228
0.00261105
0.00258572
0.00258575
0.00258577
0.00258576
0.00258573
0.00258568
0.00258563
0.0025856
0.00258558
0.00258559
0.00258562
0.00258567
0.00258573
0.00258582
0.00258594
0.00258614
0.00258644
0.0025869
0.00258761
0.00258868
0.0025903
0.00259277
0.00259654
0.00260228
0.00261105
0.00089582
0.000884204
0.000872786
0.000861209
0.000849366
0.000837152
0.000824462
0.000811197
0.000797272
0.000782623
0.000767217
0.000751063
0.000734202
0.000716705
0.000698652
0.000680138
0.00066134
0.000642714
0.00062544
0.000612357
0.000609858
0.000631326
0.000699558
0.00083224
0.00100206
0.000887968
0.000876365
0.000864983
0.000853448
0.000841656
0.0008295
0.000816875
0.000803682
0.000789832
0.000775263
0.000759944
0.000743886
0.000727142
0.000709792
0.000691931
0.000673661
0.00065516
0.000636869
0.000619947
0.000607205
0.000605021
0.000626817
0.000695613
0.000829547
0.00100132
0.000897073
0.000885444
0.000874016
0.000862427
0.000850571
0.000838343
0.000825638
0.000812357
0.000798415
0.000783749
0.000768325
0.000752149
0.000735263
0.000717736
0.000699646
0.000681087
0.000662235
0.000643548
0.000626211
0.000613063
0.000610502
0.000631909
0.000700058
0.000832584
0.00100219
0.00088977
0.000878169
0.000866782
0.00085524
0.000843439
0.000831271
0.000818633
0.000805425
0.000791559
0.000776972
0.000761633
0.000745552
0.00072878
0.000711396
0.00069349
0.000675164
0.000656594
0.000638225
0.000621222
0.0006084
0.000606143
0.000627864
0.000696529
0.000830174
0.00100149
0.00088977
0.000878169
0.000866782
0.00085524
0.000843439
0.000831271
0.000818633
0.000805425
0.000791559
0.000776972
0.000761633
0.000745552
0.00072878
0.000711396
0.00069349
0.000675164
0.000656593
0.000638225
0.000621222
0.0006084
0.000606143
0.000627863
0.000696529
0.000830175
0.00100149
0.000897073
0.000885443
0.000874016
0.000862427
0.000850571
0.000838343
0.000825638
0.000812357
0.000798415
0.000783748
0.000768324
0.000752148
0.000735263
0.000717736
0.000699646
0.000681086
0.000662234
0.000643547
0.000626209
0.00061306
0.000610499
0.000631904
0.000700052
0.000832578
0.00100218
0.000887968
0.000876365
0.000864983
0.000853448
0.000841656
0.0008295
0.000816875
0.000803682
0.000789832
0.000775263
0.000759944
0.000743886
0.000727142
0.000709792
0.000691931
0.000673661
0.00065516
0.000636869
0.000619947
0.000607205
0.000605021
0.000626817
0.000695613
0.000829548
0.00100132
0.00089582
0.000884204
0.000872786
0.000861209
0.000849366
0.000837152
0.000824462
0.000811197
0.000797272
0.000782623
0.000767217
0.000751063
0.000734202
0.000716705
0.000698651
0.000680138
0.000661339
0.000642713
0.000625439
0.000612355
0.000609855
0.000631321
0.000699549
0.000832226
0.00100204
0.00088977
0.000878169
0.000866782
0.00085524
0.000843439
0.000831271
0.000818633
0.000805425
0.000791559
0.000776972
0.000761633
0.000745552
0.00072878
0.000711396
0.00069349
0.000675164
0.000656593
0.000638225
0.000621222
0.0006084
0.000606143
0.000627862
0.000696526
0.000830169
0.00100148
0.000897073
0.000885444
0.000874016
0.000862427
0.000850571
0.000838343
0.000825638
0.000812357
0.000798415
0.000783749
0.000768325
0.000752149
0.000735263
0.000717737
0.000699646
0.000681087
0.000662236
0.000643549
0.000626213
0.000613066
0.000610508
0.000631919
0.000700076
0.000832613
0.00100222
0.000897073
0.000885444
0.000874016
0.000862427
0.000850571
0.000838343
0.000825638
0.000812357
0.000798415
0.000783748
0.000768324
0.000752148
0.000735263
0.000717736
0.000699646
0.000681086
0.000662234
0.000643547
0.000626208
0.00061306
0.000610498
0.000631904
0.000700053
0.000832583
0.00100219
0.000889771
0.000878169
0.000866782
0.00085524
0.000843439
0.000831272
0.000818633
0.000805425
0.000791559
0.000776972
0.000761633
0.000745552
0.00072878
0.000711396
0.00069349
0.000675164
0.000656593
0.000638224
0.00062122
0.000608397
0.000606138
0.000627855
0.000696514
0.000830151
0.00100146
)
;

boundaryField
{
    outletCentralUnloaded
    {
        type            zeroGradient;
    }
    inletCentralUnloaded
    {
        type            zeroGradient;
    }
    outletFuelElement
    {
        type            zeroGradient;
    }
    inletFuelElement
    {
        type            zeroGradient;
    }
    defaultFaces
    {
        type            zeroGradient;
    }
    baffle_master
    {
        type            calculated;
        value           nonuniform List<scalar> 
150
(
0.00258572
0.00258572
0.00258572
0.00258575
0.00258575
0.00258575
0.00258577
0.00258577
0.00258577
0.00258576
0.00258576
0.00258576
0.00258573
0.00258573
0.00258573
0.00258568
0.00258568
0.00258568
0.00258563
0.00258563
0.00258563
0.0025856
0.0025856
0.0025856
0.00258558
0.00258558
0.00258558
0.00258559
0.00258559
0.00258559
0.00258562
0.00258562
0.00258562
0.00258567
0.00258567
0.00258567
0.00258573
0.00258573
0.00258573
0.00258582
0.00258582
0.00258582
0.00258594
0.00258594
0.00258594
0.00258614
0.00258614
0.00258614
0.00258644
0.00258644
0.00258644
0.0025869
0.0025869
0.0025869
0.00258761
0.00258761
0.00258761
0.00258868
0.00258868
0.00258868
0.0025903
0.0025903
0.0025903
0.00259277
0.00259277
0.00259277
0.00259654
0.00259654
0.00259654
0.00260228
0.00260228
0.00260228
0.00261105
0.00261105
0.00261105
0.00258572
0.00258572
0.00258572
0.00258575
0.00258575
0.00258575
0.00258577
0.00258577
0.00258577
0.00258576
0.00258576
0.00258576
0.00258573
0.00258573
0.00258573
0.00258568
0.00258568
0.00258568
0.00258563
0.00258563
0.00258563
0.0025856
0.0025856
0.0025856
0.00258558
0.00258558
0.00258558
0.00258559
0.00258559
0.00258559
0.00258562
0.00258562
0.00258562
0.00258567
0.00258567
0.00258567
0.00258573
0.00258573
0.00258573
0.00258582
0.00258582
0.00258582
0.00258594
0.00258594
0.00258594
0.00258614
0.00258614
0.00258614
0.00258644
0.00258644
0.00258644
0.0025869
0.0025869
0.0025869
0.00258761
0.00258761
0.00258761
0.00258868
0.00258868
0.00258868
0.0025903
0.0025903
0.0025903
0.00259277
0.00259277
0.00259277
0.00259654
0.00259654
0.00259654
0.00260228
0.00260228
0.00260228
0.00261105
0.00261105
0.00261105
)
;
    }
    baffle_slave
    {
        type            calculated;
        value           nonuniform List<scalar> 
150
(
0.000887968
0.00088977
0.000889771
0.000876365
0.000878169
0.000878169
0.000864983
0.000866782
0.000866782
0.000853448
0.00085524
0.00085524
0.000841656
0.000843439
0.000843439
0.0008295
0.000831271
0.000831272
0.000816875
0.000818633
0.000818633
0.000803682
0.000805425
0.000805425
0.000789832
0.000791559
0.000791559
0.000775263
0.000776972
0.000776972
0.000759944
0.000761633
0.000761633
0.000743886
0.000745552
0.000745552
0.000727142
0.00072878
0.00072878
0.000709792
0.000711396
0.000711396
0.000691931
0.00069349
0.00069349
0.000673661
0.000675164
0.000675164
0.00065516
0.000656594
0.000656593
0.000636869
0.000638225
0.000638224
0.000619947
0.000621222
0.00062122
0.000607205
0.0006084
0.000608397
0.000605021
0.000606143
0.000606138
0.000626817
0.000627864
0.000627855
0.000695613
0.000696529
0.000696514
0.000829547
0.000830174
0.000830151
0.00100132
0.00100149
0.00100146
0.00088977
0.000887968
0.00088977
0.000878169
0.000876365
0.000878169
0.000866782
0.000864983
0.000866782
0.00085524
0.000853448
0.00085524
0.000843439
0.000841656
0.000843439
0.000831271
0.0008295
0.000831271
0.000818633
0.000816875
0.000818633
0.000805425
0.000803682
0.000805425
0.000791559
0.000789832
0.000791559
0.000776972
0.000775263
0.000776972
0.000761633
0.000759944
0.000761633
0.000745552
0.000743886
0.000745552
0.00072878
0.000727142
0.00072878
0.000711396
0.000709792
0.000711396
0.00069349
0.000691931
0.00069349
0.000675164
0.000673661
0.000675164
0.000656593
0.00065516
0.000656593
0.000638225
0.000636869
0.000638225
0.000621222
0.000619947
0.000621222
0.0006084
0.000607205
0.0006084
0.000606143
0.000605021
0.000606143
0.000627863
0.000626817
0.000627862
0.000696529
0.000695613
0.000696526
0.000830175
0.000829548
0.000830169
0.00100149
0.00100132
0.00100148
)
;
    }
}


// ************************************************************************* //
