/*--------------------------------*- C++ -*----------------------------------*\
| =========                 |                                                 |
| \\      /  F ield         | OpenFOAM: The Open Source CFD Toolbox           |
|  \\    /   O peration     | Version:  2212                                  |
|   \\  /    A nd           | Website:  www.openfoam.com                      |
|    \\/     M anipulation  |                                                 |
\*---------------------------------------------------------------------------*/
FoamFile
{
    version     2.0;
    format      ascii;
    arch        "LSB;label=32;scalar=64";
    class       volScalarField;
    location    "50/fluidRegion";
    object      epsilon;
}
// * * * * * * * * * * * * * * * * * * * * * * * * * * * * * * * * * * * * * //

dimensions      [0 2 -3 0 0 0 0];

internalField   nonuniform List<scalar> 
350
(
66.9845
66.9678
66.9512
66.9347
66.9183
66.9019
66.8855
66.8692
66.8529
66.8369
66.8211
66.8056
66.7908
66.7769
66.7645
66.7545
66.7483
66.7478
66.7562
66.7779
66.82
66.8931
67.0132
67.2053
67.5071
66.9845
66.9678
66.9512
66.9347
66.9183
66.9019
66.8855
66.8692
66.8529
66.8369
66.8211
66.8056
66.7908
66.7769
66.7645
66.7545
66.7483
66.7478
66.7562
66.7779
66.82
66.8931
67.0132
67.2053
67.5071
7.6356e+06
7.02753e+06
6.35422e+06
5.63673e+06
4.90291e+06
4.17827e+06
3.48498e+06
2.84107e+06
2.26004e+06
1.75077e+06
1.31759e+06
960660
676463
458464
297930
184870
109027
60785.4
31850.2
15603.1
7146.08
3115.58
1385.36
735.647
547.172
7.80082e+06
7.18106e+06
6.49469e+06
5.7627e+06
5.01361e+06
4.27353e+06
3.56513e+06
2.90692e+06
2.31277e+06
1.7918e+06
1.34852e+06
983154
692175
468949
304577
188848
111258
61947.1
32404.6
15841.1
7235.56
3143.9
1392.53
737.089
547.595
7.60857e+06
7.00235e+06
6.33128e+06
5.61624e+06
4.88497e+06
4.1629e+06
3.47209e+06
2.83051e+06
2.25162e+06
1.74424e+06
1.31269e+06
957105
673987
456814
296885
184245
108676
60601.6
31761.6
15564.2
7130.87
3110.31
1383.72
735.156
546.995
7.76423e+06
7.14699e+06
6.46343e+06
5.7346e+06
4.98886e+06
4.25218e+06
3.54713e+06
2.8921e+06
2.30088e+06
1.78253e+06
1.34151e+06
978049
688602
466560
303060
187939
110748
61681.3
32277.8
15786.7
7215.16
3137.49
1390.94
736.791
547.516
7.76423e+06
7.14699e+06
6.46343e+06
5.7346e+06
4.98886e+06
4.25218e+06
3.54713e+06
2.8921e+06
2.30088e+06
1.78253e+06
1.34151e+06
978049
688602
466560
303060
187939
110748
61681.3
32277.8
15786.7
7215.16
3137.49
1390.94
736.79
547.515
7.60858e+06
7.00236e+06
6.33129e+06
5.61625e+06
4.88497e+06
4.1629e+06
3.47209e+06
2.83052e+06
2.25163e+06
1.74424e+06
1.31269e+06
957107
673988
456815
296886
184245
108676
60601.7
31761.6
15564.3
7130.87
3110.31
1383.72
735.154
546.995
7.80082e+06
7.18106e+06
6.49469e+06
5.7627e+06
5.01361e+06
4.27353e+06
3.56513e+06
2.90692e+06
2.31277e+06
1.7918e+06
1.34852e+06
983154
692175
468949
304577
188848
111258
61947.2
32404.6
15841.1
7235.56
3143.9
1392.53
737.089
547.594
7.6356e+06
7.02753e+06
6.35422e+06
5.63673e+06
4.90291e+06
4.17827e+06
3.48498e+06
2.84107e+06
2.26004e+06
1.75077e+06
1.31759e+06
960660
676463
458464
297930
184870
109027
60785.4
31850.2
15603.1
7146.09
3115.58
1385.36
735.65
547.175
7.76423e+06
7.14699e+06
6.46343e+06
5.7346e+06
4.98886e+06
4.25218e+06
3.54713e+06
2.8921e+06
2.30088e+06
1.78253e+06
1.34151e+06
978049
688602
466560
303060
187939
110748
61681.3
32277.8
15786.7
7215.16
3137.49
1390.94
736.792
547.516
7.60857e+06
7.00235e+06
6.33128e+06
5.61624e+06
4.88497e+06
4.1629e+06
3.47209e+06
2.83051e+06
2.25162e+06
1.74424e+06
1.31269e+06
957105
673987
456815
296886
184245
108676
60601.6
31761.6
15564.2
7130.86
3110.3
1383.72
735.151
546.991
7.60858e+06
7.00236e+06
6.33129e+06
5.61625e+06
4.88497e+06
4.1629e+06
3.47209e+06
2.83052e+06
2.25163e+06
1.74424e+06
1.31269e+06
957107
673988
456815
296886
184245
108676
60601.7
31761.6
15564.3
7130.87
3110.31
1383.72
735.153
546.994
7.76423e+06
7.14699e+06
6.46343e+06
5.7346e+06
4.98886e+06
4.25218e+06
3.54713e+06
2.8921e+06
2.30088e+06
1.78253e+06
1.34151e+06
978049
688602
466560
303060
187939
110748
61681.3
32277.8
15786.7
7215.17
3137.49
1390.94
736.796
547.52
)
;

boundaryField
{
    outletCentralUnloaded
    {
        type            zeroGradient;
    }
    inletCentralUnloaded
    {
        type            zeroGradient;
    }
    outletFuelElement
    {
        type            zeroGradient;
    }
    inletFuelElement
    {
        type            zeroGradient;
    }
    defaultFaces
    {
        type            zeroGradient;
    }
    baffle_master
    {
        type            zeroGradient;
    }
    baffle_slave
    {
        type            zeroGradient;
    }
}


// ************************************************************************* //
