/*--------------------------------*- C++ -*----------------------------------*\
| =========                 |                                                 |
| \\      /  F ield         | OpenFOAM: The Open Source CFD Toolbox           |
|  \\    /   O peration     | Version:  2212                                  |
|   \\  /    A nd           | Website:  www.openfoam.com                      |
|    \\/     M anipulation  |                                                 |
\*---------------------------------------------------------------------------*/
FoamFile
{
    version     2.0;
    format      ascii;
    arch        "LSB;label=32;scalar=64";
    class       volScalarField;
    location    "50/fluidRegion";
    object      htc;
}
// * * * * * * * * * * * * * * * * * * * * * * * * * * * * * * * * * * * * * //

dimensions      [1 0 -3 -1 0 0 0];

internalField   nonuniform List<scalar> 
350
(
3101.44
3101.45
3101.46
3101.45
3101.43
3101.4
3101.39
3101.42
3101.47
3101.53
3101.56
3101.56
3101.54
3101.51
3101.52
3101.56
3101.63
3101.7
3101.74
3101.74
3101.72
3101.69
3101.68
3101.7
3106.9
3101.44
3101.45
3101.46
3101.45
3101.43
3101.4
3101.39
3101.42
3101.47
3101.53
3101.56
3101.56
3101.54
3101.51
3101.52
3101.56
3101.63
3101.7
3101.74
3101.74
3101.72
3101.69
3101.68
3101.7
3106.9
27239.5
27158.6
26972
26660.5
26225.3
25668.6
24993.3
24203.3
23303.8
22301.8
21207
20031.8
18791.4
17502.6
16181.8
14842.9
13496.4
12150.2
10813.6
9502.59
8245.36
7088.42
6102.92
5382.58
4943.41
27328.4
27247.1
27061.2
26749.6
26313.9
25756.3
25079.4
24287
23384.2
22377.9
21277.5
20095.3
18846.8
17549.2
16219.9
14873.4
13520.4
12168.8
10827.6
9512.15
8250.34
7088.93
6099.88
5378.34
4941.44
27225.5
27144.1
26957.6
26646
26210.9
25654.5
24979.5
24189.9
23290.9
22289.7
21195.8
20021.8
18782.6
17495.1
16175.6
14837.9
13492.3
12146.9
10810.9
9500.58
8243.96
7087.59
6102.51
5382.32
4943.26
27308.7
27227.5
27041.4
26729.8
26294.2
25736.7
25060.1
24268.2
23366.2
22360.8
21261.6
20080.9
18834.2
17538.7
16211.3
14866.5
13515
12164.7
10824.5
9510.05
8249.29
7088.91
6100.69
5379.44
4941.96
27308.7
27227.5
27041.4
26729.8
26294.2
25736.7
25060.1
24268.2
23366.2
22360.8
21261.6
20080.9
18834.2
17538.7
16211.3
14866.5
13515
12164.7
10824.5
9510.05
8249.29
7088.91
6100.69
5379.44
4941.96
27225.5
27144.1
26957.6
26646
26210.9
25654.5
24979.5
24189.9
23290.9
22289.7
21195.9
20021.8
18782.6
17495.1
16175.6
14837.9
13492.3
12146.9
10810.9
9500.57
8243.95
7087.58
6102.5
5382.31
4943.26
27328.4
27247.1
27061.2
26749.6
26313.9
25756.3
25079.4
24287
23384.2
22377.9
21277.5
20095.3
18846.8
17549.2
16219.9
14873.4
13520.4
12168.8
10827.6
9512.15
8250.34
7088.92
6099.88
5378.34
4941.44
27239.5
27158.6
26972
26660.5
26225.3
25668.6
24993.3
24203.3
23303.8
22301.8
21207
20031.8
18791.4
17502.6
16181.8
14842.9
13496.4
12150.2
10813.6
9502.59
8245.36
7088.42
6102.92
5382.58
4943.41
27308.7
27227.5
27041.4
26729.8
26294.2
25736.7
25060.1
24268.2
23366.2
22360.8
21261.6
20080.9
18834.2
17538.7
16211.3
14866.5
13515
12164.7
10824.5
9510.05
8249.29
7088.91
6100.69
5379.44
4941.96
27225.5
27144.1
26957.6
26646
26210.9
25654.5
24979.5
24189.9
23290.9
22289.7
21195.8
20021.8
18782.6
17495.1
16175.6
14837.9
13492.3
12146.9
10810.9
9500.58
8243.96
7087.59
6102.51
5382.32
4943.26
27225.5
27144.1
26957.6
26646
26210.9
25654.5
24979.5
24189.9
23290.9
22289.7
21195.9
20021.8
18782.6
17495.1
16175.6
14837.9
13492.3
12146.9
10810.9
9500.57
8243.95
7087.58
6102.5
5382.31
4943.26
27308.7
27227.5
27041.4
26729.8
26294.2
25736.7
25060.1
24268.2
23366.1
22360.8
21261.6
20080.9
18834.2
17538.7
16211.3
14866.5
13515
12164.7
10824.5
9510.05
8249.29
7088.91
6100.69
5379.44
4941.96
)
;

boundaryField
{
    outletCentralUnloaded
    {
        type            zeroGradient;
    }
    inletCentralUnloaded
    {
        type            zeroGradient;
    }
    outletFuelElement
    {
        type            zeroGradient;
    }
    inletFuelElement
    {
        type            zeroGradient;
    }
    defaultFaces
    {
        type            zeroGradient;
    }
    baffle_master
    {
        type            zeroGradient;
    }
    baffle_slave
    {
        type            zeroGradient;
    }
}


// ************************************************************************* //
