/*--------------------------------*- C++ -*----------------------------------*\
| =========                 |                                                 |
| \\      /  F ield         | OpenFOAM: The Open Source CFD Toolbox           |
|  \\    /   O peration     | Version:  2212                                  |
|   \\  /    A nd           | Website:  www.openfoam.com                      |
|    \\/     M anipulation  |                                                 |
\*---------------------------------------------------------------------------*/
FoamFile
{
    version     2.0;
    format      ascii;
    arch        "LSB;label=32;scalar=64";
    class       volScalarField;
    location    "50/fluidRegion";
    object      Tci.nuclearFuelPin;
}
// * * * * * * * * * * * * * * * * * * * * * * * * * * * * * * * * * * * * * //

dimensions      [0 0 0 1 0 0 0];

internalField   nonuniform List<scalar> 
350
(
0
0
0
0
0
0
0
0
0
0
0
0
0
0
0
0
0
0
0
0
0
0
0
0
0
0
0
0
0
0
0
0
0
0
0
0
0
0
0
0
0
0
0
0
0
0
0
0
0
0
1850.03
1900.35
1937.44
1961.1
1971.28
1968.09
1951.8
1922.83
1881.77
1829.36
1766.5
1694.23
1613.73
1526.33
1433.48
1336.69
1237.38
1136.72
1035.2
932.116
824.695
706.801
567.872
396.03
193.094
1878.51
1929.58
1967.19
1991.15
2001.39
1998.02
1981.32
1951.72
1909.83
1856.39
1792.31
1718.65
1636.62
1547.56
1452.94
1354.29
1253.1
1150.59
1047.31
942.596
833.673
714.326
573.779
399.852
194.385
1845.41
1895.63
1932.65
1956.28
1966.48
1963.33
1947.12
1918.26
1877.35
1825.12
1762.46
1690.41
1610.17
1523.04
1430.48
1333.97
1234.97
1134.59
1033.35
930.52
823.336
705.673
566.999
395.469
192.897
1872.1
1922.99
1960.46
1984.33
1994.55
1991.21
1974.59
1945.12
1903.41
1850.19
1786.39
1713.04
1631.36
1542.67
1448.45
1350.23
1249.47
1147.39
1044.51
940.173
831.596
712.584
572.41
398.966
194.087
1872.1
1922.99
1960.46
1984.33
1994.55
1991.21
1974.59
1945.12
1903.41
1850.19
1786.39
1713.04
1631.36
1542.67
1448.45
1350.23
1249.47
1147.39
1044.51
940.173
831.596
712.584
572.411
398.966
194.087
1845.41
1895.63
1932.65
1956.28
1966.48
1963.33
1947.12
1918.26
1877.35
1825.12
1762.46
1690.42
1610.17
1523.04
1430.48
1333.98
1234.97
1134.6
1033.35
930.521
823.336
705.674
567
395.47
192.897
1878.51
1929.58
1967.19
1991.15
2001.39
1998.02
1981.32
1951.72
1909.83
1856.39
1792.31
1718.65
1636.62
1547.56
1452.94
1354.29
1253.1
1150.59
1047.31
942.596
833.673
714.326
573.779
399.852
194.385
1850.03
1900.35
1937.44
1961.1
1971.28
1968.09
1951.8
1922.83
1881.77
1829.36
1766.5
1694.23
1613.73
1526.33
1433.48
1336.69
1237.38
1136.72
1035.2
932.116
824.695
706.801
567.872
396.03
193.094
1872.1
1922.99
1960.46
1984.33
1994.55
1991.21
1974.59
1945.12
1903.41
1850.19
1786.39
1713.04
1631.36
1542.67
1448.45
1350.23
1249.47
1147.39
1044.51
940.173
831.596
712.584
572.411
398.966
194.087
1845.41
1895.63
1932.65
1956.28
1966.48
1963.33
1947.12
1918.26
1877.35
1825.12
1762.46
1690.42
1610.17
1523.04
1430.48
1333.97
1234.97
1134.59
1033.35
930.52
823.336
705.673
566.999
395.469
192.897
1845.41
1895.63
1932.65
1956.28
1966.48
1963.33
1947.12
1918.26
1877.35
1825.12
1762.46
1690.42
1610.17
1523.04
1430.48
1333.98
1234.97
1134.59
1033.35
930.521
823.336
705.674
567
395.47
192.897
1872.1
1922.99
1960.46
1984.33
1994.55
1991.21
1974.59
1945.12
1903.41
1850.19
1786.39
1713.04
1631.36
1542.67
1448.45
1350.23
1249.47
1147.39
1044.51
940.173
831.596
712.584
572.411
398.965
194.087
)
;

boundaryField
{
    outletCentralUnloaded
    {
        type            zeroGradient;
    }
    inletCentralUnloaded
    {
        type            zeroGradient;
    }
    outletFuelElement
    {
        type            zeroGradient;
    }
    inletFuelElement
    {
        type            zeroGradient;
    }
    defaultFaces
    {
        type            zeroGradient;
    }
    baffle_master
    {
        type            zeroGradient;
    }
    baffle_slave
    {
        type            zeroGradient;
    }
}


// ************************************************************************* //
