/*--------------------------------*- C++ -*----------------------------------*\
| =========                 |                                                 |
| \\      /  F ield         | OpenFOAM: The Open Source CFD Toolbox           |
|  \\    /   O peration     | Version:  2212                                  |
|   \\  /    A nd           | Website:  www.openfoam.com                      |
|    \\/     M anipulation  |                                                 |
\*---------------------------------------------------------------------------*/
FoamFile
{
    version     2.0;
    format      ascii;
    arch        "LSB;label=32;scalar=64";
    class       volScalarField;
    location    "50/fluidRegion";
    object      Tfav.nuclearFuelPin;
}
// * * * * * * * * * * * * * * * * * * * * * * * * * * * * * * * * * * * * * //

dimensions      [0 0 0 1 0 0 0];

internalField   nonuniform List<scalar> 
350
(
0
0
0
0
0
0
0
0
0
0
0
0
0
0
0
0
0
0
0
0
0
0
0
0
0
0
0
0
0
0
0
0
0
0
0
0
0
0
0
0
0
0
0
0
0
0
0
0
0
0
2215.16
3002.19
3758.53
4472.65
5133.61
5731.25
6256.37
6700.87
7057.86
7321.81
7488.63
7555.75
7522.15
7388.43
7156.76
6830.83
6415.7
5917.51
5342.98
4698.95
3991.1
3222.86
2393.9
1503.42
564.671
2247.74
3043.96
3809.07
4531.39
5199.87
5804.22
6335.14
6784.44
7145.15
7411.7
7579.94
7647.28
7612.69
7476.77
7241.74
6911.34
6490.72
5986.12
5404.42
4752.56
4036.34
3259.19
2420.71
1519.92
570.21
2209.88
2995.47
3750.43
4463.26
5123.04
5719.63
6243.85
6687.59
7044
7307.55
7474.16
7541.25
7507.82
7374.45
7143.32
6818.1
6403.85
5906.66
5333.27
4690.48
3983.97
3217.14
2389.7
1500.84
563.798
2240.39
3034.48
3797.56
4517.98
5184.71
5787.5
6317.07
6765.25
7125.1
7391.04
7558.94
7626.22
7591.85
7456.43
7222.17
6892.8
6473.44
5970.31
5390.27
4740.21
4025.92
3250.82
2414.53
1516.11
568.934
2240.39
3034.48
3797.56
4517.98
5184.7
5787.5
6317.07
6765.25
7125.1
7391.04
7558.94
7626.22
7591.85
7456.43
7222.17
6892.8
6473.44
5970.31
5390.27
4740.21
4025.92
3250.82
2414.53
1516.11
568.934
2209.88
2995.47
3750.43
4463.26
5123.04
5719.63
6243.85
6687.59
7044
7307.56
7474.16
7541.26
7507.82
7374.45
7143.32
6818.1
6403.85
5906.66
5333.27
4690.48
3983.97
3217.14
2389.7
1500.84
563.798
2247.74
3043.96
3809.07
4531.39
5199.87
5804.22
6335.14
6784.44
7145.15
7411.7
7579.94
7647.28
7612.69
7476.77
7241.74
6911.34
6490.72
5986.12
5404.42
4752.56
4036.34
3259.19
2420.71
1519.92
570.21
2215.16
3002.19
3758.53
4472.65
5133.61
5731.25
6256.37
6700.86
7057.86
7321.81
7488.63
7555.75
7522.15
7388.43
7156.76
6830.83
6415.7
5917.5
5342.98
4698.95
3991.1
3222.86
2393.9
1503.42
564.671
2240.39
3034.48
3797.56
4517.98
5184.7
5787.5
6317.07
6765.25
7125.1
7391.04
7558.94
7626.22
7591.85
7456.43
7222.17
6892.8
6473.44
5970.31
5390.27
4740.21
4025.92
3250.82
2414.53
1516.11
568.934
2209.88
2995.47
3750.43
4463.26
5123.04
5719.63
6243.85
6687.59
7044
7307.55
7474.16
7541.25
7507.82
7374.45
7143.31
6818.1
6403.85
5906.66
5333.27
4690.48
3983.97
3217.14
2389.7
1500.84
563.798
2209.88
2995.47
3750.43
4463.26
5123.04
5719.63
6243.85
6687.59
7044
7307.55
7474.16
7541.26
7507.82
7374.45
7143.32
6818.1
6403.85
5906.66
5333.27
4690.48
3983.97
3217.14
2389.7
1500.84
563.798
2240.39
3034.48
3797.56
4517.98
5184.7
5787.5
6317.07
6765.25
7125.1
7391.04
7558.94
7626.22
7591.85
7456.43
7222.17
6892.8
6473.44
5970.31
5390.27
4740.21
4025.92
3250.82
2414.53
1516.11
568.934
)
;

boundaryField
{
    outletCentralUnloaded
    {
        type            zeroGradient;
    }
    inletCentralUnloaded
    {
        type            zeroGradient;
    }
    outletFuelElement
    {
        type            zeroGradient;
    }
    inletFuelElement
    {
        type            zeroGradient;
    }
    defaultFaces
    {
        type            zeroGradient;
    }
    baffle_master
    {
        type            zeroGradient;
    }
    baffle_slave
    {
        type            zeroGradient;
    }
}


// ************************************************************************* //
