/*--------------------------------*- C++ -*----------------------------------*\
| =========                 |                                                 |
| \\      /  F ield         | OpenFOAM: The Open Source CFD Toolbox           |
|  \\    /   O peration     | Version:  2212                                  |
|   \\  /    A nd           | Website:  www.openfoam.com                      |
|    \\/     M anipulation  |                                                 |
\*---------------------------------------------------------------------------*/
FoamFile
{
    version     2.0;
    format      ascii;
    arch        "LSB;label=32;scalar=64";
    class       volScalarField;
    location    "50/fluidRegion";
    object      Tfi.nuclearFuelPin;
}
// * * * * * * * * * * * * * * * * * * * * * * * * * * * * * * * * * * * * * //

dimensions      [0 0 0 1 0 0 0];

internalField   nonuniform List<scalar> 
350
(
0
0
0
0
0
0
0
0
0
0
0
0
0
0
0
0
0
0
0
0
0
0
0
0
0
0
0
0
0
0
0
0
0
0
0
0
0
0
0
0
0
0
0
0
0
0
0
0
0
0
2413.33
3601.64
4749.76
5839.97
6855.41
7780.34
8600.38
9302.78
9876.61
10312.9
10604.9
10747.9
10739.9
10581
10273.8
9823.06
9235.94
8521.25
7689.12
6750.47
5715.62
4593.17
3388.4
2106.55
767.111
2448.13
3650.24
4811.61
5914.33
6941.35
7876.74
8705.96
9416.12
9996.16
10437
10731.8
10876
10867.3
10705.9
10394.4
9937.82
9343.25
8619.68
7777.43
6827.58
5780.6
4645.19
3426.6
2129.95
774.962
2407.7
3593.83
4739.86
5828.09
6841.71
7764.99
8583.59
9284.77
9857.62
10293.2
10584.7
10727.6
10719.7
10561.2
10254.6
9804.87
9218.94
8505.66
7675.14
6738.27
5705.34
4584.95
3382.39
2102.88
765.869
2440.27
3639.18
4797.49
5897.32
6921.66
7854.62
8681.72
9390.08
9968.68
10408.5
10702.6
10846.5
10838
10677.1
10366.6
9911.39
9318.54
8597.01
7757.09
6809.82
5765.63
4633.2
3417.8
2124.56
773.154
2440.27
3639.18
4797.49
5897.32
6921.66
7854.62
8681.72
9390.08
9968.68
10408.5
10702.6
10846.5
10838
10677.1
10366.6
9911.39
9318.54
8597.01
7757.09
6809.82
5765.63
4633.21
3417.8
2124.56
773.154
2407.7
3593.83
4739.86
5828.1
6841.71
7764.99
8583.59
9284.77
9857.62
10293.2
10584.7
10727.6
10719.7
10561.2
10254.6
9804.87
9218.95
8505.66
7675.14
6738.27
5705.34
4584.95
3382.39
2102.88
765.869
2448.13
3650.24
4811.61
5914.33
6941.35
7876.74
8705.96
9416.12
9996.16
10437
10731.8
10876
10867.3
10705.9
10394.4
9937.82
9343.25
8619.68
7777.43
6827.58
5780.6
4645.19
3426.6
2129.95
774.962
2413.33
3601.64
4749.76
5839.97
6855.41
7780.34
8600.38
9302.78
9876.61
10312.9
10604.9
10747.9
10739.9
10581
10273.8
9823.06
9235.94
8521.25
7689.12
6750.47
5715.62
4593.17
3388.4
2106.55
767.111
2440.27
3639.18
4797.49
5897.32
6921.66
7854.62
8681.72
9390.08
9968.68
10408.5
10702.6
10846.5
10838
10677.1
10366.6
9911.39
9318.54
8597.01
7757.09
6809.82
5765.63
4633.21
3417.8
2124.56
773.154
2407.7
3593.83
4739.86
5828.09
6841.71
7764.99
8583.59
9284.77
9857.62
10293.2
10584.7
10727.6
10719.7
10561.2
10254.6
9804.87
9218.94
8505.66
7675.14
6738.27
5705.34
4584.95
3382.39
2102.88
765.869
2407.7
3593.83
4739.86
5828.1
6841.71
7764.99
8583.59
9284.77
9857.62
10293.2
10584.7
10727.6
10719.7
10561.2
10254.6
9804.87
9218.95
8505.66
7675.14
6738.27
5705.34
4584.95
3382.39
2102.88
765.869
2440.27
3639.18
4797.49
5897.32
6921.66
7854.62
8681.72
9390.08
9968.68
10408.5
10702.6
10846.5
10838
10677.1
10366.6
9911.39
9318.54
8597.01
7757.09
6809.82
5765.63
4633.21
3417.8
2124.56
773.154
)
;

boundaryField
{
    outletCentralUnloaded
    {
        type            zeroGradient;
    }
    inletCentralUnloaded
    {
        type            zeroGradient;
    }
    outletFuelElement
    {
        type            zeroGradient;
    }
    inletFuelElement
    {
        type            zeroGradient;
    }
    defaultFaces
    {
        type            zeroGradient;
    }
    baffle_master
    {
        type            zeroGradient;
    }
    baffle_slave
    {
        type            zeroGradient;
    }
}


// ************************************************************************* //
