/*--------------------------------*- C++ -*----------------------------------*\
| =========                 |                                                 |
| \\      /  F ield         | OpenFOAM: The Open Source CFD Toolbox           |
|  \\    /   O peration     | Version:  2212                                  |
|   \\  /    A nd           | Website:  www.openfoam.com                      |
|    \\/     M anipulation  |                                                 |
\*---------------------------------------------------------------------------*/
FoamFile
{
    version     2.0;
    format      ascii;
    arch        "LSB;label=32;scalar=64";
    class       scalarFieldField;
    location    "50/fluidRegion";
    object      Trad.nuclearFuelPin;
}
// * * * * * * * * * * * * * * * * * * * * * * * * * * * * * * * * * * * * * //


350
(
0()
0()
0()
0()
0()
0()
0()
0()
0()
0()
0()
0()
0()
0()
0()
0()
0()
0()
0()
0()
0()
0()
0()
0()
0()
0()
0()
0()
0()
0()
0()
0()
0()
0()
0()
0()
0()
0()
0()
0()
0()
0()
0()
0()
0()
0()
0()
0()
0()
0()

20
(
2413.33
2411.58
2406.33
2397.59
2385.34
2369.59
2350.33
2327.55
2301.26
2271.45
2238.11
2201.24
2160.82
2116.85
2069.33
2018.24
1850.03
1846.03
1842.15
1838.4
)


20
(
3601.64
3596.34
3580.44
3553.94
3516.84
3469.12
3410.8
3341.86
3262.31
3172.13
3071.31
2959.86
2837.76
2705.01
2561.6
2407.52
1900.35
1888.27
1876.59
1865.27
)


20
(
4749.76
4740.99
4714.69
4670.85
4609.48
4530.57
4434.11
4320.1
4188.54
4039.42
3872.73
3688.47
3486.63
3267.19
3030.17
2775.53
1937.44
1917.48
1898.16
1879.46
)


20
(
5839.97
5827.88
5791.59
5731.11
5646.44
5537.58
5404.51
5247.23
5065.75
4860.05
4630.12
4375.97
4097.57
3794.93
3468.03
3116.87
1961.1
1933.57
1906.94
1881.14
)


20
(
6855.41
6840.18
6794.48
6718.32
6611.69
6474.6
6307.02
6108.97
5880.43
5621.4
5331.87
5011.83
4661.28
4280.21
3868.61
3426.47
1971.28
1936.62
1903.09
1870.61
)


20
(
7780.34
7762.21
7707.82
7617.18
7490.28
7327.11
7127.68
6891.98
6619.99
6311.73
5967.17
5586.31
5169.14
4715.66
4225.86
3699.72
1968.09
1926.85
1886.94
1848.3
)


20
(
8600.38
8579.64
8517.43
8413.74
8268.56
8081.91
7853.77
7584.13
7273
6920.37
6526.22
6090.55
5613.36
5094.63
4534.35
3932.53
1951.8
1904.62
1858.97
1814.77
)


20
(
9302.78
9279.76
9210.7
9095.6
8934.45
8727.26
8474.01
8174.7
7829.33
7437.9
7000.38
6516.78
5987.09
5411.3
4789.41
4121.39
1922.83
1870.46
1819.79
1770.73
)


20
(
9876.61
9851.67
9776.85
9652.16
9477.58
9253.11
8978.75
8654.5
8280.35
7856.29
7382.32
6858.42
6284.6
5660.84
4987.13
4263.46
1881.77
1825.03
1770.15
1717
)


20
(
10312.9
10286.4
10207.1
10074.7
9889.47
9651.28
9360.14
9016.06
8619.03
8169.05
7666.09
7110.17
6501.27
5839.38
5124.49
4356.6
1829.36
1769.16
1710.92
1654.52
)


20
(
10604.9
10577.3
10494.6
10356.7
10163.7
9915.55
9612.23
9253.76
8840.12
8371.3
7847.31
7268.13
6633.76
5944.19
5199.41
4399.41
1766.5
1703.78
1643.11
1584.35
)


20
(
10747.9
10719.7
10635
10493.7
10296
10041.8
9731.1
9363.89
8940.16
8459.92
7923.16
7329.87
6680.04
5973.67
5210.75
4391.26
1694.23
1629.98
1567.83
1507.64
)


20
(
10739.9
10711.5
10626
10483.7
10284.4
10028.1
9714.93
9344.77
8917.65
8433.56
7892.5
7294.46
6639.43
5927.4
5158.37
4332.33
1613.73
1548.97
1486.32
1425.65
)


20
(
10581
10552.8
10468
10326.8
10129
9874.78
9564.03
9196.77
8772.99
8292.69
7755.87
7162.51
6512.62
5806.17
5043.17
4223.61
1526.33
1462.08
1399.92
1339.73
)


20
(
10273.8
10246.2
10163.4
10025.5
9832.47
9584.24
9280.85
8922.28
8508.54
8039.61
7515.49
6936.18
6301.68
5611.96
4867.03
4066.88
1433.48
1370.75
1310.07
1251.3
)


20
(
9823.06
9796.58
9717.15
9584.77
9399.44
9161.15
8869.9
8525.68
8128.5
7678.34
7175.2
6619.08
6009.98
5347.87
4632.76
3864.65
1336.69
1276.47
1218.21
1161.79
)


20
(
9235.94
9210.99
9136.13
9011.36
8836.67
8612.08
8337.57
8013.13
7638.78
7214.49
6740.28
6216.13
5642.03
5017.98
4343.98
3620.02
1237.38
1180.63
1125.72
1072.54
)


20
(
8521.25
8498.21
8429.1
8313.9
8152.63
7945.27
7691.83
7392.31
7046.69
6654.97
6217.16
5733.25
5203.22
4627.08
4004.83
3336.44
1136.72
1084.32
1033.63
984.536
)


20
(
7689.12
7668.36
7606.08
7502.29
7356.97
7170.13
6941.76
6671.87
6360.44
6007.49
5612.99
5176.95
4699.36
4180.23
3619.54
3017.28
1035.2
987.984
942.307
898.072
)


20
(
6750.47
6732.32
6677.86
6587.1
6460.03
6296.65
6096.96
5860.96
5588.64
5280.01
4935.05
4553.77
4136.15
3682.21
3191.92
2665.3
932.116
890.83
850.889
812.209
)


20
(
5715.62
5700.36
5654.58
5578.29
5471.47
5334.14
5166.28
4967.89
4738.98
4479.54
4189.57
3869.06
3518.02
3136.43
2724.3
2281.61
824.695
789.989
756.415
723.9
)


20
(
4593.17
4581.04
4544.67
4484.04
4399.17
4290.04
4156.66
3999.02
3817.13
3610.97
3380.56
3125.88
2846.94
2543.73
2216.24
1864.48
706.801
679.224
652.545
626.709
)


20
(
3388.4
3379.6
3353.2
3309.2
3247.61
3168.41
3071.61
2957.2
2825.19
2675.58
2508.35
2323.52
2121.08
1901.02
1663.35
1408.06
567.872
547.858
528.496
509.745
)


20
(
2106.55
2101.22
2085.21
2058.52
2021.16
1973.13
1914.42
1845.04
1764.98
1674.24
1572.83
1460.73
1337.96
1204.51
1060.37
905.553
396.03
383.892
372.15
360.779
)


20
(
767.111
765.319
759.944
750.986
738.444
722.319
702.612
679.321
652.448
621.993
587.955
550.335
509.134
464.351
415.987
364.043
193.094
189.021
185.082
181.267
)


20
(
2448.13
2446.36
2441.05
2432.21
2419.82
2403.9
2384.42
2361.39
2334.81
2304.66
2270.95
2233.66
2192.79
2148.33
2100.27
2048.61
1878.51
1874.46
1870.54
1866.74
)


20
(
3650.24
3644.88
3628.79
3601.99
3564.47
3516.21
3457.23
3387.51
3307.04
3215.84
3113.88
3001.16
2877.67
2743.41
2598.36
2442.53
1929.58
1917.36
1905.55
1894.1
)


20
(
4811.61
4802.74
4776.14
4731.8
4669.73
4589.92
4492.36
4377.05
4243.99
4093.17
3924.58
3738.21
3534.07
3312.13
3072.4
2814.86
1967.19
1947
1927.47
1908.55
)


20
(
5914.33
5902.1
5865.4
5804.23
5718.6
5608.49
5473.9
5314.83
5131.27
4923.22
4690.67
4433.61
4152.03
3845.93
3515.3
3160.13
1991.15
1963.3
1936.36
1910.28
)


20
(
6941.35
6925.95
6879.73
6802.7
6694.85
6556.18
6386.69
6186.38
5955.22
5693.23
5400.39
5076.7
4722.14
4336.72
3920.41
3473.21
2001.39
1966.33
1932.41
1899.56
)


20
(
7876.74
7858.4
7803.4
7711.72
7583.36
7418.33
7216.62
6978.22
6703.13
6391.33
6042.83
5657.62
5235.68
4777.02
4281.61
3749.45
1998.02
1956.3
1915.94
1876.85
)


20
(
8705.96
8684.98
8622.06
8517.18
8370.35
8181.56
7950.81
7678.09
7363.4
7006.73
6608.07
6167.42
5684.77
5160.11
4593.42
3984.71
1981.32
1933.6
1887.43
1842.72
)


20
(
9416.12
9392.84
9322.99
9206.57
9043.58
8834.01
8577.87
8275.14
7925.82
7529.9
7087.38
6598.25
6062.5
5480.12
4851.1
4175.44
1951.72
1898.75
1847.51
1797.88
)


20
(
9996.16
9970.94
9895.26
9769.14
9592.56
9365.53
9088.03
8760.07
8381.64
7952.73
7473.33
6943.44
6363.05
5732.15
5050.73
4318.78
1909.83
1852.44
1796.93
1743.17
)


20
(
10437
10410.3
10330
10196.1
10008.7
9767.83
9473.36
9125.35
8723.77
8268.64
7759.93
7197.64
6581.77
5912.31
5189.24
4412.56
1856.39
1795.5
1736.59
1679.54
)


20
(
10731.8
10704
10620.3
10480.9
10285.6
10034.6
9727.85
9365.27
8946.9
8472.72
7942.73
7356.92
6715.29
6017.83
5264.52
4455.36
1792.31
1728.87
1667.5
1608.07
)


20
(
10876
10847.4
10761.7
10618.9
10418.9
10161.8
9847.53
9476.12
9047.54
8561.8
8018.9
7418.82
6761.55
6047.09
5275.43
4446.57
1718.65
1653.67
1590.81
1529.93
)


20
(
10867.3
10838.5
10752.1
10608.1
10406.5
10147.4
9830.57
9456.17
9024.16
8534.53
7987.28
7382.39
6719.86
5999.68
5221.85
4386.35
1636.62
1571.12
1507.76
1446.39
)


20
(
10705.9
10677.3
10591.6
10448.7
10248.7
9991.59
9677.28
9305.81
8877.19
8391.39
7848.42
7248.27
6590.93
5876.4
5104.67
4275.72
1547.56
1482.57
1419.7
1358.82
)


20
(
10394.4
10366.5
10282.8
10143.4
9948.08
9697.01
9390.15
9027.47
8608.99
8134.7
7604.58
7018.64
6376.87
5679.25
4925.8
4116.48
1452.94
1389.49
1328.11
1268.66
)


20
(
9937.82
9911.04
9830.71
9696.81
9509.35
9268.33
8973.75
8625.59
8223.86
7768.55
7259.65
6697.17
6081.09
5411.4
4688.11
3911.2
1354.29
1293.38
1234.46
1177.39
)


20
(
9343.25
9318.01
9242.29
9116.09
8939.41
8712.24
8434.58
8106.44
7727.8
7298.66
6819.01
6288.86
5708.19
5077
4395.28
3663.03
1253.1
1195.7
1140.16
1086.38
)


20
(
8619.68
8596.38
8526.47
8409.96
8246.84
8037.11
7780.76
7477.81
7128.23
6732.03
6289.21
5799.75
5263.66
4680.92
4051.54
3375.51
1150.59
1097.59
1046.32
996.666
)


20
(
7777.43
7756.43
7693.44
7588.45
7441.47
7252.49
7021.51
6748.53
6433.54
6076.54
5677.52
5236.49
4753.44
4228.35
3661.24
3052.09
1047.31
999.554
953.354
908.612
)


20
(
6827.58
6809.22
6754.14
6662.34
6533.81
6368.56
6166.59
5927.88
5652.45
5340.28
4991.37
4605.72
4183.32
3724.18
3228.28
2695.63
942.596
900.837
860.439
821.315
)


20
(
5780.6
5765.17
5718.87
5641.7
5533.66
5394.75
5224.97
5024.32
4792.79
4530.37
4237.08
3912.9
3557.84
3171.88
2755.03
2307.28
833.673
798.57
764.611
731.724
)


20
(
4645.19
4632.93
4596.14
4534.82
4448.97
4338.59
4203.68
4044.24
3860.27
3651.75
3418.7
3161.11
2878.97
2572.29
2241.05
1885.27
714.326
686.433
659.449
633.317
)


20
(
3426.6
3417.7
3391
3346.5
3284.19
3204.09
3106.18
2990.46
2856.94
2705.61
2536.48
2349.53
2144.77
1922.19
1681.8
1423.59
573.779
553.536
533.952
514.987
)


20
(
2129.95
2124.56
2108.36
2081.37
2043.59
1995
1935.62
1865.45
1784.47
1692.69
1590.12
1476.74
1352.56
1217.58
1071.8
915.208
399.852
387.576
375.7
364.198
)


20
(
774.962
773.15
767.714
758.653
745.968
729.659
709.727
686.17
658.99
628.187
593.76
555.71
514.038
468.744
419.827
367.288
194.385
190.266
186.282
182.423
)


20
(
2407.7
2405.95
2400.71
2391.98
2379.76
2364.03
2344.8
2322.07
2295.83
2266.07
2232.79
2195.98
2155.64
2111.75
2064.31
2013.32
1845.41
1841.41
1837.54
1833.8
)


20
(
3593.83
3588.54
3572.67
3546.22
3509.18
3461.55
3403.34
3334.53
3255.11
3165.09
3064.46
2953.21
2831.34
2698.83
2555.68
2401.87
1895.63
1883.57
1871.91
1860.61
)


20
(
4739.86
4731.1
4704.85
4661.1
4599.83
4521.06
4424.78
4310.98
4179.66
4030.81
3864.42
3680.5
3479.02
3259.99
3023.39
2769.22
1932.65
1912.72
1893.45
1874.78
)


20
(
5828.09
5816.02
5779.8
5719.44
5634.92
5526.25
5393.42
5236.44
5055.28
4849.95
4620.45
4366.75
4088.86
3786.77
3460.47
3109.95
1956.28
1928.8
1902.22
1876.47
)


20
(
6841.71
6826.51
6780.89
6704.87
6598.44
6461.59
6294.32
6096.62
5868.5
5609.94
5320.94
5001.49
4651.58
4271.2
3860.35
3419.01
1966.48
1931.88
1898.4
1865.99
)


20
(
7764.99
7746.89
7692.61
7602.13
7475.46
7312.59
7113.52
6878.25
6606.76
6299.05
5955.12
5574.95
5158.55
4705.89
4216.98
3691.8
1963.33
1922.16
1882.33
1843.75
)


20
(
8583.59
8562.89
8500.79
8397.28
8252.38
8066.06
7838.33
7569.19
7258.63
6906.63
6513.2
6078.33
5602
5084.22
4524.97
3924.24
1947.12
1900.02
1854.46
1810.34
)


20
(
9284.77
9261.79
9192.86
9077.96
8917.11
8710.29
8457.5
8158.74
7814
7423.28
6986.56
6503.85
5975.12
5400.38
4779.61
4112.82
1918.26
1865.99
1815.41
1766.44
)


20
(
9857.62
9832.73
9758.05
9633.58
9459.31
9235.26
8961.4
8637.74
8264.27
7840.98
7367.87
6844.93
6272.15
5649.53
4977.05
4254.7
1877.35
1820.72
1765.93
1712.88
)


20
(
10293.2
10266.8
10187.5
10055.5
9870.54
9632.78
9342.17
8998.72
8602.41
8153.25
7651.21
7096.3
6488.51
5827.83
5114.24
4347.75
1825.12
1765.03
1706.89
1650.59
)


20
(
10584.7
10557.2
10474.6
10337
10144.4
9896.65
9593.89
9236.07
8823.18
8355.22
7832.19
7254.07
6620.85
5932.54
5189.11
4390.57
1762.46
1699.86
1639.29
1580.64
)


20
(
10727.6
10699.4
10614.9
10473.9
10276.5
10022.8
9712.64
9346.1
8923.14
8443.78
7908
7315.79
6667.14
5962.06
5200.53
4382.54
1690.41
1626.29
1564.25
1504.17
)


20
(
10719.7
10691.3
10606.1
10464
10265
10009.2
9696.6
9327.12
8900.78
8417.57
7877.49
7280.54
6626.71
5915.98
5148.35
4323.82
1610.17
1545.53
1482.99
1422.43
)


20
(
10561.2
10533
10448.4
10307.4
10110.1
9856.27
9546.09
9179.49
8756.49
8277.07
7741.22
7148.95
6500.23
5795.08
5033.47
4215.4
1523.04
1458.91
1396.86
1336.78
)


20
(
10254.6
10227.1
10144.5
10006.9
9814.15
9566.38
9263.53
8905.62
8492.63
8024.56
7501.4
6923.15
6289.79
5601.33
4857.76
4059.07
1430.48
1367.86
1307.29
1248.62
)


20
(
9804.87
9778.45
9699.16
9567.02
9382.03
9144.17
8853.45
8509.86
8113.4
7664.06
7161.85
6606.74
5998.74
5337.84
4624.04
3857.33
1333.97
1273.87
1215.72
1159.4
)


20
(
9218.94
9194.04
9119.31
8994.77
8820.4
8596.21
8322.2
7998.36
7624.69
7201.18
6727.83
6204.63
5631.58
5008.67
4335.9
3613.26
1234.97
1178.31
1123.51
1070.43
)


20
(
8505.66
8482.66
8413.67
8298.69
8137.71
7930.73
7677.75
7378.77
7033.78
6642.79
6205.77
5722.74
5193.68
4618.59
3997.47
3330.31
1134.59
1082.29
1031.69
982.688
)


20
(
7675.14
7654.42
7592.25
7488.64
7343.59
7157.09
6929.14
6659.74
6348.88
5996.57
5602.79
5167.55
4690.83
4172.64
3612.97
3011.82
1033.35
986.219
940.625
896.471
)


20
(
6738.27
6720.15
6665.79
6575.19
6448.35
6285.27
6085.95
5850.38
5578.55
5270.48
4926.15
4545.56
4128.71
3675.6
3186.21
2660.54
930.52
889.309
849.441
810.831
)


20
(
5705.34
5690.11
5644.41
5568.26
5461.64
5324.55
5157
4958.98
4730.49
4471.52
4182.08
3862.15
3511.75
3130.86
2719.47
2277.6
823.336
788.694
755.181
722.725
)


20
(
4584.95
4572.85
4536.54
4476.02
4391.3
4282.38
4149.24
3991.89
3810.33
3604.55
3374.56
3120.34
2841.91
2539.25
2212.36
1861.24
705.673
678.146
651.516
625.727
)


20
(
3382.39
3373.6
3347.25
3303.33
3241.85
3162.79
3066.17
2951.97
2820.2
2670.86
2503.94
2319.45
2117.37
1897.72
1660.48
1405.65
566.999
547.022
527.695
508.978
)


20
(
2102.88
2097.55
2081.57
2054.93
2017.64
1969.7
1911.1
1841.84
1761.92
1671.35
1570.12
1458.23
1335.68
1202.47
1058.6
904.064
395.469
383.354
371.634
360.283
)


20
(
765.869
764.081
758.715
749.773
737.254
721.159
701.487
678.239
651.415
621.015
587.039
549.488
508.362
463.66
415.384
363.534
192.897
188.832
184.899
181.091
)


20
(
2440.27
2438.5
2433.21
2424.39
2412.04
2396.15
2376.72
2353.75
2327.24
2297.17
2263.54
2226.35
2185.58
2141.23
2093.3
2041.77
1872.1
1868.06
1864.16
1860.37
)


20
(
3639.18
3633.84
3617.8
3591.07
3553.64
3505.51
3446.67
3377.13
3296.88
3205.91
3104.21
2991.79
2868.62
2734.7
2590.04
2434.6
1922.99
1910.8
1899.01
1887.6
)


20
(
4797.49
4788.65
4762.11
4717.89
4655.98
4576.37
4479.07
4364.06
4231.34
4080.91
3912.76
3726.88
3523.27
3301.91
3062.8
2805.92
1960.46
1940.32
1920.84
1901.98
)


20
(
5897.32
5885.12
5848.51
5787.51
5702.09
5592.27
5458.03
5299.37
5116.29
4908.78
4676.84
4420.44
4139.6
3834.3
3504.52
3150.27
1984.33
1956.56
1929.7
1903.68
)


20
(
6921.66
6906.29
6860.2
6783.36
6675.8
6537.49
6368.44
6168.65
5938.1
5676.79
5384.71
5061.86
4708.23
4323.8
3908.58
3462.55
1994.55
1959.58
1925.75
1892.99
)


20
(
7854.62
7836.33
7781.47
7690.03
7562.01
7397.41
7196.22
6958.44
6684.07
6373.08
6025.49
5641.28
5220.44
4762.97
4268.85
3738.08
1991.21
1949.6
1909.34
1870.36
)


20
(
8681.72
8660.8
8598.04
8493.43
8346.98
8158.69
7928.54
7656.53
7342.66
6986.91
6589.3
6149.79
5668.39
5145.1
4579.89
3972.76
1974.59
1926.99
1880.94
1836.35
)


20
(
9390.08
9366.86
9297.19
9181.07
9018.51
8809.49
8554.01
8252.07
7903.66
7508.77
7067.41
6579.55
6045.19
5464.33
4836.95
4163.05
1945.12
1892.29
1841.18
1791.68
)


20
(
9968.68
9943.52
9868.05
9742.25
9566.13
9339.69
9062.92
8735.81
8358.36
7930.57
7452.42
6923.91
6345.03
5715.77
5036.13
4306.09
1903.41
1846.17
1790.8
1737.18
)


20
(
10408.5
10381.8
10301.7
10168.2
9981.32
9741.03
9447.33
9100.22
8699.69
8245.74
7738.36
7177.54
6563.27
5895.55
5174.36
4399.71
1850.19
1789.46
1730.71
1673.81
)


20
(
10702.6
10674.8
10591.4
10452.3
10257.6
10007.2
9701.25
9339.62
8922.33
8449.39
7920.78
7336.5
6696.54
6000.9
5249.55
4442.5
1786.39
1723.12
1661.91
1602.63
)


20
(
10846.5
10818
10732.6
10590.1
10390.6
10134.2
9820.74
9450.29
9022.83
8538.36
7996.87
7398.35
6742.8
6030.2
5260.55
4433.85
1713.04
1648.23
1585.53
1524.81
)


20
(
10838
10809.3
10723.1
10579.5
10378.4
10119.9
9803.95
9430.53
8999.65
8511.29
7965.46
7362.15
6701.35
5983.05
5207.24
4373.92
1631.36
1566.03
1502.82
1441.62
)


20
(
10677.1
10648.6
10563.2
10420.7
10221.2
9964.7
9651.21
9280.71
8853.2
8368.67
7827.11
7228.53
6572.9
5860.23
5090.51
4263.73
1542.67
1477.85
1415.15
1354.42
)


20
(
10366.6
10338.8
10255.3
10116.2
9921.46
9671.05
9364.98
9003.25
8585.86
8112.8
7584.07
6999.65
6359.55
5663.76
4912.26
4105.06
1448.45
1385.17
1323.95
1264.66
)


20
(
9911.39
9884.69
9804.56
9671.01
9484.04
9243.65
8949.83
8602.58
8201.9
7747.77
7240.2
6679.18
6064.71
5396.77
4675.36
3900.47
1350.23
1289.48
1230.71
1173.79
)


20
(
9318.54
9293.36
9217.84
9091.97
8915.75
8689.17
8412.24
8084.95
7707.29
7279.27
6800.88
6272.1
5692.95
5063.4
4383.46
3653.12
1249.47
1192.22
1136.82
1083.18
)


20
(
8597.01
8573.77
8504.04
8387.83
8225.14
8015.95
7760.28
7458.11
7109.45
6714.28
6272.61
5784.43
5249.73
4668.52
4040.78
3366.5
1147.39
1094.53
1043.39
993.862
)


20
(
7757.09
7736.14
7673.32
7568.61
7422.01
7233.52
7003.14
6730.87
6416.7
6060.63
5662.65
5222.77
4740.98
4217.26
3651.63
3044.07
1044.51
996.879
950.8
906.174
)


20
(
6809.82
6791.51
6736.57
6645
6516.81
6352
6150.55
5912.47
5637.75
5326.39
4978.39
4593.75
4172.45
3714.51
3219.9
2688.63
940.173
898.523
858.23
819.208
)


20
(
5765.63
5750.24
5704.06
5627.09
5519.33
5380.79
5211.45
5011.32
4780.39
4518.66
4226.14
3902.8
3548.66
3163.71
2747.94
2301.36
831.596
796.585
762.715
729.913
)


20
(
4633.2
4620.97
4584.28
4523.12
4437.5
4327.41
4192.85
4033.82
3850.33
3642.36
3409.91
3152.99
2871.59
2565.7
2235.33
1880.47
712.584
684.764
657.85
631.786
)


20
(
3417.8
3408.92
3382.29
3337.9
3275.76
3195.86
3098.21
2982.8
2849.62
2698.69
2529.99
2343.53
2139.31
1917.31
1677.54
1420
572.41
552.22
532.688
513.771
)


20
(
2124.56
2119.18
2103.02
2076.11
2038.42
1989.96
1930.74
1860.74
1779.98
1688.44
1586.13
1473.05
1349.2
1214.57
1069.16
912.978
398.966
386.721
374.876
363.405
)


20
(
773.154
771.346
765.924
756.887
744.235
727.969
708.088
684.592
657.483
626.76
592.422
554.472
512.908
467.731
418.942
366.54
194.087
189.979
186.004
182.155
)


20
(
2440.27
2438.5
2433.21
2424.39
2412.04
2396.15
2376.72
2353.75
2327.24
2297.17
2263.54
2226.35
2185.58
2141.23
2093.3
2041.77
1872.1
1868.06
1864.16
1860.37
)


20
(
3639.18
3633.84
3617.8
3591.07
3553.64
3505.51
3446.67
3377.13
3296.88
3205.91
3104.21
2991.79
2868.62
2734.7
2590.04
2434.6
1922.99
1910.8
1899.01
1887.6
)


20
(
4797.49
4788.65
4762.11
4717.89
4655.98
4576.37
4479.07
4364.06
4231.35
4080.91
3912.76
3726.88
3523.27
3301.91
3062.8
2805.92
1960.46
1940.32
1920.84
1901.98
)


20
(
5897.32
5885.12
5848.51
5787.51
5702.09
5592.27
5458.03
5299.37
5116.29
4908.78
4676.84
4420.44
4139.6
3834.3
3504.52
3150.27
1984.33
1956.56
1929.7
1903.68
)


20
(
6921.66
6906.29
6860.19
6783.36
6675.8
6537.49
6368.44
6168.65
5938.1
5676.79
5384.71
5061.86
4708.23
4323.8
3908.58
3462.55
1994.55
1959.58
1925.75
1892.99
)


20
(
7854.62
7836.33
7781.47
7690.03
7562.01
7397.41
7196.22
6958.44
6684.07
6373.08
6025.49
5641.28
5220.44
4762.97
4268.85
3738.08
1991.21
1949.6
1909.34
1870.36
)


20
(
8681.72
8660.8
8598.04
8493.43
8346.98
8158.69
7928.54
7656.53
7342.66
6986.91
6589.3
6149.79
5668.39
5145.1
4579.89
3972.76
1974.59
1926.99
1880.94
1836.35
)


20
(
9390.08
9366.86
9297.19
9181.07
9018.51
8809.49
8554.01
8252.07
7903.66
7508.77
7067.4
6579.55
6045.19
5464.33
4836.95
4163.05
1945.12
1892.29
1841.18
1791.68
)


20
(
9968.68
9943.52
9868.05
9742.25
9566.13
9339.69
9062.92
8735.81
8358.36
7930.57
7452.42
6923.91
6345.03
5715.77
5036.13
4306.09
1903.41
1846.17
1790.8
1737.18
)


20
(
10408.5
10381.8
10301.7
10168.2
9981.32
9741.03
9447.33
9100.22
8699.69
8245.74
7738.36
7177.54
6563.27
5895.55
5174.36
4399.71
1850.19
1789.46
1730.71
1673.81
)


20
(
10702.6
10674.8
10591.4
10452.3
10257.6
10007.2
9701.25
9339.62
8922.33
8449.39
7920.78
7336.5
6696.54
6000.9
5249.55
4442.5
1786.39
1723.12
1661.91
1602.63
)


20
(
10846.5
10818
10732.6
10590.1
10390.6
10134.2
9820.74
9450.29
9022.83
8538.36
7996.87
7398.35
6742.8
6030.2
5260.55
4433.85
1713.04
1648.23
1585.53
1524.81
)


20
(
10838
10809.3
10723.1
10579.5
10378.4
10119.9
9803.95
9430.53
8999.65
8511.29
7965.46
7362.15
6701.35
5983.05
5207.24
4373.92
1631.36
1566.03
1502.82
1441.62
)


20
(
10677.1
10648.6
10563.2
10420.7
10221.2
9964.7
9651.21
9280.71
8853.2
8368.67
7827.11
7228.53
6572.9
5860.23
5090.51
4263.73
1542.67
1477.85
1415.15
1354.42
)


20
(
10366.6
10338.8
10255.3
10116.2
9921.46
9671.05
9364.98
9003.25
8585.86
8112.8
7584.07
6999.65
6359.55
5663.76
4912.26
4105.06
1448.45
1385.17
1323.95
1264.66
)


20
(
9911.39
9884.69
9804.56
9671.01
9484.04
9243.65
8949.83
8602.58
8201.9
7747.77
7240.2
6679.18
6064.71
5396.77
4675.36
3900.47
1350.23
1289.48
1230.71
1173.79
)


20
(
9318.54
9293.36
9217.84
9091.97
8915.75
8689.17
8412.24
8084.95
7707.29
7279.27
6800.88
6272.1
5692.95
5063.4
4383.46
3653.12
1249.47
1192.22
1136.82
1083.18
)


20
(
8597.01
8573.77
8504.04
8387.83
8225.14
8015.95
7760.28
7458.11
7109.45
6714.28
6272.61
5784.43
5249.73
4668.52
4040.78
3366.5
1147.39
1094.53
1043.39
993.862
)


20
(
7757.09
7736.14
7673.32
7568.61
7422.01
7233.52
7003.14
6730.87
6416.7
6060.63
5662.65
5222.77
4740.98
4217.26
3651.63
3044.07
1044.51
996.879
950.8
906.174
)


20
(
6809.82
6791.5
6736.57
6645
6516.81
6352
6150.55
5912.46
5637.75
5326.39
4978.39
4593.75
4172.45
3714.51
3219.9
2688.63
940.173
898.522
858.23
819.208
)


20
(
5765.63
5750.24
5704.06
5627.09
5519.33
5380.79
5211.45
5011.32
4780.39
4518.66
4226.14
3902.8
3548.66
3163.71
2747.94
2301.36
831.596
796.585
762.715
729.913
)


20
(
4633.21
4620.97
4584.28
4523.12
4437.5
4327.41
4192.85
4033.82
3850.33
3642.36
3409.91
3152.99
2871.59
2565.7
2235.33
1880.47
712.584
684.764
657.851
631.786
)


20
(
3417.8
3408.92
3382.29
3337.9
3275.76
3195.86
3098.21
2982.8
2849.62
2698.69
2529.99
2343.53
2139.31
1917.31
1677.54
1420
572.411
552.22
532.688
513.771
)


20
(
2124.56
2119.18
2103.02
2076.1
2038.42
1989.96
1930.74
1860.74
1779.98
1688.44
1586.13
1473.05
1349.2
1214.57
1069.16
912.978
398.966
386.721
374.876
363.404
)


20
(
773.154
771.346
765.924
756.887
744.235
727.969
708.088
684.592
657.483
626.76
592.422
554.472
512.908
467.731
418.942
366.54
194.087
189.979
186.004
182.155
)


20
(
2407.7
2405.95
2400.71
2391.98
2379.76
2364.03
2344.81
2322.07
2295.83
2266.07
2232.79
2195.98
2155.64
2111.75
2064.31
2013.32
1845.41
1841.41
1837.55
1833.8
)


20
(
3593.83
3588.54
3572.67
3546.22
3509.18
3461.55
3403.34
3334.53
3255.11
3165.1
3064.47
2953.22
2831.34
2698.83
2555.68
2401.88
1895.63
1883.57
1871.91
1860.61
)


20
(
4739.86
4731.11
4704.85
4661.1
4599.84
4521.07
4424.78
4310.98
4179.66
4030.81
3864.42
3680.5
3479.02
3259.99
3023.39
2769.22
1932.65
1912.72
1893.45
1874.78
)


20
(
5828.1
5816.02
5779.8
5719.44
5634.92
5526.25
5393.43
5236.44
5055.28
4849.96
4620.45
4366.76
4088.87
3786.77
3460.47
3109.95
1956.28
1928.8
1902.22
1876.47
)


20
(
6841.71
6826.51
6780.9
6704.87
6598.44
6461.59
6294.32
6096.63
5868.5
5609.94
5320.94
5001.49
4651.58
4271.2
3860.35
3419.01
1966.48
1931.88
1898.41
1865.99
)


20
(
7764.99
7746.89
7692.61
7602.13
7475.46
7312.59
7113.52
6878.25
6606.76
6299.05
5955.12
5574.95
5158.55
4705.9
4216.98
3691.8
1963.33
1922.16
1882.33
1843.76
)


20
(
8583.59
8562.89
8500.79
8397.28
8252.38
8066.06
7838.34
7569.19
7258.63
6906.63
6513.2
6078.33
5602
5084.22
4524.97
3924.24
1947.12
1900.02
1854.46
1810.34
)


20
(
9284.77
9261.79
9192.86
9077.96
8917.11
8710.29
8457.5
8158.74
7814.01
7423.28
6986.56
6503.85
5975.12
5400.38
4779.62
4112.82
1918.26
1865.99
1815.42
1766.44
)


20
(
9857.62
9832.73
9758.05
9633.58
9459.31
9235.26
8961.4
8637.74
8264.27
7840.98
7367.87
6844.93
6272.16
5649.53
4977.05
4254.7
1877.35
1820.72
1765.93
1712.88
)


20
(
10293.2
10266.8
10187.5
10055.5
9870.54
9632.78
9342.17
8998.72
8602.42
8153.25
7651.21
7096.3
6488.51
5827.83
5114.25
4347.76
1825.12
1765.03
1706.89
1650.6
)


20
(
10584.7
10557.2
10474.6
10337
10144.4
9896.66
9593.89
9236.07
8823.18
8355.22
7832.19
7254.07
6620.85
5932.54
5189.11
4390.57
1762.46
1699.86
1639.29
1580.64
)


20
(
10727.6
10699.4
10614.9
10473.9
10276.5
10022.8
9712.64
9346.1
8923.15
8443.78
7908
7315.79
6667.14
5962.06
5200.53
4382.54
1690.42
1626.29
1564.25
1504.17
)


20
(
10719.7
10691.3
10606.1
10464
10265
10009.2
9696.6
9327.12
8900.78
8417.57
7877.5
7280.54
6626.71
5915.98
5148.35
4323.82
1610.17
1545.53
1482.99
1422.43
)


20
(
10561.2
10533
10448.4
10307.4
10110.1
9856.27
9546.09
9179.49
8756.49
8277.07
7741.22
7148.95
6500.24
5795.08
5033.47
4215.41
1523.04
1458.91
1396.86
1336.78
)


20
(
10254.6
10227.1
10144.5
10006.9
9814.15
9566.38
9263.54
8905.62
8492.63
8024.56
7501.4
6923.15
6289.79
5601.34
4857.76
4059.07
1430.48
1367.86
1307.29
1248.62
)


20
(
9804.87
9778.45
9699.16
9567.03
9382.03
9144.17
8853.45
8509.86
8113.4
7664.06
7161.85
6606.74
5998.74
5337.85
4624.04
3857.33
1333.98
1273.87
1215.72
1159.4
)


20
(
9218.95
9194.04
9119.31
8994.77
8820.4
8596.22
8322.2
7998.36
7624.69
7201.18
6727.83
6204.63
5631.58
5008.68
4335.9
3613.26
1234.97
1178.31
1123.51
1070.43
)


20
(
8505.66
8482.66
8413.67
8298.69
8137.71
7930.73
7677.75
7378.77
7033.79
6642.79
6205.77
5722.74
5193.68
4618.59
3997.47
3330.31
1134.6
1082.29
1031.69
982.689
)


20
(
7675.14
7654.42
7592.25
7488.64
7343.59
7157.09
6929.14
6659.74
6348.88
5996.57
5602.79
5167.55
4690.83
4172.64
3612.97
3011.82
1033.35
986.219
940.626
896.472
)


20
(
6738.27
6720.15
6665.79
6575.19
6448.35
6285.27
6085.95
5850.38
5578.55
5270.48
4926.15
4545.57
4128.71
3675.6
3186.21
2660.54
930.521
889.31
849.442
810.832
)


20
(
5705.34
5690.11
5644.41
5568.26
5461.64
5324.55
5157
4958.98
4730.49
4471.52
4182.08
3862.15
3511.75
3130.86
2719.47
2277.6
823.336
788.694
755.181
722.726
)


20
(
4584.95
4572.85
4536.54
4476.03
4391.31
4282.38
4149.24
3991.89
3810.33
3604.55
3374.56
3120.35
2841.91
2539.25
2212.36
1861.25
705.674
678.147
651.517
625.728
)


20
(
3382.39
3373.6
3347.25
3303.33
3241.85
3162.79
3066.17
2951.97
2820.2
2670.86
2503.94
2319.45
2117.37
1897.72
1660.48
1405.66
567
547.022
527.696
508.979
)


20
(
2102.88
2097.55
2081.57
2054.93
2017.64
1969.7
1911.1
1841.84
1761.92
1671.35
1570.12
1458.23
1335.68
1202.47
1058.6
904.064
395.47
383.355
371.634
360.284
)


20
(
765.869
764.081
758.715
749.773
737.255
721.159
701.488
678.239
651.415
621.015
587.039
549.488
508.362
463.66
415.385
363.534
192.897
188.832
184.899
181.091
)


20
(
2448.13
2446.36
2441.05
2432.21
2419.82
2403.9
2384.42
2361.39
2334.81
2304.66
2270.95
2233.66
2192.79
2148.33
2100.27
2048.61
1878.51
1874.46
1870.54
1866.74
)


20
(
3650.24
3644.88
3628.79
3601.99
3564.46
3516.21
3457.23
3387.51
3307.04
3215.84
3113.88
3001.16
2877.67
2743.41
2598.36
2442.53
1929.58
1917.36
1905.55
1894.1
)


20
(
4811.61
4802.74
4776.14
4731.8
4669.73
4589.92
4492.36
4377.05
4243.99
4093.17
3924.58
3738.21
3534.07
3312.13
3072.4
2814.86
1967.19
1947
1927.47
1908.55
)


20
(
5914.33
5902.1
5865.4
5804.23
5718.6
5608.49
5473.9
5314.83
5131.27
4923.22
4690.67
4433.61
4152.03
3845.93
3515.3
3160.13
1991.15
1963.3
1936.36
1910.28
)


20
(
6941.35
6925.94
6879.73
6802.7
6694.85
6556.18
6386.69
6186.38
5955.22
5693.23
5400.39
5076.7
4722.14
4336.72
3920.41
3473.21
2001.39
1966.33
1932.41
1899.56
)


20
(
7876.74
7858.4
7803.4
7711.72
7583.36
7418.33
7216.62
6978.22
6703.13
6391.33
6042.83
5657.62
5235.68
4777.02
4281.61
3749.45
1998.02
1956.3
1915.94
1876.85
)


20
(
8705.96
8684.98
8622.06
8517.18
8370.35
8181.56
7950.81
7678.09
7363.4
7006.73
6608.07
6167.42
5684.77
5160.11
4593.42
3984.71
1981.32
1933.6
1887.43
1842.72
)


20
(
9416.12
9392.84
9322.99
9206.57
9043.58
8834.01
8577.86
8275.13
7925.82
7529.9
7087.38
6598.25
6062.5
5480.12
4851.1
4175.44
1951.72
1898.75
1847.51
1797.88
)


20
(
9996.16
9970.94
9895.26
9769.14
9592.56
9365.53
9088.03
8760.07
8381.64
7952.73
7473.33
6943.44
6363.05
5732.15
5050.73
4318.78
1909.83
1852.44
1796.93
1743.17
)


20
(
10437
10410.3
10330
10196.1
10008.7
9767.83
9473.36
9125.35
8723.77
8268.64
7759.93
7197.64
6581.77
5912.31
5189.24
4412.56
1856.39
1795.5
1736.59
1679.54
)


20
(
10731.8
10704
10620.3
10480.9
10285.6
10034.6
9727.85
9365.27
8946.9
8472.72
7942.73
7356.92
6715.29
6017.83
5264.52
4455.36
1792.31
1728.87
1667.5
1608.07
)


20
(
10876
10847.4
10761.7
10618.9
10418.9
10161.8
9847.53
9476.12
9047.54
8561.8
8018.9
7418.82
6761.55
6047.09
5275.43
4446.57
1718.65
1653.67
1590.81
1529.93
)


20
(
10867.3
10838.5
10752.1
10608.1
10406.5
10147.4
9830.57
9456.17
9024.16
8534.53
7987.28
7382.39
6719.86
5999.68
5221.85
4386.35
1636.62
1571.12
1507.76
1446.39
)


20
(
10705.9
10677.3
10591.6
10448.7
10248.7
9991.59
9677.28
9305.81
8877.19
8391.39
7848.42
7248.27
6590.93
5876.4
5104.67
4275.72
1547.56
1482.57
1419.7
1358.82
)


20
(
10394.4
10366.5
10282.8
10143.4
9948.08
9697.01
9390.15
9027.47
8608.99
8134.7
7604.58
7018.64
6376.87
5679.25
4925.8
4116.48
1452.94
1389.49
1328.11
1268.66
)


20
(
9937.82
9911.04
9830.71
9696.81
9509.36
9268.34
8973.75
8625.59
8223.86
7768.55
7259.65
6697.17
6081.09
5411.4
4688.11
3911.2
1354.29
1293.38
1234.46
1177.39
)


20
(
9343.25
9318.01
9242.29
9116.09
8939.41
8712.24
8434.58
8106.44
7727.8
7298.66
6819.01
6288.86
5708.19
5077
4395.28
3663.03
1253.1
1195.7
1140.16
1086.38
)


20
(
8619.68
8596.37
8526.47
8409.95
8246.83
8037.1
7780.76
7477.81
7128.23
6732.03
6289.21
5799.75
5263.66
4680.92
4051.54
3375.51
1150.59
1097.59
1046.32
996.666
)


20
(
7777.43
7756.43
7693.44
7588.45
7441.47
7252.49
7021.51
6748.53
6433.54
6076.54
5677.52
5236.49
4753.44
4228.35
3661.24
3052.09
1047.31
999.554
953.354
908.612
)


20
(
6827.58
6809.22
6754.14
6662.33
6533.81
6368.56
6166.59
5927.88
5652.45
5340.28
4991.37
4605.72
4183.32
3724.18
3228.28
2695.63
942.596
900.837
860.439
821.315
)


20
(
5780.6
5765.17
5718.87
5641.7
5533.66
5394.75
5224.97
5024.32
4792.78
4530.37
4237.08
3912.9
3557.84
3171.88
2755.03
2307.28
833.673
798.57
764.611
731.724
)


20
(
4645.19
4632.93
4596.14
4534.82
4448.97
4338.59
4203.69
4044.24
3860.27
3651.76
3418.7
3161.11
2878.97
2572.29
2241.05
1885.27
714.326
686.433
659.449
633.317
)


20
(
3426.6
3417.7
3391
3346.5
3284.19
3204.09
3106.18
2990.46
2856.94
2705.61
2536.48
2349.53
2144.77
1922.19
1681.8
1423.59
573.779
553.536
533.952
514.987
)


20
(
2129.95
2124.55
2108.36
2081.37
2043.59
1995
1935.62
1865.45
1784.47
1692.69
1590.12
1476.74
1352.56
1217.58
1071.8
915.208
399.852
387.576