/*--------------------------------*- C++ -*----------------------------------*\
| =========                 |                                                 |
| \\      /  F ield         | OpenFOAM: The Open Source CFD Toolbox           |
|  \\    /   O peration     | Version:  2212                                  |
|   \\  /    A nd           | Website:  www.openfoam.com                      |
|    \\/     M anipulation  |                                                 |
\*---------------------------------------------------------------------------*/
FoamFile
{
    version     2.0;
    format      ascii;
    arch        "LSB;label=32;scalar=64";
    class       volScalarField;
    location    "89/neutroRegion";
    object      prec2;
}
// * * * * * * * * * * * * * * * * * * * * * * * * * * * * * * * * * * * * * //

dimensions      [0 -3 0 0 0 0 0];

internalField   nonuniform List<scalar> 
350
(
0
0
0
0
0
0
0
0
0
0
0
0
0
0
0
0
0
0
0
0
0
0
0
0
0
0
0
0
0
0
0
0
0
0
0
0
0
0
0
0
0
0
0
0
0
0
0
0
0
0
8.2695e+16
2.46781e+17
4.06974e+17
5.6075e+17
7.05682e+17
8.39484e+17
9.60048e+17
1.06547e+18
1.15409e+18
1.22451e+18
1.27562e+18
1.30661e+18
1.31699e+18
1.30661e+18
1.27562e+18
1.22451e+18
1.15409e+18
1.06547e+18
9.60048e+17
8.39484e+17
7.05682e+17
5.6075e+17
4.06974e+17
2.46781e+17
8.2695e+16
8.36404e+16
2.49602e+17
4.11627e+17
5.67161e+17
7.1375e+17
8.49082e+17
9.71024e+17
1.07765e+18
1.16728e+18
1.23851e+18
1.2902e+18
1.32155e+18
1.33205e+18
1.32155e+18
1.2902e+18
1.23851e+18
1.16728e+18
1.07765e+18
9.71024e+17
8.49082e+17
7.1375e+17
5.67161e+17
4.11627e+17
2.49602e+17
8.36404e+16
8.25444e+16
2.46331e+17
4.06233e+17
5.59729e+17
7.04397e+17
8.37956e+17
9.583e+17
1.06353e+18
1.15199e+18
1.22228e+18
1.27329e+18
1.30423e+18
1.31459e+18
1.30423e+18
1.27329e+18
1.22228e+18
1.15199e+18
1.06353e+18
9.583e+17
8.37956e+17
7.04397e+17
5.59729e+17
4.06233e+17
2.46331e+17
8.25444e+16
8.34228e+16
2.48953e+17
4.10556e+17
5.65685e+17
7.11893e+17
8.46873e+17
9.68497e+17
1.07485e+18
1.16425e+18
1.23529e+18
1.28684e+18
1.31811e+18
1.32858e+18
1.31811e+18
1.28684e+18
1.23529e+18
1.16425e+18
1.07485e+18
9.68497e+17
8.46873e+17
7.11892e+17
5.65685e+17
4.10556e+17
2.48953e+17
8.34228e+16
8.34228e+16
2.48953e+17
4.10556e+17
5.65685e+17
7.11892e+17
8.46873e+17
9.68497e+17
1.07485e+18
1.16425e+18
1.23529e+18
1.28684e+18
1.31811e+18
1.32858e+18
1.31811e+18
1.28684e+18
1.23529e+18
1.16425e+18
1.07485e+18
9.68497e+17
8.46873e+17
7.11892e+17
5.65685e+17
4.10556e+17
2.48953e+17
8.34228e+16
8.25444e+16
2.46331e+17
4.06234e+17
5.59729e+17
7.04397e+17
8.37956e+17
9.583e+17
1.06353e+18
1.15199e+18
1.22228e+18
1.27329e+18
1.30423e+18
1.31459e+18
1.30423e+18
1.27329e+18
1.22228e+18
1.15199e+18
1.06353e+18
9.583e+17
8.37956e+17
7.04397e+17
5.59729e+17
4.06234e+17
2.46331e+17
8.25444e+16
8.36404e+16
2.49602e+17
4.11628e+17
5.67161e+17
7.1375e+17
8.49082e+17
9.71024e+17
1.07765e+18
1.16728e+18
1.23851e+18
1.2902e+18
1.32155e+18
1.33205e+18
1.32155e+18
1.2902e+18
1.23851e+18
1.16728e+18
1.07765e+18
9.71024e+17
8.49082e+17
7.1375e+17
5.67161e+17
4.11628e+17
2.49602e+17
8.36404e+16
8.2695e+16
2.46781e+17
4.06975e+17
5.6075e+17
7.05682e+17
8.39484e+17
9.60048e+17
1.06547e+18
1.15409e+18
1.22451e+18
1.27562e+18
1.30661e+18
1.31699e+18
1.30661e+18
1.27562e+18
1.22451e+18
1.15409e+18
1.06547e+18
9.60048e+17
8.39484e+17
7.05682e+17
5.6075e+17
4.06975e+17
2.46781e+17
8.2695e+16
8.34228e+16
2.48953e+17
4.10556e+17
5.65685e+17
7.11892e+17
8.46873e+17
9.68497e+17
1.07485e+18
1.16425e+18
1.23529e+18
1.28684e+18
1.31811e+18
1.32858e+18
1.31811e+18
1.28684e+18
1.23529e+18
1.16425e+18
1.07485e+18
9.68497e+17
8.46873e+17
7.11892e+17
5.65685e+17
4.10556e+17
2.48953e+17
8.34228e+16
8.25444e+16
2.46332e+17
4.06234e+17
5.59729e+17
7.04397e+17
8.37956e+17
9.583e+17
1.06353e+18
1.15199e+18
1.22228e+18
1.27329e+18
1.30423e+18
1.31459e+18
1.30423e+18
1.27329e+18
1.22228e+18
1.15199e+18
1.06353e+18
9.583e+17
8.37956e+17
7.04397e+17
5.59729e+17
4.06234e+17
2.46332e+17
8.25444e+16
8.25444e+16
2.46331e+17
4.06234e+17
5.59729e+17
7.04397e+17
8.37956e+17
9.583e+17
1.06353e+18
1.15199e+18
1.22228e+18
1.27329e+18
1.30423e+18
1.31459e+18
1.30423e+18
1.27329e+18
1.22228e+18
1.15199e+18
1.06353e+18
9.583e+17
8.37956e+17
7.04397e+17
5.59729e+17
4.06234e+17
2.46331e+17
8.25444e+16
8.34228e+16
2.48953e+17
4.10556e+17
5.65685e+17
7.11892e+17
8.46873e+17
9.68497e+17
1.07485e+18
1.16425e+18
1.23529e+18
1.28684e+18
1.31811e+18
1.32858e+18
1.31811e+18
1.28684e+18
1.23529e+18
1.16425e+18
1.07485e+18
9.68497e+17
8.46873e+17
7.11892e+17
5.65685e+17
4.10556e+17
2.48953e+17
8.34228e+16
)
;

boundaryField
{
    outletCentralUnloaded
    {
        type            zeroGradient;
    }
    inletCentralUnloaded
    {
        type            zeroGradient;
    }
    outletFuelElement
    {
        type            zeroGradient;
    }
    inletFuelElement
    {
        type            zeroGradient;
    }
    defaultFaces
    {
        type            zeroGradient;
    }
}


// ************************************************************************* //
