/*--------------------------------*- C++ -*----------------------------------*\
| =========                 |                                                 |
| \\      /  F ield         | OpenFOAM: The Open Source CFD Toolbox           |
|  \\    /   O peration     | Version:  2212                                  |
|   \\  /    A nd           | Website:  www.openfoam.com                      |
|    \\/     M anipulation  |                                                 |
\*---------------------------------------------------------------------------*/
FoamFile
{
    version     2.0;
    format      ascii;
    arch        "LSB;label=32;scalar=64";
    class       volScalarField;
    location    "31/neutroRegion";
    object      TClad;
}
// * * * * * * * * * * * * * * * * * * * * * * * * * * * * * * * * * * * * * //

dimensions      [0 0 0 1 0 0 0];

internalField   nonuniform List<scalar> 
350
(
0
0
0
0
0
0
0
0
0
0
0
0
0
0
0
0
0
0
0
0
0
0
0
0
0
0
0
0
0
0
0
0
0
0
0
0
0
0
0
0
0
0
0
0
0
0
0
0
0
0
1802.39
1842.01
1868.73
1882.55
1883.61
1872.18
1848.67
1813.64
1767.81
1712.01
1647.21
1574.5
1495.09
1410.32
1321.61
1230.39
1138.02
1045.52
953.244
860.335
763.873
657.73
531.684
374.607
188.437
1829.79
1870.06
1897.2
1911.23
1912.26
1900.58
1876.6
1840.91
1794.21
1737.36
1671.35
1597.27
1516.37
1429.99
1339.57
1246.59
1152.44
1058.22
964.314
869.913
772.091
664.634
537.113
378.122
189.627
1797.94
1837.46
1864.14
1877.95
1879.03
1867.65
1844.23
1809.33
1763.65
1708.03
1643.43
1570.94
1491.78
1407.28
1318.83
1227.89
1135.8
1043.58
951.555
858.879
762.632
656.698
530.884
374.093
188.256
1823.63
1863.73
1890.76
1904.73
1905.75
1894.11
1870.23
1834.68
1788.17
1731.56
1665.81
1592.04
1511.48
1425.46
1335.42
1242.85
1149.11
1055.28
961.755
867.698
770.19
663.035
535.855
377.307
189.352
1823.63
1863.73
1890.76
1904.73
1905.75
1894.11
1870.23
1834.68
1788.17
1731.56
1665.81
1592.04
1511.48
1425.46
1335.42
1242.85
1149.11
1055.28
961.755
867.698
770.19
663.036
535.855
377.307
189.352
1797.94
1837.47
1864.14
1877.95
1879.03
1867.65
1844.23
1809.33
1763.65
1708.03
1643.43
1570.95
1491.79
1407.28
1318.83
1227.89
1135.8
1043.58
951.555
858.88
762.633
656.699
530.884
374.093
188.256
1829.79
1870.06
1897.2
1911.23
1912.26
1900.58
1876.6
1840.91
1794.21
1737.36
1671.35
1597.27
1516.37
1429.99
1339.57
1246.59
1152.44
1058.22
964.314
869.913
772.091
664.634
537.113
378.122
189.627
1802.39
1842.01
1868.73
1882.55
1883.61
1872.18
1848.67
1813.64
1767.81
1712.01
1647.21
1574.5
1495.09
1410.32
1321.61
1230.39
1138.02
1045.52
953.244
860.335
763.873
657.73
531.684
374.607
188.437
1823.63
1863.73
1890.76
1904.73
1905.75
1894.11
1870.23
1834.68
1788.17
1731.56
1665.81
1592.04
1511.48
1425.46
1335.42
1242.85
1149.11
1055.28
961.755
867.698
770.19
663.036
535.855
377.307
189.352
1797.94
1837.46
1864.14
1877.95
1879.03
1867.65
1844.23
1809.33
1763.65
1708.03
1643.43
1570.94
1491.78
1407.28
1318.83
1227.89
1135.8
1043.58
951.555
858.88
762.632
656.698
530.884
374.093
188.256
1797.94
1837.47
1864.14
1877.95
1879.03
1867.65
1844.23
1809.33
1763.65
1708.03
1643.43
1570.95
1491.79
1407.28
1318.83
1227.89
1135.8
1043.58
951.555
858.88
762.633
656.699
530.884
374.093
188.256
1823.63
1863.73
1890.76
1904.73
1905.75
1894.11
1870.23
1834.68
1788.17
1731.56
1665.81
1592.04
1511.48
1425.46
1335.42
1242.85
1149.11
1055.28
961.755
867.698
770.19
663.035
535.855
377.307
189.352
)
;

boundaryField
{
    outletCentralUnloaded
    {
        type            zeroGradient;
    }
    inletCentralUnloaded
    {
        type            zeroGradient;
    }
    outletFuelElement
    {
        type            zeroGradient;
    }
    inletFuelElement
    {
        type            zeroGradient;
    }
    defaultFaces
    {
        type            zeroGradient;
    }
}


// ************************************************************************* //
