/*--------------------------------*- C++ -*----------------------------------*\
| =========                 |                                                 |
| \\      /  F ield         | OpenFOAM: The Open Source CFD Toolbox           |
|  \\    /   O peration     | Version:  2212                                  |
|   \\  /    A nd           | Website:  www.openfoam.com                      |
|    \\/     M anipulation  |                                                 |
\*---------------------------------------------------------------------------*/
FoamFile
{
    version     2.0;
    format      ascii;
    arch        "LSB;label=32;scalar=64";
    class       volScalarField;
    location    "88/fluidRegion";
    object      epsilon;
}
// * * * * * * * * * * * * * * * * * * * * * * * * * * * * * * * * * * * * * //

dimensions      [0 2 -3 0 0 0 0];

internalField   nonuniform List<scalar> 
350
(
66.9843
66.9685
66.9528
66.9371
66.9213
66.9054
66.8893
66.873
66.8565
66.8399
66.8233
66.8069
66.7911
66.7764
66.7633
66.7527
66.7461
66.7454
66.7537
66.7755
66.8178
66.8912
67.0119
67.2046
67.5067
66.9843
66.9685
66.9528
66.9371
66.9213
66.9054
66.8893
66.873
66.8565
66.8399
66.8233
66.8069
66.7911
66.7764
66.7633
66.7527
66.7461
66.7454
66.7537
66.7755
66.8177
66.8912
67.0119
67.2046
67.5067
7.65599e+06
7.04526e+06
6.36933e+06
5.6494e+06
4.91336e+06
4.18675e+06
3.49173e+06
2.84633e+06
2.26407e+06
1.75377e+06
1.31977e+06
962195
677507
459147
298358
185125
109171
60861.2
31887.3
15619.6
7152.53
3117.67
1385.83
735.662
547.108
7.82177e+06
7.19927e+06
6.51022e+06
5.77573e+06
5.02436e+06
4.28225e+06
3.57208e+06
2.91235e+06
2.31691e+06
1.79489e+06
1.35076e+06
984736
693251
469653
305018
189111
111406
62025.2
32442.8
15858
7242.18
3146.04
1393.02
737.107
547.532
7.62887e+06
7.02e+06
6.34632e+06
5.62886e+06
4.89537e+06
4.17133e+06
3.47881e+06
2.83576e+06
2.25563e+06
1.74723e+06
1.31485e+06
958633
675026
457495
297312
184499
108819
60677.1
31798.6
15580.7
7137.31
3112.4
1384.2
735.173
546.934
7.78505e+06
7.1651e+06
6.47886e+06
5.74755e+06
4.99954e+06
4.26085e+06
3.55404e+06
2.89749e+06
2.305e+06
1.7856e+06
1.34374e+06
979620
689671
467260
303498
188200
110895
61758.8
32315.6
15803.5
7221.73
3139.61
1391.42
736.806
547.451
7.78505e+06
7.1651e+06
6.47886e+06
5.74755e+06
4.99954e+06
4.26085e+06
3.55404e+06
2.89749e+06
2.305e+06
1.7856e+06
1.34374e+06
979620
689671
467260
303498
188200
110895
61758.8
32315.6
15803.5
7221.73
3139.61
1391.42
736.807
547.452
7.62888e+06
7.02001e+06
6.34633e+06
5.62886e+06
4.89538e+06
4.17134e+06
3.47881e+06
2.83576e+06
2.25563e+06
1.74723e+06
1.31486e+06
958634
675027
457495
297312
184499
108819
60677.1
31798.5
15580.7
7137.29
3112.38
1384.19
735.167
546.931
7.82177e+06
7.19927e+06
6.51022e+06
5.77573e+06
5.02436e+06
4.28225e+06
3.57208e+06
2.91235e+06
2.31691e+06
1.79489e+06
1.35076e+06
984736
693251
469653
305018
189111
111406
62025.2
32442.8
15858
7242.18
3146.04
1393.02
737.107
547.532
7.65599e+06
7.04526e+06
6.36932e+06
5.6494e+06
4.91336e+06
4.18675e+06
3.49173e+06
2.84633e+06
2.26407e+06
1.75377e+06
1.31977e+06
962195
677507
459147
298358
185125
109171
60861.1
31887.2
15619.5
7152.51
3117.65
1385.82
735.655
547.103
7.78505e+06
7.1651e+06
6.47886e+06
5.74755e+06
4.99954e+06
4.26085e+06
3.55404e+06
2.89749e+06
2.305e+06
1.7856e+06
1.34374e+06
979620
689671
467260
303498
188200
110895
61758.8
32315.6
15803.5
7221.73
3139.61
1391.42
736.804
547.45
7.62887e+06
7.02e+06
6.34632e+06
5.62886e+06
4.89538e+06
4.17134e+06
3.47881e+06
2.83576e+06
2.25563e+06
1.74723e+06
1.31485e+06
958633
675026
457495
297312
184499
108819
60677.2
31798.6
15580.8
7137.35
3112.43
1384.22
735.187
546.945
7.62888e+06
7.02001e+06
6.34633e+06
5.62886e+06
4.89538e+06
4.17134e+06
3.47881e+06
2.83576e+06
2.25563e+06
1.74723e+06
1.31485e+06
958633
675027
457495
297312
184499
108819
60677
31798.5
15580.6
7137.28
3112.38
1384.19
735.169
546.933
7.78505e+06
7.16509e+06
6.47886e+06
5.74755e+06
4.99954e+06
4.26085e+06
3.55404e+06
2.89749e+06
2.305e+06
1.7856e+06
1.34374e+06
979620
689671
467260
303498
188200
110895
61758.7
32315.6
15803.4
7221.69
3139.58
1391.4
736.796
547.444
)
;

boundaryField
{
    outletCentralUnloaded
    {
        type            zeroGradient;
    }
    inletCentralUnloaded
    {
        type            zeroGradient;
    }
    outletFuelElement
    {
        type            zeroGradient;
    }
    inletFuelElement
    {
        type            zeroGradient;
    }
    defaultFaces
    {
        type            zeroGradient;
    }
    baffle_master
    {
        type            zeroGradient;
    }
    baffle_slave
    {
        type            zeroGradient;
    }
}


// ************************************************************************* //
