/*--------------------------------*- C++ -*----------------------------------*\
| =========                 |                                                 |
| \\      /  F ield         | OpenFOAM: The Open Source CFD Toolbox           |
|  \\    /   O peration     | Version:  2212                                  |
|   \\  /    A nd           | Website:  www.openfoam.com                      |
|    \\/     M anipulation  |                                                 |
\*---------------------------------------------------------------------------*/
FoamFile
{
    version     2.0;
    format      ascii;
    arch        "LSB;label=32;scalar=64";
    class       volScalarField;
    location    "88/fluidRegion";
    object      nut;
}
// * * * * * * * * * * * * * * * * * * * * * * * * * * * * * * * * * * * * * //

dimensions      [0 2 -1 0 0 0 0];

internalField   nonuniform List<scalar> 
350
(
0.00053759
0.000537548
0.000537509
0.000537473
0.000537436
0.000537397
0.000537356
0.000537313
0.000537269
0.000537226
0.000537183
0.000537141
0.000537101
0.000537062
0.000537027
0.000536997
0.000536975
0.000536967
0.000536981
0.000537028
0.000537127
0.000537308
0.000537611
0.000538101
0.000539492
0.00053759
0.000537548
0.000537509
0.000537473
0.000537436
0.000537397
0.000537356
0.000537313
0.000537269
0.000537226
0.000537183
0.000537141
0.000537101
0.000537062
0.000537027
0.000536997
0.000536975
0.000536967
0.000536981
0.000537028
0.000537127
0.000537308
0.000537611
0.000538101
0.000539492
0.010423
0.0102034
0.00993166
0.00960404
0.00922549
0.00880119
0.00833647
0.00783683
0.00730791
0.00675558
0.00618598
0.00560571
0.00502188
0.00444225
0.0038751
0.0033289
0.00281183
0.00233126
0.00189343
0.00150356
0.00116625
0.000885942
0.000666914
0.00051177
0.000416363
0.0104904
0.0102697
0.00999698
0.00966788
0.00928744
0.00886086
0.00839349
0.00789087
0.00735865
0.00680273
0.00622928
0.0056449
0.00505677
0.00447271
0.00390108
0.00335047
0.0028292
0.00234475
0.00190344
0.00151057
0.00117076
0.000888502
0.000668103
0.000512151
0.00041643
0.0104121
0.0101925
0.00992099
0.00959365
0.00921544
0.00879154
0.00832728
0.00782814
0.00729978
0.00674805
0.00617909
0.00559948
0.00501635
0.00443743
0.00387099
0.00332548
0.00280907
0.00232911
0.00189181
0.0015024
0.00116546
0.000885452
0.000666631
0.000511621
0.000416314
0.0104755
0.010255
0.00998247
0.00965368
0.00927363
0.00884752
0.00838072
0.00787874
0.00734724
0.00679211
0.00621951
0.00563604
0.00504887
0.0044658
0.00389517
0.00334556
0.00282524
0.00234167
0.00190116
0.00150897
0.00116973
0.000887926
0.000667841
0.000512075
0.000416421
0.0104755
0.010255
0.00998247
0.00965368
0.00927363
0.00884752
0.00838073
0.00787874
0.00734725
0.00679211
0.00621951
0.00563604
0.00504887
0.0044658
0.00389517
0.00334556
0.00282524
0.00234167
0.00190116
0.00150897
0.00116973
0.000887926
0.000667841
0.000512075
0.000416421
0.0104121
0.0101925
0.009921
0.00959365
0.00921544
0.00879154
0.00832728
0.00782815
0.00729979
0.00674805
0.00617909
0.00559949
0.00501635
0.00443744
0.00387099
0.00332549
0.00280907
0.00232911
0.00189181
0.0015024
0.00116546
0.000885452
0.000666631
0.00051162
0.000416313
0.0104904
0.0102697
0.00999697
0.00966788
0.00928744
0.00886086
0.00839349
0.00789087
0.00735865
0.00680273
0.00622928
0.0056449
0.00505677
0.00447271
0.00390108
0.00335047
0.0028292
0.00234475
0.00190344
0.00151057
0.00117076
0.000888503
0.000668103
0.000512151
0.00041643
0.010423
0.0102034
0.00993166
0.00960404
0.00922549
0.00880119
0.00833647
0.00783683
0.00730791
0.00675558
0.00618598
0.00560571
0.00502188
0.00444225
0.0038751
0.0033289
0.00281183
0.00233126
0.00189343
0.00150356
0.00116625
0.000885943
0.000666915
0.000511771
0.000416364
0.0104755
0.010255
0.00998248
0.00965368
0.00927363
0.00884753
0.00838073
0.00787874
0.00734725
0.00679211
0.00621951
0.00563604
0.00504887
0.0044658
0.00389517
0.00334556
0.00282524
0.00234167
0.00190116
0.00150897
0.00116973
0.000887926
0.000667841
0.000512076
0.000416421
0.0104121
0.0101925
0.00992099
0.00959365
0.00921544
0.00879154
0.00832728
0.00782814
0.00729978
0.00674805
0.00617909
0.00559948
0.00501635
0.00443743
0.00387099
0.00332548
0.00280907
0.00232911
0.00189181
0.0015024
0.00116546
0.00088545
0.000666629
0.000511619
0.000416312
0.0104121
0.0101925
0.009921
0.00959365
0.00921544
0.00879154
0.00832728
0.00782815
0.00729979
0.00674805
0.0061791
0.00559949
0.00501635
0.00443744
0.00387099
0.00332549
0.00280907
0.00232911
0.00189182
0.0015024
0.00116547
0.000885452
0.000666631
0.00051162
0.000416313
0.0104755
0.010255
0.00998248
0.00965368
0.00927363
0.00884753
0.00838073
0.00787874
0.00734725
0.00679211
0.00621951
0.00563604
0.00504887
0.0044658
0.00389517
0.00334556
0.00282524
0.00234167
0.00190116
0.00150897
0.00116973
0.000887928
0.000667843
0.000512077
0.000416423
)
;

boundaryField
{
    outletCentralUnloaded
    {
        type            zeroGradient;
    }
    inletCentralUnloaded
    {
        type            zeroGradient;
    }
    outletFuelElement
    {
        type            zeroGradient;
    }
    inletFuelElement
    {
        type            zeroGradient;
    }
    defaultFaces
    {
        type            zeroGradient;
    }
    baffle_master
    {
        type            calculated;
        value           nonuniform List<scalar> 
150
(
0.00053759
0.00053759
0.00053759
0.000537548
0.000537548
0.000537548
0.000537509
0.000537509
0.000537509
0.000537473
0.000537473
0.000537473
0.000537436
0.000537436
0.000537436
0.000537397
0.000537397
0.000537397
0.000537356
0.000537356
0.000537356
0.000537313
0.000537313
0.000537313
0.000537269
0.000537269
0.000537269
0.000537226
0.000537226
0.000537226
0.000537183
0.000537183
0.000537183
0.000537141
0.000537141
0.000537141
0.000537101
0.000537101
0.000537101
0.000537062
0.000537062
0.000537062
0.000537027
0.000537027
0.000537027
0.000536997
0.000536997
0.000536997
0.000536975
0.000536975
0.000536975
0.000536967
0.000536967
0.000536967
0.000536981
0.000536981
0.000536981
0.000537028
0.000537028
0.000537028
0.000537127
0.000537127
0.000537127
0.000537308
0.000537308
0.000537308
0.000537611
0.000537611
0.000537611
0.000538101
0.000538101
0.000538101
0.000539492
0.000539492
0.000539492
0.00053759
0.00053759
0.00053759
0.000537548
0.000537548
0.000537548
0.000537509
0.000537509
0.000537509
0.000537473
0.000537473
0.000537473
0.000537436
0.000537436
0.000537436
0.000537397
0.000537397
0.000537397
0.000537356
0.000537356
0.000537356
0.000537313
0.000537313
0.000537313
0.000537269
0.000537269
0.000537269
0.000537226
0.000537226
0.000537226
0.000537183
0.000537183
0.000537183
0.000537141
0.000537141
0.000537141
0.000537101
0.000537101
0.000537101
0.000537062
0.000537062
0.000537062
0.000537027
0.000537027
0.000537027
0.000536997
0.000536997
0.000536997
0.000536975
0.000536975
0.000536975
0.000536967
0.000536967
0.000536967
0.000536981
0.000536981
0.000536981
0.000537028
0.000537028
0.000537028
0.000537127
0.000537127
0.000537127
0.000537308
0.000537308
0.000537308
0.000537611
0.000537611
0.000537611
0.000538101
0.000538101
0.000538101
0.000539492
0.000539492
0.000539492
)
;
    }
    baffle_slave
    {
        type            calculated;
        value           nonuniform List<scalar> 
150
(
0.0104904
0.0104755
0.0104755
0.0102697
0.010255
0.010255
0.00999698
0.00998247
0.00998248
0.00966788
0.00965368
0.00965368
0.00928744
0.00927363
0.00927363
0.00886086
0.00884752
0.00884753
0.00839349
0.00838072
0.00838073
0.00789087
0.00787874
0.00787874
0.00735865
0.00734724
0.00734725
0.00680273
0.00679211
0.00679211
0.00622928
0.00621951
0.00621951
0.0056449
0.00563604
0.00563604
0.00505677
0.00504887
0.00504887
0.00447271
0.0044658
0.0044658
0.00390108
0.00389517
0.00389517
0.00335047
0.00334556
0.00334556
0.0028292
0.00282524
0.00282524
0.00234475
0.00234167
0.00234167
0.00190344
0.00190116
0.00190116
0.00151057
0.00150897
0.00150897
0.00117076
0.00116973
0.00116973
0.000888502
0.000887926
0.000887928
0.000668103
0.000667841
0.000667843
0.000512151
0.000512075
0.000512077
0.00041643
0.000416421
0.000416423
0.0104755
0.0104904
0.0104755
0.010255
0.0102697
0.010255
0.00998247
0.00999697
0.00998248
0.00965368
0.00966788
0.00965368
0.00927363
0.00928744
0.00927363
0.00884752
0.00886086
0.00884753
0.00838073
0.00839349
0.00838073
0.00787874
0.00789087
0.00787874
0.00734725
0.00735865
0.00734725
0.00679211
0.00680273
0.00679211
0.00621951
0.00622928
0.00621951
0.00563604
0.0056449
0.00563604
0.00504887
0.00505677
0.00504887
0.0044658
0.00447271
0.0044658
0.00389517
0.00390108
0.00389517
0.00334556
0.00335047
0.00334556
0.00282524
0.0028292
0.00282524
0.00234167
0.00234475
0.00234167
0.00190116
0.00190344
0.00190116
0.00150897
0.00151057
0.00150897
0.00116973
0.00117076
0.00116973
0.000887926
0.000888503
0.000887926
0.000667841
0.000668103
0.000667841
0.000512075
0.000512151
0.000512076
0.000416421
0.00041643
0.000416421
)
;
    }
}


// ************************************************************************* //
