/*--------------------------------*- C++ -*----------------------------------*\
| =========                 |                                                 |
| \\      /  F ield         | OpenFOAM: The Open Source CFD Toolbox           |
|  \\    /   O peration     | Version:  2212                                  |
|   \\  /    A nd           | Website:  www.openfoam.com                      |
|    \\/     M anipulation  |                                                 |
\*---------------------------------------------------------------------------*/
FoamFile
{
    version     2.0;
    format      ascii;
    arch        "LSB;label=32;scalar=64";
    class       volScalarField;
    location    "88/fluidRegion";
    object      Tfav.nuclearFuelPin;
}
// * * * * * * * * * * * * * * * * * * * * * * * * * * * * * * * * * * * * * //

dimensions      [0 0 0 1 0 0 0];

internalField   nonuniform List<scalar> 
350
(
0
0
0
0
0
0
0
0
0
0
0
0
0
0
0
0
0
0
0
0
0
0
0
0
0
0
0
0
0
0
0
0
0
0
0
0
0
0
0
0
0
0
0
0
0
0
0
0
0
0
2223.33
3010.36
3766.68
4480.76
5141.66
5739.21
6264.2
6708.54
7065.33
7329.05
7495.6
7562.4
7528.46
7394.35
7162.26
6835.9
6420.31
5921.64
5346.65
4702.15
3993.86
3225.15
2395.63
1504.3
564.349
2256.11
3052.33
3817.42
4539.7
5208.1
5812.36
6343.15
6792.27
7152.79
7419.09
7587.05
7654.07
7619.12
7482.81
7247.35
6916.5
6495.41
5990.33
5408.15
4755.82
4039.15
3261.53
2422.48
1520.82
569.896
2218.01
3003.6
3758.55
4471.34
5131.06
5727.56
6251.65
6695.24
7051.45
7314.77
7481.11
7547.89
7514.11
7380.36
7148.81
6823.15
6408.44
5910.79
5336.93
4693.68
3986.72
3219.43
2391.42
1501.72
563.474
2248.71
3042.8
3805.86
4526.24
5192.9
5795.59
6325.04
6773.05
7132.69
7398.39
7566.02
7632.98
7598.25
7462.45
7227.76
6897.93
6478.11
5974.51
5393.98
4743.46
4028.71
3253.15
2416.29
1517.01
568.618
2248.71
3042.8
3805.86
4526.24
5192.9
5795.59
6325.04
6773.05
7132.69
7398.39
7566.02
7632.98
7598.25
7462.44
7227.76
6897.93
6478.11
5974.51
5393.98
4743.46
4028.71
3253.15
2416.29
1517.01
568.618
2218.02
3003.6
3758.55
4471.35
5131.06
5727.57
6251.66
6695.24
7051.45
7314.77
7481.11
7547.89
7514.11
7380.36
7148.81
6823.15
6408.44
5910.79
5336.93
4693.68
3986.72
3219.43
2391.42
1501.72
563.474
2256.11
3052.33
3817.42
4539.7
5208.1
5812.36
6343.15
6792.27
7152.79
7419.09
7587.05
7654.07
7619.12
7482.81
7247.35
6916.5
6495.41
5990.33
5408.15
4755.82
4039.15
3261.53
2422.48
1520.82
569.896
2223.33
3010.36
3766.68
4480.76
5141.66
5739.21
6264.2
6708.54
7065.33
7329.05
7495.6
7562.4
7528.46
7394.35
7162.26
6835.9
6420.31
5921.64
5346.65
4702.15
3993.86
3225.15
2395.63
1504.3
564.349
2248.71
3042.8
3805.86
4526.24
5192.9
5795.59
6325.04
6773.05
7132.69
7398.39
7566.02
7632.98
7598.25
7462.45
7227.76
6897.94
6478.11
5974.51
5393.98
4743.46
4028.71
3253.15
2416.29
1517.01
568.618
2218.01
3003.6
3758.55
4471.34
5131.06
5727.56
6251.65
6695.24
7051.45
7314.77
7481.11
7547.89
7514.11
7380.36
7148.81
6823.15
6408.44
5910.79
5336.93
4693.68
3986.72
3219.43
2391.42
1501.72
563.474
2218.02
3003.6
3758.55
4471.35
5131.06
5727.57
6251.66
6695.24
7051.45
7314.77
7481.11
7547.89
7514.11
7380.36
7148.81
6823.15
6408.44
5910.79
5336.93
4693.68
3986.72
3219.43
2391.42
1501.72
563.474
2248.71
3042.8
3805.86
4526.24
5192.9
5795.59
6325.04
6773.05
7132.69
7398.39
7566.02
7632.98
7598.25
7462.44
7227.76
6897.93
6478.11
5974.51
5393.98
4743.46
4028.71
3253.15
2416.29
1517.01
568.618
)
;

boundaryField
{
    outletCentralUnloaded
    {
        type            zeroGradient;
    }
    inletCentralUnloaded
    {
        type            zeroGradient;
    }
    outletFuelElement
    {
        type            zeroGradient;
    }
    inletFuelElement
    {
        type            zeroGradient;
    }
    defaultFaces
    {
        type            zeroGradient;
    }
    baffle_master
    {
        type            zeroGradient;
    }
    baffle_slave
    {
        type            zeroGradient;
    }
}


// ************************************************************************* //
