/*--------------------------------*- C++ -*----------------------------------*\
| =========                 |                                                 |
| \\      /  F ield         | OpenFOAM: The Open Source CFD Toolbox           |
|  \\    /   O peration     | Version:  2212                                  |
|   \\  /    A nd           | Website:  www.openfoam.com                      |
|    \\/     M anipulation  |                                                 |
\*---------------------------------------------------------------------------*/
FoamFile
{
    version     2.0;
    format      ascii;
    arch        "LSB;label=32;scalar=64";
    class       volScalarField;
    location    "88/fluidRegion";
    object      Tfo.nuclearFuelPin;
}
// * * * * * * * * * * * * * * * * * * * * * * * * * * * * * * * * * * * * * //

dimensions      [0 0 0 1 0 0 0];

internalField   nonuniform List<scalar> 
350
(
0
0
0
0
0
0
0
0
0
0
0
0
0
0
0
0
0
0
0
0
0
0
0
0
0
0
0
0
0
0
0
0
0
0
0
0
0
0
0
0
0
0
0
0
0
0
0
0
0
0
2022.84
2412.05
2779.99
3121.25
3430.76
3703.91
3936.61
4125.35
4267.28
4360.27
4402.91
4394.58
4335.46
4226.53
4069.58
3867.12
3622.26
3338.45
3019.06
2666.86
2282.96
1865.62
1408.94
906.005
363.858
2053.32
2447.17
2819.42
3164.61
3477.61
3753.75
3988.89
4179.49
4322.69
4416.31
4458.94
4449.96
4389.55
4278.7
4119.24
3913.72
3665.31
3377.55
3053.9
2697.21
2308.65
1886.43
1424.48
915.673
367.108
2017.9
2406.39
2773.66
3114.31
3423.29
3695.98
3928.3
4116.76
4258.51
4351.41
4394.06
4385.85
4326.94
4218.32
4061.76
3859.79
3615.49
3332.3
3013.59
2662.09
2278.94
1862.38
1406.53
904.514
363.349
2046.46
2439.22
2810.47
3154.74
3466.92
3742.35
3976.92
4167.08
4309.97
4403.44
4446.06
4437.22
4377.1
4266.69
4107.8
3902.98
3655.39
3368.53
3045.87
2690.21
2302.73
1881.63
1420.89
913.44
366.358
2046.46
2439.22
2810.47
3154.74
3466.92
3742.35
3976.92
4167.08
4309.97
4403.44
4446.06
4437.22
4377.1
4266.69
4107.8
3902.98
3655.39
3368.53
3045.87
2690.21
2302.73
1881.63
1420.9
913.44
366.358
2017.9
2406.39
2773.66
3114.31
3423.29
3695.98
3928.3
4116.76
4258.51
4351.41
4394.07
4385.85
4326.94
4218.32
4061.76
3859.79
3615.49
3332.31
3013.59
2662.09
2278.94
1862.38
1406.53
904.514
363.349
2053.32
2447.17
2819.42
3164.61
3477.61
3753.75
3988.89
4179.49
4322.69
4416.31
4458.94
4449.96
4389.55
4278.7
4119.24
3913.72
3665.31
3377.55
3053.9
2697.21
2308.65
1886.43
1424.48
915.672
367.108
2022.84
2412.05
2779.99
3121.25
3430.76
3703.91
3936.61
4125.35
4267.28
4360.27
4402.91
4394.58
4335.46
4226.53
4069.58
3867.12
3622.26
3338.45
3019.06
2666.85
2282.96
1865.62
1408.94
906.004
363.858
2046.46
2439.22
2810.47
3154.74
3466.92
3742.35
3976.92
4167.08
4309.97
4403.44
4446.06
4437.22
4377.1
4266.69
4107.8
3902.98
3655.39
3368.53
3045.87
2690.21
2302.73
1881.63
1420.9
913.44
366.358
2017.9
2406.39
2773.66
3114.31
3423.29
3695.98
3928.3
4116.76
4258.51
4351.41
4394.06
4385.85
4326.94
4218.31
4061.76
3859.79
3615.49
3332.3
3013.59
2662.09
2278.94
1862.38
1406.53
904.514
363.349
2017.9
2406.39
2773.66
3114.31
3423.29
3695.98
3928.3
4116.76
4258.51
4351.41
4394.07
4385.85
4326.94
4218.32
4061.76
3859.79
3615.49
3332.31
3013.59
2662.1
2278.94
1862.38
1406.53
904.514
363.349
2046.46
2439.22
2810.47
3154.74
3466.92
3742.35
3976.92
4167.08
4309.97
4403.44
4446.06
4437.22
4377.1
4266.69
4107.8
3902.98
3655.39
3368.53
3045.87
2690.21
2302.73
1881.63
1420.9
913.44
366.358
)
;

boundaryField
{
    outletCentralUnloaded
    {
        type            zeroGradient;
    }
    inletCentralUnloaded
    {
        type            zeroGradient;
    }
    outletFuelElement
    {
        type            zeroGradient;
    }
    inletFuelElement
    {
        type            zeroGradient;
    }
    defaultFaces
    {
        type            zeroGradient;
    }
    baffle_master
    {
        type            zeroGradient;
    }
    baffle_slave
    {
        type            zeroGradient;
    }
}


// ************************************************************************* //
