/*--------------------------------*- C++ -*----------------------------------*\
| =========                 |                                                 |
| \\      /  F ield         | OpenFOAM: The Open Source CFD Toolbox           |
|  \\    /   O peration     | Version:  2212                                  |
|   \\  /    A nd           | Website:  www.openfoam.com                      |
|    \\/     M anipulation  |                                                 |
\*---------------------------------------------------------------------------*/
FoamFile
{
    version     2.0;
    format      ascii;
    arch        "LSB;label=32;scalar=64";
    class       volScalarField;
    location    "56/fluidRegion";
    object      alphat;
}
// * * * * * * * * * * * * * * * * * * * * * * * * * * * * * * * * * * * * * //

dimensions      [1 -1 -1 0 0 0 0];

internalField   nonuniform List<scalar> 
350
(
0.00258566
0.00258563
0.00258561
0.00258559
0.00258558
0.00258557
0.00258557
0.00258558
0.0025856
0.00258563
0.00258569
0.00258576
0.00258586
0.00258599
0.00258614
0.00258635
0.00258665
0.00258709
0.00258776
0.00258878
0.00259036
0.00259279
0.00259652
0.00260225
0.00261102
0.00258565
0.00258563
0.00258561
0.00258559
0.00258558
0.00258557
0.00258557
0.00258558
0.0025856
0.00258563
0.00258569
0.00258576
0.00258586
0.00258599
0.00258614
0.00258635
0.00258665
0.00258709
0.00258776
0.00258878
0.00259036
0.00259279
0.00259652
0.00260225
0.00261102
0.000895851
0.000884244
0.000872831
0.000861259
0.00084942
0.000837209
0.000824521
0.000811258
0.000797334
0.000782686
0.000767281
0.000751125
0.000734263
0.000716764
0.000698708
0.000680192
0.00066139
0.000642759
0.000625479
0.000612385
0.000609872
0.000631327
0.00069956
0.000832285
0.00100217
0.000887995
0.000876401
0.000865025
0.000853494
0.000841706
0.000829554
0.000816931
0.00080374
0.000789892
0.000775324
0.000760005
0.000743946
0.0007272
0.000709848
0.000691985
0.000673713
0.000655208
0.000636912
0.000619983
0.000607231
0.000605034
0.000626815
0.000695612
0.000829589
0.00100142
0.000897105
0.000885484
0.000874062
0.000862478
0.000850626
0.0008384
0.000825698
0.000812419
0.000798478
0.000783812
0.000768388
0.000752212
0.000735325
0.000717796
0.000699704
0.000681141
0.000662286
0.000643594
0.000626249
0.000613091
0.000610516
0.000631909
0.000700059
0.000832627
0.00100229
0.000889799
0.000878206
0.000866824
0.000855287
0.00084349
0.000831326
0.00081869
0.000805484
0.000791619
0.000777033
0.000761694
0.000745612
0.000728839
0.000711453
0.000693545
0.000675216
0.000656642
0.000638269
0.000621259
0.000608427
0.000606156
0.000627863
0.00069653
0.000830218
0.0010016
0.000889799
0.000878206
0.000866824
0.000855287
0.00084349
0.000831326
0.00081869
0.000805484
0.000791619
0.000777033
0.000761694
0.000745612
0.000728839
0.000711453
0.000693545
0.000675216
0.000656642
0.000638269
0.000621258
0.000608427
0.000606156
0.000627863
0.00069653
0.000830219
0.0010016
0.000897105
0.000885484
0.000874062
0.000862477
0.000850625
0.0008384
0.000825697
0.000812419
0.000798478
0.000783812
0.000768388
0.000752211
0.000735324
0.000717795
0.000699703
0.00068114
0.000662284
0.000643592
0.000626247
0.000613088
0.000610514
0.000631906
0.000700055
0.000832624
0.00100228
0.000887995
0.000876401
0.000865025
0.000853495
0.000841706
0.000829554
0.000816932
0.00080374
0.000789892
0.000775324
0.000760005
0.000743946
0.0007272
0.000709849
0.000691985
0.000673713
0.000655208
0.000636912
0.000619983
0.000607231
0.000605034
0.000626816
0.000695612
0.000829589
0.00100142
0.000895851
0.000884244
0.000872832
0.000861259
0.00084942
0.000837209
0.000824521
0.000811258
0.000797334
0.000782686
0.000767281
0.000751125
0.000734263
0.000716764
0.000698708
0.000680191
0.00066139
0.000642759
0.000625478
0.000612384
0.000609871
0.000631324
0.000699556
0.00083228
0.00100216
0.000889799
0.000878206
0.000866824
0.000855287
0.00084349
0.000831326
0.00081869
0.000805483
0.000791619
0.000777033
0.000761694
0.000745612
0.000728839
0.000711453
0.000693545
0.000675216
0.000656642
0.000638269
0.000621258
0.000608427
0.000606156
0.000627862
0.000696528
0.000830216
0.0010016
0.000897105
0.000885485
0.000874062
0.000862478
0.000850626
0.000838401
0.000825698
0.000812419
0.000798478
0.000783812
0.000768388
0.000752212
0.000735325
0.000717796
0.000699704
0.000681142
0.000662286
0.000643595
0.000626251
0.000613093
0.00061052
0.000631914
0.000700067
0.000832637
0.0010023
0.000897105
0.000885484
0.000874062
0.000862477
0.000850625
0.0008384
0.000825697
0.000812418
0.000798478
0.000783812
0.000768387
0.000752211
0.000735324
0.000717795
0.000699702
0.00068114
0.000662284
0.000643592
0.000626247
0.000613088
0.000610513
0.000631906
0.000700056
0.000832625
0.00100229
0.000889799
0.000878206
0.000866824
0.000855287
0.00084349
0.000831326
0.00081869
0.000805483
0.000791619
0.000777033
0.000761694
0.000745612
0.000728839
0.000711453
0.000693544
0.000675215
0.000656641
0.000638268
0.000621257
0.000608425
0.000606154
0.000627859
0.000696525
0.000830211
0.00100159
)
;

boundaryField
{
    outletCentralUnloaded
    {
        type            zeroGradient;
    }
    inletCentralUnloaded
    {
        type            zeroGradient;
    }
    outletFuelElement
    {
        type            zeroGradient;
    }
    inletFuelElement
    {
        type            zeroGradient;
    }
    defaultFaces
    {
        type            zeroGradient;
    }
    baffle_master
    {
        type            calculated;
        value           nonuniform List<scalar> 
150
(
0.00258566
0.00258566
0.00258566
0.00258563
0.00258563
0.00258563
0.00258561
0.00258561
0.00258561
0.00258559
0.00258559
0.00258559
0.00258558
0.00258558
0.00258558
0.00258557
0.00258557
0.00258557
0.00258557
0.00258557
0.00258557
0.00258558
0.00258558
0.00258558
0.0025856
0.0025856
0.0025856
0.00258563
0.00258563
0.00258563
0.00258569
0.00258569
0.00258569
0.00258576
0.00258576
0.00258576
0.00258586
0.00258586
0.00258586
0.00258599
0.00258599
0.00258599
0.00258614
0.00258614
0.00258614
0.00258635
0.00258635
0.00258635
0.00258665
0.00258665
0.00258665
0.00258709
0.00258709
0.00258709
0.00258776
0.00258776
0.00258776
0.00258878
0.00258878
0.00258878
0.00259036
0.00259036
0.00259036
0.00259279
0.00259279
0.00259279
0.00259652
0.00259652
0.00259652
0.00260225
0.00260225
0.00260225
0.00261102
0.00261102
0.00261102
0.00258565
0.00258565
0.00258565
0.00258563
0.00258563
0.00258563
0.00258561
0.00258561
0.00258561
0.00258559
0.00258559
0.00258559
0.00258558
0.00258558
0.00258558
0.00258557
0.00258557
0.00258557
0.00258557
0.00258557
0.00258557
0.00258558
0.00258558
0.00258558
0.0025856
0.0025856
0.0025856
0.00258563
0.00258563
0.00258563
0.00258569
0.00258569
0.00258569
0.00258576
0.00258576
0.00258576
0.00258586
0.00258586
0.00258586
0.00258599
0.00258599
0.00258599
0.00258614
0.00258614
0.00258614
0.00258635
0.00258635
0.00258635
0.00258665
0.00258665
0.00258665
0.00258709
0.00258709
0.00258709
0.00258776
0.00258776
0.00258776
0.00258878
0.00258878
0.00258878
0.00259036
0.00259036
0.00259036
0.00259279
0.00259279
0.00259279
0.00259652
0.00259652
0.00259652
0.00260225
0.00260225
0.00260225
0.00261102
0.00261102
0.00261102
)
;
    }
    baffle_slave
    {
        type            calculated;
        value           nonuniform List<scalar> 
150
(
0.000887995
0.000889799
0.000889799
0.000876401
0.000878206
0.000878206
0.000865025
0.000866824
0.000866824
0.000853494
0.000855287
0.000855287
0.000841706
0.00084349
0.00084349
0.000829554
0.000831326
0.000831326
0.000816931
0.00081869
0.00081869
0.00080374
0.000805484
0.000805483
0.000789892
0.000791619
0.000791619
0.000775324
0.000777033
0.000777033
0.000760005
0.000761694
0.000761694
0.000743946
0.000745612
0.000745612
0.0007272
0.000728839
0.000728839
0.000709848
0.000711453
0.000711453
0.000691985
0.000693545
0.000693544
0.000673713
0.000675216
0.000675215
0.000655208
0.000656642
0.000656641
0.000636912
0.000638269
0.000638268
0.000619983
0.000621259
0.000621257
0.000607231
0.000608427
0.000608425
0.000605034
0.000606156
0.000606154
0.000626815
0.000627863
0.000627859
0.000695612
0.00069653
0.000696525
0.000829589
0.000830218
0.000830211
0.00100142
0.0010016
0.00100159
0.000889799
0.000887995
0.000889799
0.000878206
0.000876401
0.000878206
0.000866824
0.000865025
0.000866824
0.000855287
0.000853495
0.000855287
0.00084349
0.000841706
0.00084349
0.000831326
0.000829554
0.000831326
0.00081869
0.000816932
0.00081869
0.000805484
0.00080374
0.000805483
0.000791619
0.000789892
0.000791619
0.000777033
0.000775324
0.000777033
0.000761694
0.000760005
0.000761694
0.000745612
0.000743946
0.000745612
0.000728839
0.0007272
0.000728839
0.000711453
0.000709849
0.000711453
0.000693545
0.000691985
0.000693545
0.000675216
0.000673713
0.000675216
0.000656642
0.000655208
0.000656642
0.000638269
0.000636912
0.000638269
0.000621258
0.000619983
0.000621258
0.000608427
0.000607231
0.000608427
0.000606156
0.000605034
0.000606156
0.000627863
0.000626816
0.000627862
0.00069653
0.000695612
0.000696528
0.000830219
0.000829589
0.000830216
0.0010016
0.00100142
0.0010016
)
;
    }
}


// ************************************************************************* //
