/*--------------------------------*- C++ -*----------------------------------*\
| =========                 |                                                 |
| \\      /  F ield         | OpenFOAM: The Open Source CFD Toolbox           |
|  \\    /   O peration     | Version:  2212                                  |
|   \\  /    A nd           | Website:  www.openfoam.com                      |
|    \\/     M anipulation  |                                                 |
\*---------------------------------------------------------------------------*/
FoamFile
{
    version     2.0;
    format      ascii;
    arch        "LSB;label=32;scalar=64";
    class       volScalarField;
    location    "56/fluidRegion";
    object      epsilon;
}
// * * * * * * * * * * * * * * * * * * * * * * * * * * * * * * * * * * * * * //

dimensions      [0 2 -3 0 0 0 0];

internalField   nonuniform List<scalar> 
350
(
66.9844
66.9681
66.952
66.9359
66.9198
66.9035
66.8871
66.8706
66.854
66.8375
66.8212
66.8055
66.7904
66.7766
66.7644
66.7547
66.7488
66.7486
66.7571
66.7787
66.8206
66.8934
67.0133
67.2052
67.5067
66.9844
66.9681
66.952
66.9359
66.9198
66.9035
66.8871
66.8706
66.854
66.8375
66.8212
66.8055
66.7904
66.7766
66.7644
66.7547
66.7488
66.7486
66.7571
66.7787
66.8206
66.8934
67.0133
67.2052
67.5067
7.64881e+06
7.03904e+06
6.36404e+06
5.64499e+06
4.90973e+06
4.18382e+06
3.4894e+06
2.84452e+06
2.26269e+06
1.75274e+06
1.31902e+06
961672
677152
458915
298213
185039
109122
60835.4
31874.6
15613.9
7150.32
3116.95
1385.67
735.658
547.131
7.81439e+06
7.19288e+06
6.50479e+06
5.77119e+06
5.02063e+06
4.27923e+06
3.56968e+06
2.91048e+06
2.31549e+06
1.79383e+06
1.35e+06
984197
692885
469414
304868
189022
111356
61998.7
32429.8
15852.3
7239.91
3145.3
1392.85
737.102
547.555
7.62172e+06
7.01381e+06
6.34107e+06
5.62446e+06
4.89176e+06
4.16841e+06
3.47649e+06
2.83395e+06
2.25425e+06
1.74621e+06
1.31411e+06
958112
674673
457264
297167
184413
108770
60651.5
31786
15575.1
7135.1
3111.68
1384.04
735.168
546.956
7.77772e+06
7.15874e+06
6.47347e+06
5.74304e+06
4.99583e+06
4.25785e+06
3.55165e+06
2.89564e+06
2.30358e+06
1.78455e+06
1.34298e+06
979085
689307
467022
303350
188112
110845
61732.5
32302.8
15797.8
7219.48
3138.88
1391.26
736.802
547.475
7.77772e+06
7.15874e+06
6.47347e+06
5.74304e+06
4.99583e+06
4.25785e+06
3.55165e+06
2.89564e+06
2.30358e+06
1.78455e+06
1.34298e+06
979085
689307
467022
303350
188112
110845
61732.5
32302.7
15797.8
7219.48
3138.88
1391.26
736.802
547.475
7.62174e+06
7.01382e+06
6.34108e+06
5.62447e+06
4.89177e+06
4.16842e+06
3.4765e+06
2.83396e+06
2.25426e+06
1.74621e+06
1.31412e+06
958114
674674
457265
297167
184413
108770
60651.5
31786
15575.1
7135.09
3111.67
1384.03
735.164
546.954
7.81439e+06
7.19288e+06
6.50479e+06
5.77119e+06
5.02063e+06
4.27923e+06
3.56968e+06
2.91048e+06
2.31549e+06
1.79383e+06
1.35e+06
984197
692885
469414
304869
189022
111356
61998.7
32429.8
15852.3
7239.91
3145.3
1392.85
737.102
547.555
7.64881e+06
7.03904e+06
6.36404e+06
5.64499e+06
4.90973e+06
4.18382e+06
3.4894e+06
2.84452e+06
2.26269e+06
1.75274e+06
1.31902e+06
961672
677152
458915
298213
185039
109122
60835.4
31874.6
15613.9
7150.31
3116.94
1385.66
735.655
547.129
7.77772e+06
7.15874e+06
6.47347e+06
5.74304e+06
4.99583e+06
4.25785e+06
3.55165e+06
2.89564e+06
2.30358e+06
1.78455e+06
1.34298e+06
979085
689307
467022
303350
188112
110845
61732.5
32302.7
15797.8
7219.48
3138.88
1391.25
736.801
547.474
7.62172e+06
7.01381e+06
6.34107e+06
5.62446e+06
4.89176e+06
4.16841e+06
3.47649e+06
2.83395e+06
2.25425e+06
1.74621e+06
1.31411e+06
958112
674673
457264
297167
184413
108770
60651.5
31786
15575.1
7135.12
3111.69
1384.05
735.176
546.962
7.62174e+06
7.01382e+06
6.34107e+06
5.62447e+06
4.89177e+06
4.16842e+06
3.4765e+06
2.83396e+06
2.25426e+06
1.74621e+06
1.31412e+06
958114
674674
457264
297167
184413
108770
60651.5
31785.9
15575.1
7135.08
3111.67
1384.03
735.165
546.955
7.77772e+06
7.15874e+06
6.47347e+06
5.74304e+06
4.99583e+06
4.25785e+06
3.55165e+06
2.89564e+06
2.30358e+06
1.78455e+06
1.34298e+06
979085
689307
467022
303350
188112
110845
61732.4
32302.7
15797.7
7219.46
3138.87
1391.25
736.798
547.471
)
;

boundaryField
{
    outletCentralUnloaded
    {
        type            zeroGradient;
    }
    inletCentralUnloaded
    {
        type            zeroGradient;
    }
    outletFuelElement
    {
        type            zeroGradient;
    }
    inletFuelElement
    {
        type            zeroGradient;
    }
    defaultFaces
    {
        type            zeroGradient;
    }
    baffle_master
    {
        type            zeroGradient;
    }
    baffle_slave
    {
        type            zeroGradient;
    }
}


// ************************************************************************* //
