/*--------------------------------*- C++ -*----------------------------------*\
| =========                 |                                                 |
| \\      /  F ield         | OpenFOAM: The Open Source CFD Toolbox           |
|  \\    /   O peration     | Version:  2212                                  |
|   \\  /    A nd           | Website:  www.openfoam.com                      |
|    \\/     M anipulation  |                                                 |
\*---------------------------------------------------------------------------*/
FoamFile
{
    version     2.0;
    format      ascii;
    arch        "LSB;label=32;scalar=64";
    class       volScalarField;
    location    "56/fluidRegion";
    object      htc;
}
// * * * * * * * * * * * * * * * * * * * * * * * * * * * * * * * * * * * * * //

dimensions      [1 0 -3 -1 0 0 0];

internalField   nonuniform List<scalar> 
350
(
3101.7
3101.68
3101.65
3101.6
3101.56
3101.53
3101.51
3101.5
3101.5
3101.49
3101.47
3101.44
3101.4
3101.36
3101.33
3101.32
3101.33
3101.36
3101.41
3101.46
3101.52
3101.58
3101.64
3101.7
3106.9
3101.7
3101.68
3101.65
3101.6
3101.56
3101.53
3101.51
3101.5
3101.5
3101.49
3101.47
3101.44
3101.4
3101.36
3101.33
3101.32
3101.33
3101.36
3101.41
3101.46
3101.52
3101.58
3101.64
3101.7
3106.9
27251.8
27170.4
26983.3
26671.2
26235.4
25678.2
25002.4
24211.8
23311.8
22309.3
21213.9
20038.2
18797.1
17507.7
16186.4
14847
13499.9
12153.2
10816.2
9504.77
8247.09
7089.71
6103.8
5383.16
4943.93
27340.7
27259
27072.5
26760.4
26324.2
25765.9
25088.5
24295.6
23392.3
22385.4
21284.4
20101.7
18852.6
17554.4
16224.5
14877.5
13524
12171.9
10830.2
9514.34
8252.08
7090.22
6100.76
5378.92
4941.96
27237.7
27155.9
26968.8
26656.7
26221.1
25664.1
24988.6
24198.4
23298.9
22297.2
21202.7
20028.1
18788.3
17500.3
16180.2
14842
13495.9
12149.9
10813.6
9502.75
8245.69
7088.88
6103.38
5382.9
4943.78
27321
27239.4
27052.7
26740.5
26304.4
25746.3
25069.2
24276.8
23374.2
22368.3
21268.5
20087.3
18840
17543.9
16215.9
14870.6
13518.6
12167.7
10827.1
9512.24
8251.03
7090.2
6101.57
5380.02
4942.48
27321
27239.4
27052.7
26740.5
26304.4
25746.3
25069.2
24276.8
23374.2
22368.3
21268.5
20087.3
18840
17543.9
16215.9
14870.6
13518.6
12167.7
10827.1
9512.24
8251.03
7090.2
6101.57
5380.02
4942.48
27237.7
27155.9
26968.8
26656.7
26221.1
25664.1
24988.6
24198.4
23298.9
22297.2
21202.7
20028.1
18788.3
17500.3
16180.2
14842
13495.9
12149.9
10813.6
9502.75
8245.68
7088.87
6103.37
5382.89
4943.78
27340.7
27259
27072.5
26760.4
26324.2
25765.9
25088.5
24295.6
23392.3
22385.4
21284.4
20101.7
18852.6
17554.4
16224.5
14877.5
13524
12171.9
10830.2
9514.34
8252.08
7090.22
6100.76
5378.92
4941.96
27251.8
27170.4
26983.3
26671.2
26235.4
25678.2
25002.4
24211.8
23311.8
22309.3
21213.9
20038.2
18797.1
17507.7
16186.4
14847
13499.9
12153.2
10816.2
9504.77
8247.09
7089.71
6103.8
5383.16
4943.93
27321
27239.4
27052.7
26740.5
26304.4
25746.3
25069.2
24276.8
23374.2
22368.3
21268.5
20087.3
18840
17543.9
16215.9
14870.6
13518.6
12167.7
10827.1
9512.24
8251.03
7090.2
6101.57
5380.02
4942.48
27237.7
27155.9
26968.8
26656.7
26221.1
25664.1
24988.6
24198.4
23298.9
22297.2
21202.7
20028.1
18788.3
17500.3
16180.2
14842
13495.9
12149.9
10813.6
9502.75
8245.69
7088.88
6103.39
5382.91
4943.79
27237.7
27155.9
26968.8
26656.7
26221.1
25664.1
24988.6
24198.4
23298.9
22297.2
21202.7
20028.1
18788.3
17500.3
16180.2
14842
13495.9
12149.9
10813.6
9502.75
8245.68
7088.87
6103.37
5382.89
4943.78
27321
27239.4
27052.7
26740.5
26304.4
25746.3
25069.2
24276.8
23374.2
22368.3
21268.5
20087.3
18840
17543.9
16215.9
14870.6
13518.6
12167.7
10827.1
9512.23
8251.03
7090.2
6101.56
5380.02
4942.48
)
;

boundaryField
{
    outletCentralUnloaded
    {
        type            zeroGradient;
    }
    inletCentralUnloaded
    {
        type            zeroGradient;
    }
    outletFuelElement
    {
        type            zeroGradient;
    }
    inletFuelElement
    {
        type            zeroGradient;
    }
    defaultFaces
    {
        type            zeroGradient;
    }
    baffle_master
    {
        type            zeroGradient;
    }
    baffle_slave
    {
        type            zeroGradient;
    }
}


// ************************************************************************* //
