/*--------------------------------*- C++ -*----------------------------------*\
| =========                 |                                                 |
| \\      /  F ield         | OpenFOAM: The Open Source CFD Toolbox           |
|  \\    /   O peration     | Version:  2212                                  |
|   \\  /    A nd           | Website:  www.openfoam.com                      |
|    \\/     M anipulation  |                                                 |
\*---------------------------------------------------------------------------*/
FoamFile
{
    version     2.0;
    format      ascii;
    arch        "LSB;label=32;scalar=64";
    class       volScalarField;
    location    "56/fluidRegion";
    object      p;
}
// * * * * * * * * * * * * * * * * * * * * * * * * * * * * * * * * * * * * * //

dimensions      [1 -1 -2 0 0 0 0];

internalField   nonuniform List<scalar> 
350
(
3.44743e+06
3.44772e+06
3.44802e+06
3.44831e+06
3.44861e+06
3.4489e+06
3.4492e+06
3.44949e+06
3.44979e+06
3.45009e+06
3.45038e+06
3.45068e+06
3.45097e+06
3.45127e+06
3.45157e+06
3.45186e+06
3.45216e+06
3.45245e+06
3.45275e+06
3.45304e+06
3.45334e+06
3.45364e+06
3.45393e+06
3.45423e+06
3.45452e+06
3.44743e+06
3.44772e+06
3.44802e+06
3.44831e+06
3.44861e+06
3.4489e+06
3.4492e+06
3.44949e+06
3.44979e+06
3.45009e+06
3.45038e+06
3.45068e+06
3.45097e+06
3.45127e+06
3.45157e+06
3.45186e+06
3.45216e+06
3.45245e+06
3.45275e+06
3.45304e+06
3.45334e+06
3.45364e+06
3.45393e+06
3.45423e+06
3.45452e+06
3.47384e+06
3.52567e+06
3.57688e+06
3.62718e+06
3.67626e+06
3.72383e+06
3.76963e+06
3.81343e+06
3.85502e+06
3.89421e+06
3.93085e+06
3.96478e+06
3.99592e+06
4.02416e+06
4.04948e+06
4.07186e+06
4.09135e+06
4.10804e+06
4.12207e+06
4.13362e+06
4.14289e+06
4.15009e+06
4.15546e+06
4.15932e+06
4.16199e+06
3.47384e+06
3.52567e+06
3.57688e+06
3.62718e+06
3.67626e+06
3.72383e+06
3.76963e+06
3.81343e+06
3.85502e+06
3.89421e+06
3.93085e+06
3.96478e+06
3.99592e+06
4.02416e+06
4.04948e+06
4.07186e+06
4.09135e+06
4.10804e+06
4.12207e+06
4.13362e+06
4.14289e+06
4.15009e+06
4.15546e+06
4.15932e+06
4.16199e+06
3.47384e+06
3.52567e+06
3.57688e+06
3.62718e+06
3.67626e+06
3.72383e+06
3.76963e+06
3.81343e+06
3.85502e+06
3.89421e+06
3.93085e+06
3.96478e+06
3.99592e+06
4.02416e+06
4.04948e+06
4.07186e+06
4.09135e+06
4.10804e+06
4.12207e+06
4.13362e+06
4.14289e+06
4.15009e+06
4.15546e+06
4.15932e+06
4.16199e+06
3.47384e+06
3.52567e+06
3.57688e+06
3.62718e+06
3.67626e+06
3.72383e+06
3.76963e+06
3.81343e+06
3.85502e+06
3.89421e+06
3.93085e+06
3.96478e+06
3.99592e+06
4.02416e+06
4.04948e+06
4.07186e+06
4.09135e+06
4.10804e+06
4.12207e+06
4.13362e+06
4.14289e+06
4.15009e+06
4.15546e+06
4.15932e+06
4.16199e+06
3.47384e+06
3.52567e+06
3.57688e+06
3.62718e+06
3.67626e+06
3.72383e+06
3.76963e+06
3.81343e+06
3.85502e+06
3.89421e+06
3.93085e+06
3.96478e+06
3.99592e+06
4.02416e+06
4.04948e+06
4.07186e+06
4.09135e+06
4.10804e+06
4.12207e+06
4.13362e+06
4.14289e+06
4.15009e+06
4.15546e+06
4.15932e+06
4.16199e+06
3.47384e+06
3.52567e+06
3.57688e+06
3.62718e+06
3.67626e+06
3.72383e+06
3.76963e+06
3.81343e+06
3.85502e+06
3.89421e+06
3.93085e+06
3.96478e+06
3.99592e+06
4.02416e+06
4.04948e+06
4.07186e+06
4.09135e+06
4.10804e+06
4.12207e+06
4.13362e+06
4.14289e+06
4.15009e+06
4.15546e+06
4.15932e+06
4.16199e+06
3.47384e+06
3.52567e+06
3.57688e+06
3.62718e+06
3.67626e+06
3.72383e+06
3.76963e+06
3.81343e+06
3.85502e+06
3.89421e+06
3.93085e+06
3.96478e+06
3.99592e+06
4.02416e+06
4.04948e+06
4.07186e+06
4.09135e+06
4.10804e+06
4.12207e+06
4.13362e+06
4.14289e+06
4.15009e+06
4.15546e+06
4.15932e+06
4.16199e+06
3.47384e+06
3.52567e+06
3.57688e+06
3.62718e+06
3.67626e+06
3.72383e+06
3.76963e+06
3.81343e+06
3.85502e+06
3.89421e+06
3.93085e+06
3.96478e+06
3.99592e+06
4.02416e+06
4.04948e+06
4.07186e+06
4.09135e+06
4.10804e+06
4.12207e+06
4.13362e+06
4.14289e+06
4.15009e+06
4.15546e+06
4.15932e+06
4.16199e+06
3.47384e+06
3.52567e+06
3.57688e+06
3.62718e+06
3.67626e+06
3.72383e+06
3.76963e+06
3.81343e+06
3.85502e+06
3.89421e+06
3.93085e+06
3.96478e+06
3.99592e+06
4.02416e+06
4.04948e+06
4.07186e+06
4.09135e+06
4.10804e+06
4.12207e+06
4.13362e+06
4.14289e+06
4.15009e+06
4.15546e+06
4.15932e+06
4.16199e+06
3.47384e+06
3.52567e+06
3.57688e+06
3.62718e+06
3.67626e+06
3.72383e+06
3.76963e+06
3.81343e+06
3.85502e+06
3.89421e+06
3.93085e+06
3.96478e+06
3.99592e+06
4.02416e+06
4.04948e+06
4.07186e+06
4.09135e+06
4.10804e+06
4.12207e+06
4.13362e+06
4.14289e+06
4.15009e+06
4.15546e+06
4.15932e+06
4.16199e+06
3.47384e+06
3.52567e+06
3.57688e+06
3.62718e+06
3.67626e+06
3.72383e+06
3.76963e+06
3.81343e+06
3.85502e+06
3.89421e+06
3.93085e+06
3.96478e+06
3.99592e+06
4.02416e+06
4.04948e+06
4.07186e+06
4.09135e+06
4.10804e+06
4.12207e+06
4.13362e+06
4.14289e+06
4.15009e+06
4.15546e+06
4.15932e+06
4.16199e+06
3.47384e+06
3.52567e+06
3.57688e+06
3.62718e+06
3.67626e+06
3.72383e+06
3.76963e+06
3.81343e+06
3.85502e+06
3.89421e+06
3.93085e+06
3.96478e+06
3.99592e+06
4.02416e+06
4.04948e+06
4.07186e+06
4.09135e+06
4.10804e+06
4.12207e+06
4.13362e+06
4.14289e+06
4.15009e+06
4.15546e+06
4.15932e+06
4.16199e+06
)
;

boundaryField
{
    outletCentralUnloaded
    {
        type            fixedValue;
        value           uniform 3.44728e+06;
    }
    inletCentralUnloaded
    {
        type            zeroGradient;
    }
    outletFuelElement
    {
        type            fixedValue;
        value           uniform 3.44728e+06;
    }
    inletFuelElement
    {
        type            zeroGradient;
    }
    defaultFaces
    {
        type            zeroGradient;
    }
    baffle_master
    {
        type            zeroGradient;
    }
    baffle_slave
    {
        type            zeroGradient;
    }
}


// ************************************************************************* //
