/*--------------------------------*- C++ -*----------------------------------*\
| =========                 |                                                 |
| \\      /  F ield         | OpenFOAM: The Open Source CFD Toolbox           |
|  \\    /   O peration     | Version:  2212                                  |
|   \\  /    A nd           | Website:  www.openfoam.com                      |
|    \\/     M anipulation  |                                                 |
\*---------------------------------------------------------------------------*/
FoamFile
{
    version     2.0;
    format      ascii;
    arch        "LSB;label=32;scalar=64";
    class       volScalarField;
    location    "56/fluidRegion";
    object      T;
}
// * * * * * * * * * * * * * * * * * * * * * * * * * * * * * * * * * * * * * //

dimensions      [0 0 0 1 0 0 0];

internalField   nonuniform List<scalar> 
350
(
83.2889
83.2894
83.2899
83.2904
83.2909
83.2914
83.2919
83.2924
83.2928
83.2932
83.2936
83.2941
83.2945
83.2949
83.2954
83.2959
83.2965
83.297
83.2975
83.2979
83.2983
83.2987
83.2991
83.2996
83.3
83.2889
83.2894
83.2899
83.2904
83.2909
83.2914
83.2919
83.2924
83.2928
83.2932
83.2936
83.2941
83.2945
83.2949
83.2954
83.2959
83.2965
83.297
83.2975
83.2979
83.2983
83.2987
83.2991
83.2996
83.3
1823.12
1816.97
1798.42
1767.67
1725.08
1671.15
1606.48
1531.84
1448.09
1356.25
1257.47
1153.06
1044.57
933.729
822.499
712.98
607.277
507.354
414.922
331.417
258.099
196.151
146.797
111.208
90.0865
1851.36
1845.43
1826.87
1795.9
1752.88
1698.3
1632.79
1557.1
1472.13
1378.9
1278.55
1172.44
1062.09
949.272
835.983
724.375
616.623
514.763
420.565
335.508
260.874
197.86
147.701
111.572
90.1639
1818.53
1812.37
1793.83
1763.14
1720.64
1666.83
1602.31
1527.85
1444.31
1352.7
1254.18
1150.06
1041.87
931.345
820.443
711.253
605.869
506.246
414.084
330.814
257.694
195.903
146.667
111.155
90.0741
1845.01
1839.01
1820.44
1789.51
1746.58
1692.13
1626.8
1551.34
1466.64
1373.71
1273.72
1167.99
1058.06
945.694
832.874
721.744
614.463
513.049
419.259
334.56
260.23
197.463
147.491
111.487
90.1461
1845.01
1839.01
1820.44
1789.51
1746.58
1692.13
1626.8
1551.34
1466.64
1373.71
1273.72
1167.99
1058.06
945.694
832.874
721.744
614.463
513.049
419.259
334.56
260.23
197.463
147.491
111.487
90.1461
1818.53
1812.37
1793.83
1763.14
1720.64
1666.83
1602.31
1527.85
1444.31
1352.71
1254.18
1150.06
1041.87
931.346
820.444
711.254
605.87
506.247
414.084
330.815
257.694
195.904
146.667
111.155
90.0741
1851.36
1845.43
1826.87
1795.9
1752.88
1698.3
1632.79
1557.1
1472.13
1378.9
1278.55
1172.44
1062.09
949.272
835.983
724.375
616.623
514.763
420.566
335.508
260.874
197.86
147.701
111.572
90.1639
1823.12
1816.97
1798.42
1767.67
1725.08
1671.15
1606.48
1531.84
1448.09
1356.25
1257.47
1153.06
1044.57
933.729
822.499
712.98
607.277
507.354
414.922
331.417
258.099
196.151
146.797
111.208
90.0865
1845.01
1839.01
1820.44
1789.51
1746.58
1692.13
1626.8
1551.34
1466.64
1373.71
1273.72
1167.99
1058.06
945.694
832.875
721.744
614.463
513.049
419.259
334.56
260.23
197.463
147.491
111.487
90.1461
1818.53
1812.37
1793.83
1763.14
1720.64
1666.83
1602.31
1527.85
1444.31
1352.7
1254.18
1150.06
1041.87
931.345
820.443
711.253
605.869
506.246
414.084
330.814
257.694
195.903
146.667
111.155
90.0741
1818.53
1812.37
1793.83
1763.14
1720.64
1666.83
1602.31
1527.85
1444.31
1352.71
1254.18
1150.06
1041.87
931.346
820.444
711.254
605.87
506.247
414.084
330.815
257.694
195.904
146.667
111.155
90.0741
1845.01
1839.01
1820.44
1789.51
1746.58
1692.13
1626.8
1551.34
1466.64
1373.71
1273.72
1167.99
1058.06
945.694
832.874
721.744
614.463
513.049
419.259
334.56
260.23
197.463
147.491
111.487
90.1461
)
;

boundaryField
{
    outletCentralUnloaded
    {
        type            zeroGradient;
    }
    inletCentralUnloaded
    {
        type            fixedValue;
        value           uniform 83.3;
    }
    outletFuelElement
    {
        type            zeroGradient;
    }
    inletFuelElement
    {
        type            fixedValue;
        value           uniform 83.3;
    }
    defaultFaces
    {
        type            zeroGradient;
    }
    baffle_master
    {
        type            zeroGradient;
    }
    baffle_slave
    {
        type            zeroGradient;
    }
}


// ************************************************************************* //
