/*--------------------------------*- C++ -*----------------------------------*\
| =========                 |                                                 |
| \\      /  F ield         | OpenFOAM: The Open Source CFD Toolbox           |
|  \\    /   O peration     | Version:  2212                                  |
|   \\  /    A nd           | Website:  www.openfoam.com                      |
|    \\/     M anipulation  |                                                 |
\*---------------------------------------------------------------------------*/
FoamFile
{
    version     2.0;
    format      ascii;
    arch        "LSB;label=32;scalar=64";
    class       scalarFieldField;
    location    "56/fluidRegion";
    object      Trad.nuclearFuelPin;
}
// * * * * * * * * * * * * * * * * * * * * * * * * * * * * * * * * * * * * * //


350
(
0()
0()
0()
0()
0()
0()
0()
0()
0()
0()
0()
0()
0()
0()
0()
0()
0()
0()
0()
0()
0()
0()
0()
0()
0()
0()
0()
0()
0()
0()
0()
0()
0()
0()
0()
0()
0()
0()
0()
0()
0()
0()
0()
0()
0()
0()
0()
0()
0()
0()

20
(
2420.81
2419.04
2413.72
2404.85
2392.43
2376.46
2356.94
2333.87
2307.24
2277.06
2243.31
2206
2165.13
2120.69
2072.68
2021.09
1851.28
1847.24
1843.32
1839.54
)


20
(
3609.25
3603.93
3587.95
3561.32
3524.04
3476.1
3417.51
3348.27
3268.36
3177.79
3076.56
2964.66
2842.09
2708.85
2564.94
2410.34
1901.53
1889.41
1877.69
1866.34
)


20
(
4757.47
4748.67
4722.29
4678.33
4616.77
4537.63
4440.89
4326.57
4194.64
4045.13
3878.01
3693.29
3490.96
3271.03
3033.48
2778.33
1938.56
1918.55
1899.2
1880.46
)


20
(
5847.75
5835.63
5799.26
5738.65
5653.8
5544.69
5411.34
5253.74
5071.89
4865.78
4635.41
4380.79
4101.9
3798.75
3471.33
3119.63
1962.16
1934.58
1907.91
1882.08
)


20
(
6863.23
6847.97
6802.19
6725.9
6619.08
6481.74
6313.87
6115.49
5886.57
5627.13
5337.15
5016.64
4665.59
4284
3871.87
3429.19
1972.28
1937.57
1904
1871.49
)


20
(
7788.16
7770
7715.53
7624.75
7497.66
7334.25
7134.52
6898.48
6626.12
6317.43
5972.42
5591.08
5173.41
4719.41
4229.07
3702.39
1969.03
1927.74
1887.8
1849.11
)


20
(
8608.16
8587.39
8525.09
8421.26
8275.9
8089
7860.56
7590.59
7279.08
6926.02
6531.42
6095.27
5617.57
5098.32
4537.51
3935.14
1952.68
1905.45
1859.77
1815.53
)


20
(
9310.47
9287.43
9218.28
9103.04
8941.7
8734.26
8480.72
8181.07
7835.32
7443.47
7005.5
6521.43
5991.23
5414.92
4792.49
4123.93
1923.65
1871.24
1820.53
1771.43
)


20
(
9884.17
9859.2
9784.3
9659.46
9484.69
9259.98
8985.34
8660.75
8286.22
7861.75
7387.33
6862.96
6288.64
5664.36
4990.12
4265.93
1882.53
1825.76
1770.83
1717.64
)


20
(
10320.3
10293.8
10214.3
10081.9
9896.41
9657.98
9366.56
9022.15
8624.75
8174.36
7670.97
7114.58
6505.19
5842.79
5127.39
4358.98
1830.07
1769.83
1711.55
1655.11
)


20
(
10612
10584.4
10501.6
10363.6
10170.4
9922.04
9618.45
9259.65
8845.65
8376.44
7852.02
7272.39
6637.54
5947.48
5202.19
4401.69
1767.15
1704.4
1643.68
1584.89
)


20
(
10754.8
10726.5
10641.7
10500.4
10302.5
10048.1
9737.07
9369.55
8945.47
8464.85
7927.68
7333.95
6683.66
5976.81
5213.4
4393.43
1694.83
1630.54
1568.36
1508.13
)


20
(
10746.5
10718
10632.5
10490
10290.5
10034.1
9720.62
9350.16
8922.71
8438.25
7896.79
7298.33
6642.86
5930.38
5160.89
4334.38
1614.28
1549.48
1486.8
1426.09
)


20
(
10587.2
10558.9
10474.1
10332.7
10134.8
9880.39
9569.39
9201.85
8777.76
8297.11
7759.91
7166.16
6515.84
5808.97
5045.53
4225.52
1526.83
1462.55
1400.36
1340.13
)


20
(
10279.5
10251.9
10169.1
10031.1
9837.9
9589.48
9285.86
8927.02
8512.98
8043.73
7519.26
6939.58
6304.68
5614.56
4869.22
4068.65
1433.93
1371.17
1310.46
1251.65
)


20
(
9828.4
9801.9
9722.41
9589.93
9404.45
9165.98
8874.52
8530.06
8132.6
7682.14
7178.68
6622.21
6012.74
5350.26
4634.77
3866.27
1337.09
1276.84
1218.56
1162.11
)


20
(
9240.81
9215.84
9140.92
9016.06
8841.25
8616.49
8341.78
8017.12
7642.52
7217.96
6743.44
6218.97
5644.55
5020.16
4345.81
3621.5
1237.74
1180.95
1126.02
1072.82
)


20
(
8525.63
8502.58
8433.41
8318.13
8156.74
7949.24
7695.63
7395.9
7050.05
6658.09
6220.01
5735.81
5205.48
4629.04
4006.46
3337.77
1137.03
1084.61
1033.89
984.78
)


20
(
7693.01
7672.24
7609.91
7506.04
7360.62
7173.65
6945.13
6675.05
6363.43
6010.25
5615.51
5179.22
4701.37
4181.96
3620.99
3018.45
1035.48
988.239
942.541
898.286
)


20
(
6753.87
6735.7
6681.21
6590.38
6463.22
6299.73
6099.9
5863.74
5591.25
5282.42
4937.25
4555.75
4137.91
3683.72
3193.2
2666.33
932.361
891.056
851.097
812.399
)


20
(
5718.52
5703.25
5657.44
5581.09
5474.2
5336.77
5168.79
4970.27
4741.22
4481.61
4191.46
3870.77
3519.52
3137.73
2725.39
2282.5
824.916
790.194
756.605
724.075
)


20
(
4595.55
4583.42
4547.02
4486.35
4401.41
4292.2
4158.73
4000.98
3818.97
3612.68
3382.12
3127.29
2848.19
2544.81
2217.16
1865.23
707.001
679.411
652.72
626.871
)


20
(
3390.17
3381.36
3354.94
3310.91
3249.27
3170.01
3073.14
2958.66
2826.56
2676.85
2509.52
2324.57
2122.01
1901.84
1664.04
1408.63
568.04
548.017
528.646
509.886
)


20
(
2107.44
2102.1
2086.08
2059.38
2022
1973.94
1915.2
1845.77
1765.67
1674.88
1573.42
1461.27
1338.44
1204.92
1060.72
905.843
396.12
383.978
372.231
360.855
)


20
(
766.822
765.031
759.659
750.705
738.17
722.054
702.356
679.077
652.217
621.776
587.753
550.15
508.966
464.202
415.856
363.931
193.043
188.972
185.034
181.22
)


20
(
2455.79
2454
2448.62
2439.65
2427.09
2410.94
2391.2
2367.86
2340.93
2310.4
2276.27
2238.54
2197.2
2152.26
2103.7
2051.53
1879.79
1875.7
1871.74
1867.91
)


20
(
3658.02
3652.64
3636.48
3609.54
3571.84
3523.35
3464.09
3394.06
3313.24
3221.63
3119.25
3006.07
2882.1
2747.34
2601.78
2445.42
1930.79
1918.54
1906.68
1895.19
)


20
(
4819.49
4810.6
4783.92
4739.45
4677.19
4597.14
4499.3
4383.66
4250.23
4099.01
3929.98
3743.14
3538.5
3316.06
3075.79
2817.72
1968.34
1948.11
1928.54
1909.58
)


20
(
5922.29
5910.03
5873.25
5811.94
5726.11
5615.76
5480.89
5321.48
5137.55
4929.08
4696.08
4438.54
4156.46
3849.84
3518.67
3162.95
1992.23
1964.34
1937.37
1911.24
)


20
(
6949.34
6933.91
6887.6
6810.43
6702.39
6563.48
6393.7
6193.04
5961.51
5699.09
5405.8
5081.62
4726.55
4340.6
3923.75
3476
2002.41
1967.31
1933.35
1900.46
)


20
(
7884.72
7866.36
7811.27
7719.45
7590.9
7425.62
7223.61
6984.86
6709.38
6397.16
6048.21
5662.5
5240.05
4780.85
4284.9
3752.19
1998.98
1957.22
1916.82
1877.69
)


20
(
8713.9
8692.89
8629.88
8524.86
8377.84
8188.8
7957.75
7684.68
7369.6
7012.51
6613.39
6172.25
5689.08
5163.88
4596.65
3987.38
1982.22
1934.46
1888.25
1843.5
)


20
(
9423.97
9400.66
9330.72
9214.16
9050.97
8841.16
8584.71
8281.64
7931.93
7535.59
7092.61
6602.99
6066.73
5483.82
4854.26
4178.04
1952.57
1899.55
1848.27
1798.6
)


20
(
10003.9
9978.62
9902.86
9776.59
9599.82
9372.54
9094.75
8766.45
8387.63
7958.3
7478.44
6948.07
6367.17
5735.75
5053.79
4321.3
1910.61
1853.19
1797.63
1743.83
)


20
(
10444.6
10417.8
10337.4
10203.4
10015.8
9774.67
9479.91
9131.56
8729.61
8274.06
7764.9
7202.14
6585.77
5915.79
5192.2
4414.98
1857.12
1796.18
1737.24
1680.15
)


20
(
10739.1
10711.2
10627.5
10487.9
10292.5
10041.3
9734.19
9371.28
8952.54
8477.96
7947.53
7361.26
6719.15
6021.18
5267.36
4457.69
1792.98
1729.51
1668.1
1608.63
)


20
(
10883
10854.4
10768.6
10625.7
10425.5
10168.2
9853.62
9481.88
9052.95
8566.83
8023.5
7422.97
6765.24
6050.3
5278.14
4448.78
1719.27
1654.25
1591.35
1530.44
)


20
(
10874
10845.1
10758.7
10614.6
10412.8
10153.4
9836.36
9461.66
9029.31
8539.31
7991.65
7386.34
6723.36
6002.72
5224.41
4388.44
1637.19
1571.65
1508.25
1446.85
)


20
(
10712.2
10683.6
10597.8
10454.8
10254.7
9997.3
9682.74
9310.99
8882.04
8395.89
7852.54
7251.98
6594.22
5879.25
5107.07
4277.67
1548.07
1483.05
1420.15
1359.23
)


20
(
10400.3
10372.4
10288.6
10149
9953.61
9702.35
9395.25
9032.3
8613.52
8138.89
7608.42
7022.1
6379.93
5681.9
4928.03
4118.29
1453.4
1389.92
1328.51
1269.03
)


20
(
9943.26
9916.46
9836.06
9702.06
9514.46
9273.26
8978.46
8630.05
8228.04
7772.42
7263.19
6700.35
6083.9
5413.84
4690.15
3912.85
1354.7
1293.76
1234.81
1177.72
)


20
(
9348.2
9322.95
9247.17
9120.87
8944.06
8716.73
8438.88
8110.5
7731.6
7302.18
6822.23
6291.76
5710.75
5079.21
4397.14
3664.53
1253.47
1196.04
1140.47
1086.66
)


20
(
8624.14
8600.82
8530.86
8414.26
8251.02
8041.14
7784.62
7481.46
7131.65
6735.2
6292.1
5802.36
5265.96
4682.91
4053.21
3376.85
1150.91
1097.89
1046.59
996.916
)


20
(
7781.38
7760.37
7697.33
7592.27
7445.18
7256.07
7024.93
6751.77
6436.57
6079.34
5680.09
5238.8
4755.48
4230.12
3662.72
3053.28
1047.59
999.815
953.594
908.832
)


20
(
6831.03
6812.66
6757.54
6665.67
6537.05
6371.69
6169.57
5930.71
5655.1
5342.73
4993.61
4607.74
4185.11
3725.72
3229.58
2696.67
942.847
901.069
860.652
821.511
)


20
(
5783.55
5768.11
5721.77
5644.55
5536.43
5397.43
5227.53
5026.74
4795.05
4532.48
4239
3914.64
3559.37
3173.21
2756.14
2308.18
833.898
798.78
764.805
731.902
)


20
(
4647.62
4635.34
4598.53
4537.16
4451.25
4340.79
4205.79
4046.24
3862.14
3653.49
3420.29
3162.54
2880.24
2573.39
2241.98
1886.02
714.53
686.624
659.627
633.482
)


20
(
3428.4
3419.49
3392.77
3348.23
3285.88
3205.72
3107.74
2991.95
2858.34
2706.91
2537.66
2350.6
2145.72
1923.02
1682.5
1424.16
573.951
553.698
534.105
515.13
)


20
(
2130.87
2125.46
2109.26
2082.25
2044.44
1995.83
1936.42
1866.2
1785.18
1693.35
1590.72
1477.29
1353.05
1218.01
1072.16
915.506
399.946
387.665
375.784
364.277
)


20
(
774.681
772.87
767.436
758.38
745.702
729.401
709.478
685.932
658.765
627.975
593.564
555.53
513.875
468.598
419.699
367.179
194.335
190.218
186.235
182.377
)


20
(
2415.15
2413.38
2408.07
2399.22
2386.82
2370.88
2351.4
2328.37
2301.79
2271.66
2237.97
2200.73
2159.93
2115.57
2067.64
2016.15
1846.65
1842.61
1838.71
1834.93
)


20
(
3601.41
3596.1
3580.15
3553.57
3516.36
3468.51
3410.02
3340.9
3261.14
3170.74
3069.69
2957.99
2835.65
2702.65
2559
2404.69
1896.8
1884.71
1873
1861.67
)


20
(
4747.54
4738.76
4712.43
4668.54
4607.1
4528.1
4431.54
4317.42
4185.74
4036.49
3869.68
3685.3
3483.34
3263.81
3026.7
2772
1933.76
1913.79
1894.48
1875.77
)


20
(
5835.85
5823.75
5787.45
5726.95
5642.25
5533.34
5400.23
5242.92
5061.4
4855.67
4625.72
4371.56
4093.18
3790.58
3463.75
3112.7
1957.33
1929.81
1903.19
1877.4
)


20
(
6849.5
6834.27
6788.58
6712.42
6605.8
6468.71
6301.15
6103.12
5874.63
5615.65
5326.21
5006.28
4655.87
4274.98
3863.6
3421.72
1967.47
1932.83
1899.31
1866.86
)


20
(
7772.78
7754.66
7700.29
7609.67
7482.81
7319.7
7120.34
6884.73
6612.86
6304.74
5960.36
5579.71
5162.81
4709.63
4220.18
3694.46
1964.26
1923.05
1883.18
1844.57
)


20
(
8591.34
8570.61
8508.42
8404.78
8259.68
8073.13
7845.11
7575.63
7264.68
6912.27
6518.39
6083.03
5606.21
5087.9
4528.11
3926.84
1947.99
1900.86
1855.25
1811.09
)


20
(
9292.44
9269.43
9200.41
9085.38
8924.33
8717.27
8464.19
8165.09
7819.98
7428.84
6991.67
6508.47
5979.25
5403.99
4782.69
4115.35
1919.08
1866.76
1816.15
1767.14
)


20
(
9865.16
9840.23
9765.47
9640.86
9466.41
9242.11
8967.96
8643.97
8270.12
7846.42
7372.87
6849.46
6276.18
5653.04
4980.04
4257.16
1878.11
1821.44
1766.61
1713.52
)


20
(
10300.6
10274.1
10194.8
10062.6
9877.46
9639.46
9348.57
9004.79
8608.12
8158.55
7656.07
7100.7
6492.42
5831.23
5117.13
4350.12
1825.82
1765.69
1707.52
1651.18
)


20
(
10591.8
10564.3
10481.7
10343.9
10151.1
9903.13
9600.09
9241.95
8828.7
8360.34
7836.88
7258.31
6624.62
5935.81
5191.89
4392.84
1763.11
1700.47
1639.87
1581.18
)


20
(
10734.5
10706.3
10621.6
10480.5
10283
10029
9718.6
9351.74
8928.44
8448.69
7912.5
7319.85
6670.75
5965.19
5203.17
4384.69
1691.02
1626.85
1564.77
1504.66
)


20
(
10726.3
10697.8
10612.5
10470.3
10271.2
10015.2
9702.27
9332.49
8905.82
8422.24
7881.77
7284.4
6630.13
5918.95
5150.86
4325.85
1610.72
1546.04
1483.47
1422.87
)


20
(
10567.4
10539.2
10454.5
10313.4
10115.8
9861.86
9551.44
9184.56
8761.24
8281.47
7745.25
7152.58
6503.45
5797.87
5035.82
4217.31
1523.54
1459.37
1397.29
1337.18
)


20
(
10260.4
10232.8
10150.2
10012.4
9819.57
9571.6
9268.53
8910.35
8497.06
8028.67
7505.15
6926.53
6292.79
5603.93
4859.94
4060.84
1430.93
1368.28
1307.67
1248.98
)


20
(
9810.2
9783.75
9704.4
9572.16
9387.03
9148.99
8858.06
8514.23
8117.49
7667.85
7165.31
6609.86
6001.5
5340.23
4626.05
3858.95
1334.37
1274.24
1216.06
1159.72
)


20
(
9223.8
9198.87
9124.09
8999.46
8824.96
8600.61
8326.41
8002.34
7628.42
7204.63
6730.98
6207.47
5634.09
5010.84
4337.72
3614.73
1235.32
1178.64
1123.81
1070.7
)


20
(
8510.03
8487.02
8417.98
8302.91
8141.81
7934.69
7681.54
7382.35
7037.14
6645.89
6208.61
5725.29
5195.94
4620.54
3999.1
3331.62
1134.91
1082.58
1031.96
982.93
)


20
(
7679.02
7658.28
7596.07
7492.39
7347.23
7160.6
6932.5
6662.92
6351.86
5999.32
5605.31
5169.81
4692.83
4174.37
3614.42
3012.99
1033.62
986.473
940.859
896.684
)


20
(
6741.65
6723.52
6669.12
6578.46
6451.53
6288.34
6088.88
5853.15
5581.16
5272.89
4928.35
4547.54
4130.46
3677.11
3187.47
2661.57
930.765
889.535
849.649
811.022
)


20
(
5708.24
5692.99
5647.27
5571.06
5464.36
5327.18
5159.51
4961.35
4732.71
4473.58
4183.96
3863.85
3513.25
3132.15
2720.57
2278.48
823.556
788.898
755.37
722.899
)


20
(
4587.33
4575.22
4538.88
4478.32
4393.54
4284.53
4151.3
3993.85
3812.16
3606.25
3376.12
3121.75
2843.16
2540.33
2213.27
1861.99
705.873
678.333
651.69
625.888
)


20
(
3384.15
3375.36
3348.98
3305.03
3243.5
3164.39
3067.7
2953.42
2821.57
2672.13
2505.1
2320.5
2118.31
1898.53
1661.17
1406.22
567.167
547.18
527.844
509.118
)


20
(
2103.76
2098.43
2082.44
2055.79
2018.48
1970.5
1911.87
1842.57
1762.61
1671.99
1570.71
1458.76
1336.16
1202.89
1058.95
904.353
395.559
383.439
371.714
360.359
)


20
(
765.579
763.791
758.429
749.492
736.979
720.892
701.231
677.994
651.183
620.797
586.837
549.302
508.193
463.51
415.253
363.422
192.845
188.782
184.851
181.044
)


20
(
2447.89
2446.1
2440.73
2431.79
2419.26
2403.15
2383.46
2360.19
2333.33
2302.88
2268.84
2231.2
2189.97
2145.14
2096.71
2044.67
1873.38
1869.3
1865.35
1861.53
)


20
(
3646.93
3641.56
3625.44
3598.58
3560.97
3512.61
3453.51
3383.65
3303.04
3211.68
3109.56
2996.67
2873.03
2738.62
2593.43
2437.48
1924.19
1911.97
1900.14
1888.69
)


20
(
4805.34
4796.46
4769.85
4725.5
4663.4
4583.56
4485.97
4370.64
4237.56
4086.72
3918.13
3731.79
3527.68
3305.81
3066.18
2808.77
1961.6
1941.42
1921.9
1903
)


20
(
5905.24
5893.01
5856.32
5795.18
5709.57
5599.51
5464.98
5305.99
5122.54
4914.61
4682.22
4425.35
4144.01
3838.18
3507.88
3153.08
1985.41
1957.6
1930.69
1904.63
)


20
(
6929.61
6914.22
6868.03
6791.06
6683.31
6544.76
6375.41
6175.28
5944.35
5682.62
5390.09
5066.75
4712.61
4327.66
3911.9
3465.31
1995.56
1960.55
1926.68
1893.88
)


20
(
7862.57
7844.25
7789.31
7697.72
7569.51
7404.66
7203.18
6965.06
6690.29
6378.89
6030.84
5646.14
5224.79
4766.78
4272.12
3740.8
1992.16
1950.51
1910.21
1871.19
)


20
(
8689.62
8668.67
8605.82
8501.08
8354.43
8165.89
7935.44
7663.09
7348.83
6992.66
6594.58
6154.59
5672.68
5148.85
4583.1
3975.42
1975.49
1927.85
1881.76
1837.12
)


20
(
9397.89
9374.64
9304.89
9188.63
9025.87
8816.6
8560.82
8258.54
7909.74
7514.43
7072.61
6584.27
6049.4
5468.01
4840.09
4165.64
1945.96
1893.09
1841.94
1792.4
)


20
(
9976.36
9951.17
9875.61
9749.67
9573.36
9346.67
9069.6
8742.16
8364.33
7936.11
7457.51
6928.52
6349.13
5719.35
5039.17
4308.59
1904.19
1846.91
1791.5
1737.84
)


20
(
10416
10389.3
10309.1
10175.4
9988.37
9747.83
9453.85
9106.4
8705.5
8251.14
7743.31
7182.01
6567.25
5899.02
5177.31
4402.12
1850.92
1790.15
1731.35
1674.42
)


20
(
10709.9
10682
10598.5
10459.3
10264.4
10013.8
9707.56
9345.6
8927.95
8454.61
7925.56
7340.82
6700.38
6004.23
5252.38
4444.81
1787.06
1723.75
1662.5
1603.18
)


20
(
10853.5
10825
10739.4
10596.8
10397.2
10140.5
9826.8
9456.04
9028.22
8543.36
8001.45
7402.49
6746.47
6033.39
5263.25
4436.05
1713.66
1648.81
1586.07
1525.31
)


20
(
10844.6
10815.9
10729.6
10585.9
10384.7
10125.9
9809.72
9436
9004.78
8516.05
7969.82
7366.08
6704.83
5986.07
5209.79
4376
1631.92
1566.55
1503.32
1442.07
)


20
(
10683.4
10654.9
10569.3
10426.7
10227.1
9970.39
9656.65
9285.87
8858.03
8373.15
7831.21
7232.22
6576.18
5863.07
5092.9
4265.67
1543.18
1478.33
1415.59
1354.83
)


20
(
10372.5
10344.6
10261.1
10121.9
9926.97
9676.36
9370.06
9008.06
8590.37
8116.98
7587.89
7003.1
6362.6
5666.39
4914.48
4106.86
1448.91
1385.6
1324.34
1265.02
)


20
(
9916.81
9890.08
9809.89
9676.24
9489.13
9248.55
8954.52
8607.02
8206.06
7751.63
7243.73
6682.36
6067.51
5399.19
4677.4
3902.12
1350.64
1289.86
1231.06
1174.12
)


20
(
9323.47
9298.28
9222.7
9096.73
8920.38
8693.64
8416.51
8088.99
7711.08
7282.78
6804.08
6274.99
5695.5
5065.61
4385.31
3654.61
1249.84
1192.55
1137.13
1083.47
)


20
(
8601.45
8578.19
8508.41
8392.12
8229.31
8019.98
7764.13
7461.75
7112.86
6717.44
6275.5
5787.03
5252.03
4670.5
4042.44
3367.84
1147.71
1094.82
1043.66
994.11
)


20
(
7761.03
7740.07
7677.2
7572.41
7425.71
7237.09
7006.55
6734.1
6419.72
6063.43
5665.21
5225.07
4743.01
4219.02
3653.1
3045.26
1044.79
997.139
951.038
906.393
)


20
(
6813.26
6794.93
6739.95
6648.33
6520.04
6355.11
6153.52
5915.28
5640.39
5328.84
4980.63
4595.76
4174.23
3716.04
3221.19
2689.67
940.422
898.753
858.442
819.403
)


20
(
5768.57
5753.17
5706.95
5629.93
5522.1
5383.45
5214
5013.73
4782.65
4520.76
4228.05
3904.53
3550.19
3165.03
2749.05
2302.26
831.821
796.793
762.907
730.091
)


20
(
4635.62
4623.38
4586.66
4525.45
4439.77
4329.6
4194.95
4035.81
3852.19
3644.09
3411.5
3154.42
2872.85
2566.8
2236.26
1881.23
712.788
684.954
658.028
631.951
)


20
(
3419.59
3410.7
3384.05
3339.63
3277.45
3197.49
3099.77
2984.27
2851.01
2699.98
2531.18
2344.6
2140.26
1918.14
1678.25
1420.58
572.582
552.382
532.84
513.914
)


20
(
2125.47
2120.08
2103.92
2076.98
2039.27
1990.79
1931.53
1861.49
1780.68
1689.1
1586.73
1473.6
1349.68
1214.99
1069.52
913.275
399.058
386.809
374.959
363.483
)


20
(
772.871
771.064
765.645
756.612
743.967
727.708
707.837
684.353
657.256
626.547
592.225
554.29
512.744
467.584
418.813
366.43
194.036
189.93
185.957
182.109
)


20
(
2447.89
2446.1
2440.73
2431.79
2419.26
2403.15
2383.46
2360.19
2333.33
2302.88
2268.84
2231.2
2189.97
2145.14
2096.71
2044.67
1873.38
1869.3
1865.35
1861.53
)


20
(
3646.93
3641.56
3625.44
3598.58
3560.97
3512.61
3453.51
3383.65
3303.04
3211.68
3109.56
2996.67
2873.03
2738.62
2593.43
2437.48
1924.19
1911.97
1900.14
1888.69
)


20
(
4805.34
4796.47
4769.85
4725.5
4663.4
4583.56
4485.98
4370.64
4237.56
4086.72
3918.13
3731.79
3527.68
3305.81
3066.18
2808.77
1961.6
1941.43
1921.9
1903
)


20
(
5905.24
5893.01
5856.32
5795.18
5709.57
5599.51
5464.98
5305.99
5122.54
4914.61
4682.22
4425.35
4144.01
3838.18
3507.88
3153.08
1985.41
1957.6
1930.69
1904.63
)


20
(
6929.61
6914.22
6868.03
6791.06
6683.3
6544.75
6375.41
6175.28
5944.35
5682.62
5390.09
5066.75
4712.61
4327.66
3911.89
3465.31
1995.56
1960.55
1926.68
1893.88
)


20
(
7862.57
7844.25
7789.3
7697.72
7569.51
7404.66
7203.18
6965.06
6690.29
6378.89
6030.84
5646.14
5224.79
4766.78
4272.12
3740.8
1992.16
1950.51
1910.21
1871.19
)


20
(
8689.62
8668.67
8605.82
8501.08
8354.43
8165.89
7935.44
7663.09
7348.83
6992.66
6594.58
6154.59
5672.68
5148.85
4583.1
3975.42
1975.49
1927.85
1881.76
1837.12
)


20
(
9397.89
9374.64
9304.89
9188.63
9025.87
8816.6
8560.82
8258.54
7909.74
7514.43
7072.61
6584.26
6049.4
5468.01
4840.09
4165.64
1945.96
1893.09
1841.94
1792.4
)


20
(
9976.36
9951.17
9875.61
9749.67
9573.36
9346.67
9069.6
8742.16
8364.33
7936.11
7457.51
6928.52
6349.13
5719.35
5039.17
4308.59
1904.19
1846.91
1791.5
1737.84
)


20
(
10416
10389.3
10309.1
10175.4
9988.37
9747.83
9453.85
9106.4
8705.5
8251.14
7743.31
7182.01
6567.25
5899.02
5177.31
4402.12
1850.92
1790.15
1731.35
1674.42
)


20
(
10709.9
10682
10598.5
10459.3
10264.4
10013.8
9707.56
9345.6
8927.95
8454.61
7925.56
7340.82
6700.38
6004.23
5252.38
4444.81
1787.06
1723.75
1662.5
1603.18
)


20
(
10853.5
10825
10739.4
10596.8
10397.2
10140.5
9826.8
9456.04
9028.22
8543.36
8001.45
7402.49
6746.47
6033.39
5263.25
4436.05
1713.66
1648.81
1586.07
1525.31
)


20
(
10844.6
10815.9
10729.6
10585.9
10384.7
10125.9
9809.72
9436
9004.78
8516.05
7969.82
7366.08
6704.83
5986.07
5209.79
4376
1631.92
1566.55
1503.31
1442.07
)


20
(
10683.4
10654.9
10569.3
10426.7
10227.1
9970.39
9656.65
9285.86
8858.03
8373.15
7831.21
7232.22
6576.18
5863.07
5092.9
4265.67
1543.18
1478.33
1415.59
1354.83
)


20
(
10372.5
10344.6
10261.1
10121.9
9926.97
9676.36
9370.06
9008.06
8590.37
8116.98
7587.89
7003.1
6362.6
5666.39
4914.48
4106.86
1448.91
1385.6
1324.34
1265.02
)


20
(
9916.81
9890.08
9809.89
9676.24
9489.13
9248.55
8954.52
8607.02
8206.06
7751.63
7243.73
6682.36
6067.51
5399.19
4677.4
3902.12
1350.64
1289.86
1231.06
1174.12
)


20
(
9323.47
9298.28
9222.7
9096.73
8920.38
8693.64
8416.51
8088.99
7711.08
7282.78
6804.08
6274.99
5695.5
5065.61
4385.31
3654.61
1249.84
1192.55
1137.13
1083.47
)


20
(
8601.45
8578.19
8508.41
8392.12
8229.31
8019.98
7764.12
7461.75
7112.86
6717.44
6275.5
5787.02
5252.03
4670.5
4042.44
3367.84
1147.71
1094.82
1043.66
994.11
)


20
(
7761.03
7740.07
7677.2
7572.41
7425.71
7237.09
7006.55
6734.1
6419.72
6063.43
5665.21
5225.07
4743.01
4219.02
3653.1
3045.26
1044.79
997.139
951.038
906.393
)


20
(
6813.26
6794.93
6739.95
6648.32
6520.04
6355.11
6153.52
5915.28
5640.39
5328.84
4980.63
4595.76
4174.23
3716.04
3221.19
2689.67
940.422
898.753
858.442
819.403
)


20
(
5768.57
5753.17
5706.95
5629.93
5522.1
5383.45
5214
5013.73
4782.65
4520.76
4228.05
3904.53
3550.19
3165.03
2749.05
2302.26
831.821
796.793
762.907
730.091
)


20
(
4635.62
4623.38
4586.66
4525.45
4439.77
4329.6
4194.95
4035.81
3852.19
3644.09
3411.5
3154.42
2872.85
2566.8
2236.26
1881.23
712.788
684.954
658.028
631.951
)


20
(
3419.59
3410.7
3384.05
3339.63
3277.45
3197.49
3099.77
2984.27
2851.01
2699.98
2531.18
2344.6
2140.26
1918.14
1678.25
1420.58
572.582
552.382
532.84
513.914
)


20
(
2125.47
2120.08
2103.92
2076.98
2039.27
1990.79
1931.53
1861.49
1780.68
1689.1
1586.73
1473.6
1349.68
1214.99
1069.52
913.274
399.058
386.809
374.959
363.483
)


20
(
772.871
771.064
765.645
756.612
743.967
727.708
707.837
684.353
657.256
626.547
592.225
554.29
512.744
467.585
418.813
366.43
194.036
189.93
185.957
182.109
)


20
(
2415.16
2413.38
2408.07
2399.22
2386.82
2370.88
2351.4
2328.37
2301.79
2271.66
2237.97
2200.73
2159.93
2115.57
2067.65
2016.15
1846.65
1842.62
1838.71
1834.93
)


20
(
3601.42
3596.1
3580.15
3553.57
3516.36
3468.51
3410.03
3340.9
3261.14
3170.74
3069.69
2958
2835.65
2702.65
2559
2404.69
1896.8
1884.71
1873
1861.67
)


20
(
4747.54
4738.76
4712.43
4668.54
4607.1
4528.1
4431.54
4317.42
4185.74
4036.5
3869.68
3685.3
3483.34
3263.81
3026.7
2772
1933.76
1913.8
1894.48
1875.77
)


20
(
5835.85
5823.75
5787.45
5726.95
5642.25
5533.35
5400.24
5242.92
5061.4
4855.67
4625.72
4371.56
4093.18
3790.58
3463.75
3112.7
1957.34
1929.81
1903.19
1877.41
)


20
(
6849.5
6834.27
6788.58
6712.42
6605.8
6468.71
6301.15
6103.12
5874.63
5615.66
5326.21
5006.28
4655.87
4274.98
3863.6
3421.72
1967.47
1932.83
1899.32
1866.86
)


20
(
7772.78
7754.66
7700.29
7609.68
7482.81
7319.7
7120.34
6884.73
6612.86
6304.74
5960.36
5579.72
5162.81
4709.63
4220.19
3694.47
1964.27
1923.05
1883.18
1844.57
)


20
(
8591.34
8570.61
8508.43
8404.79
8259.69
8073.13
7845.11
7575.63
7264.68
6912.27
6518.39
6083.04
5606.21
5087.9
4528.11
3926.84
1947.99
1900.86
1855.26
1811.09
)


20
(
9292.44
9269.43
9200.41
9085.38
8924.33
8717.27
8464.19
8165.1
7819.98
7428.84
6991.67
6508.47
5979.25
5403.99
4782.69
4115.35
1919.08
1866.76
1816.15
1767.14
)


20
(
9865.16
9840.24
9765.47
9640.86
9466.41
9242.11
8967.97
8643.97
8270.13
7846.43
7372.87
6849.46
6276.18
5653.04
4980.04
4257.16
1878.11
1821.44
1766.62
1713.52
)


20
(
10300.6
10274.1
10194.8
10062.6
9877.46
9639.46
9348.58
9004.8
8608.12
8158.55
7656.07
7100.7
6492.42
5831.23
5117.14
4350.12
1825.83
1765.69
1707.52
1651.19
)


20
(
10591.8
10564.3
10481.7
10343.9
10151.1
9903.13
9600.09
9241.95
8828.7
8360.35
7836.88
7258.31
6624.62
5935.81
5191.89
4392.84
1763.11
1700.47
1639.87
1581.18
)


20
(
10734.5
10706.3
10621.6
10480.5
10283
10029
9718.6
9351.74
8928.44
8448.69
7912.5
7319.85
6670.75
5965.19
5203.17
4384.69
1691.02
1626.85
1564.78
1504.66
)


20
(
10726.3
10697.8
10612.5
10470.3
10271.2
10015.2
9702.27
9332.49
8905.82
8422.24
7881.77
7284.4
6630.13
5918.95
5150.86
4325.86
1610.72
1546.04
1483.47
1422.88
)


20
(
10567.4
10539.2
10454.5
10313.4
10115.8
9861.86
9551.44
9184.56
8761.24
8281.47
7745.25
7152.58
6503.45
5797.87
5035.82
4217.31
1523.54
1459.37
1397.3
1337.18
)


20
(
10260.4
10232.8
10150.2
10012.4
9819.57
9571.6
9268.53
8910.35
8497.06
8028.67
7505.16
6926.53
6292.79
5603.93
4859.95
4060.84
1430.93
1368.28
1307.67
1248.98
)


20
(
9810.2
9783.75
9704.41
9572.17
9387.03
9148.99
8858.06
8514.23
8117.49
7667.85
7165.31
6609.86
6001.5
5340.23
4626.05
3858.95
1334.38
1274.24
1216.06
1159.72
)


20
(
9223.8
9198.88
9124.09
8999.46
8824.96
8600.62
8326.41
8002.34
7628.42
7204.63
6730.99
6207.47
5634.09
5010.84
4337.73
3614.73
1235.32
1178.64
1123.81
1070.71
)


20
(
8510.03
8487.02
8417.98
8302.91
8141.82
7934.69
7681.54
7382.36
7037.14
6645.89
6208.61
5725.29
5195.94
4620.54
3999.1
3331.63
1134.91
1082.58
1031.96
982.931
)


20
(
7679.02
7658.28
7596.07
7492.39
7347.23
7160.6
6932.5
6662.92
6351.86
5999.32
5605.31
5169.81
4692.83
4174.37
3614.42
3012.99
1033.62
986.474
940.86
896.685
)


20
(
6741.65
6723.52
6669.12
6578.46
6451.53
6288.34
6088.88
5853.15
5581.16
5272.89
4928.35
4547.54
4130.46
3677.11
3187.48
2661.57
930.765
889.536
849.65
811.022
)


20
(
5708.24
5692.99
5647.27
5571.06
5464.36
5327.18
5159.51
4961.35
4732.71
4473.58
4183.96
3863.85
3513.25
3132.15
2720.57
2278.48
823.557
788.899
755.37
722.9
)


20
(
4587.33
4575.22
4538.89
4478.33
4393.54
4284.54
4151.3
3993.85
3812.16
3606.25
3376.12
3121.75
2843.16
2540.33
2213.28
1861.99
705.874
678.334
651.691
625.889
)


20
(
3384.15
3375.36
3348.99
3305.04
3243.5
3164.39
3067.7
2953.42
2821.57
2672.13
2505.11
2320.5
2118.31
1898.53
1661.17
1406.22
567.168
547.181
527.845
509.119
)


20
(
2103.76
2098.43
2082.44
2055.79
2018.48
1970.5
1911.87
1842.57
1762.61
1671.99
1570.71
1458.77
1336.16
1202.89
1058.95
904.353
395.56
383.44
371.715
360.36
)


20
(
765.579
763.792
758.429
749.492
736.98
720.893
701.231
677.994
651.183
620.797
586.837
549.302
508.193
463.51
415.253
363.422
192.845
188.782
184.851
181.044
)


20
(
2455.79
2454
2448.62
2439.65
2427.09
2410.94
2391.2
2367.86
2340.93
2310.4
2276.27
2238.54
2197.2
2152.26
2103.7
2051.53
1879.79
1875.7
1871.74
1867.91
)


20
(
3658.02
3652.64
3636.48
3609.54
3571.84
3523.35
3464.09
3394.06
3313.24
3221.63
3119.25
3006.07
2882.1
2747.34
2601.78
2445.42
1930.79
1918.54
1906.68
1895.19
)


20
(
4819.49
4810.6
4783.92
4739.45
4677.19
4597.14
4499.3
4383.67
4250.23
4099.01
3929.98
3743.14
3538.51
3316.06
3075.8
2817.72
1968.34
1948.11
1928.54
1909.58
)


20
(
5922.29
5910.03
5873.25
5811.94
5726.11
5615.76
5480.89
5321.48
5137.55
4929.08
4696.08
4438.54
4156.46
3849.84
3518.67
3162.95
1992.23
1964.34
1937.37
1911.24
)


20
(
6949.34
6933.91
6887.6
6810.43
6702.39
6563.48
6393.7
6193.04
5961.51
5699.09
5405.8
5081.62
4726.55
4340.6
3923.74
3476
2002.41
1967.31
1933.35
1900.46
)


20
(
7884.72
7866.36
7811.27
7719.45
7590.9
7425.62
7223.61
6984.86
6709.38
6397.16
6048.2
5662.5
5240.05
4780.85
4284.9
3752.19
1998.98
1957.22
1916.82
1877.69
)


20
(
8713.9
8692.89
8629.88
8524.86
8377.84
8188.8
7957.75
7684.68
7369.6
7012.51
6613.39
6172.25
5689.08
5163.88
4596.65
3987.38
1982.22
1934.46
1888.25
1843.5
)


20
(
9423.97
9400.66
9330.72
9214.16
9050.97
8841.16
8584.71
8281.64
7931.93
7535.59
7092.61
6602.99
6066.73
5483.82
4854.26
4178.04
1952.57
1899.55
1848.27
1798.6
)


20
(
10003.9
9978.62
9902.86
9776.59
9599.82
9372.54
9094.75
8766.45
8387.63
7958.3
7478.44
6948.07
6367.17
5735.75
5053.79
4321.3
1910.61
1853.19
1797.63
1743.83
)


20
(
10444.6
10417.8
10337.4
10203.4
10015.8
9774.67
9479.91
9131.56
8729.61
8274.06
7764.9
7202.14
6585.77
5915.79
5192.2
4414.98
1857.12
1796.18
1737.24
1680.15
)


20
(
10739.1
10711.2
10627.5
10487.9
10292.5
10041.3
9734.19
9371.28
8952.54
8477.96
7947.53
7361.26
6719.15
6021.18
5267.36
4457.69
1792.98
1729.51
1668.1
1608.63
)


20
(
10883
10854.4
10768.6
10625.7
10425.5
10168.2
9853.62
9481.88
9052.95
8566.83
8023.5
7422.97
6765.24
6050.29
5278.14
4448.78
1719.27
1654.25
1591.35
1530.44
)


20
(
10874
10845.1
10758.7
10614.6
10412.8
10153.4
9836.36
9461.66
9029.31
8539.31
7991.65
7386.33
6723.36
6002.72
5224.41
4388.44
1637.19
1571.65
1508.25
1446.85
)


20
(
10712.2
10683.6
10597.8
10454.8
10254.7
9997.3
9682.74
9310.99
8882.04
8395.89
7852.54
7251.98
6594.22
5879.25
5107.07
4277.67
1548.07
1483.05
1420.15
1359.23
)


20
(
10400.3
10372.4
10288.6
10149
9953.61
9702.35
9395.25
9032.3
8613.52
8138.89
7608.42
7022.1
6379.93
5681.9
4928.03
4118.29
1453.4
1389.92
1328.51
1269.03
)


20
(
9943.26
9916.46
9836.06
9702.06
9514.46
9273.26
8978.46
8630.05
8228.04
7772.42
7263.19
6700.35
6083.9
5413.84
4690.16
3912.85
1354.7
1293.76
1234.81
1177.72
)


20
(
9348.2
9322.95
9247.17
9120.87
8944.06
8716.73
8438.88
8110.5
7731.6
7302.18
6822.23
6291.76
5710.75
5079.21
4397.14
3664.53
1253.47
1196.04
1140.47
1086.66
)


20
(
8624.14
8600.82
8530.86
8414.26
8251.02
8041.14
7784.62
7481.46
7131.65
6735.2
6292.1
5802.36
5265.96
4682.91
4053.21
3376.85
1150.91
1097.89
1046.59
996.916
)


20
(
7781.38
7760.37
7697.33
7592.27
7445.18
7256.07
7024.93
6751.77
6436.57
6079.34
5680.09
5238.8
4755.48
4230.12
3662.72
3053.28
1047.59
999.815
953.594
908.832
)


20
(
6831.03
6812.66
6757.54
6665.67
6537.05
6371.69
6169.57
5930.71
5655.1
5342.73
4993.61
4607.74
4185.11
3725.72
3229.58
2696.67
942.847
901.069
860.652
821.511
)


20
(
5783.55
5768.11
5721.77
5644.55
5536.43
5397.43
5227.53
5026.74
4795.05
4532.48
4239
3914.64
3559.37
3173.21
2756.14
2308.18
833.898
798.78
764.805
731.902
)


20
(
4647.62
4635.35
4598.53
4537.16
4451.25
4340.79
4205.79
4046.24
3862.14
3653.49
3420.29
3162.54
2880.24
2573.39
2241.98
1886.02
714.53
686.624
659.627
633.482
)


20
(
3428.4
3419.49
3392.77
3348.24
3285.89
3205.72
3107.74
2991.95
2858.34
2706.91
2537.67
2350.6
2145.72
1923.02
1682.5
1424.16
573.951
553.698
534.105
515.13
)


20
(
2130.86
2125.46
2109.26
2082.25
2044.44
1995.83
1936.42
1866.2
1785.18
1693.35
1590.72
1477.29
1353.05
1218.01
1072.16
915.506
399.946