/*--------------------------------*- C++ -*----------------------------------*\
| =========                 |                                                 |
| \\      /  F ield         | OpenFOAM: The Open Source CFD Toolbox           |
|  \\    /   O peration     | Version:  2212                                  |
|   \\  /    A nd           | Website:  www.openfoam.com                      |
|    \\/     M anipulation  |                                                 |
\*---------------------------------------------------------------------------*/
FoamFile
{
    version     2.0;
    format      ascii;
    arch        "LSB;label=32;scalar=64";
    class       surfaceScalarField;
    location    "200/neutroRegion";
    object      meshPhi;
}
// * * * * * * * * * * * * * * * * * * * * * * * * * * * * * * * * * * * * * //

dimensions      [0 3 -1 0 0 0 0];

internalField   nonuniform List<scalar> 
56256
(
-3.903498e-16
1.24451e-14
-5.279616e-15
1.231303e-14
3.056619e-16
-3.806492e-16
1.344049e-14
-6.644172e-15
1.358774e-14
1.219155e-14
-7.821278e-15
1.255711e-14
-1.32627e-15
-1.22886e-14
4.39241e-14
1.046228e-15
-1.219761e-15
-1.3203e-14
4.693762e-14
-1.198296e-14
4.125907e-14
-1.502195e-16
6.585745e-15
6.718297e-15
1.206926e-16
-8.513041e-17
6.366893e-15
6.219961e-15
4.388855e-15
4.023221e-15
-8.134792e-16
-6.360349e-15
3.143756e-14
6.429144e-16
-6.369063e-16
-6.3192e-15
3.172255e-14
-4.602538e-15
2.507262e-14
-1.474115e-16
5.36327e-15
6.451134e-15
1.099282e-16
-1.000615e-16
6.0716e-15
6.458397e-15
6.739071e-15
4.778017e-15
-3.818948e-16
1.219829e-14
3.082882e-16
-3.624935e-16
1.306398e-14
1.180741e-14
-9.340865e-16
2.418614e-14
2.396088e-14
7.362021e-16
-8.620893e-16
2.643422e-14
2.638668e-14
2.449141e-14
2.470529e-14
-1.187692e-15
6.465874e-14
-2.410594e-14
9.310304e-16
-1.199732e-15
7.492232e-14
-2.695515e-14
7.66434e-14
-2.61709e-14
4.724359e-17
3.897229e-14
3.882756e-14
-3.6288e-17
5.428177e-17
4.797014e-14
4.841933e-14
5.30687e-14
5.466974e-14
4.701778e-17
3.898418e-14
-6.411639e-14
3.856806e-14
-3.612053e-17
5.440248e-17
4.799988e-14
-7.472397e-14
4.83499e-14
5.311469e-14
-7.741344e-14
5.510099e-14
4.434628e-17
9.09726e-14
-3.36518e-17
5.355164e-17
1.179263e-13
1.389414e-13
-1.173623e-15
-2.360851e-14
9.189895e-16
-1.20609e-15
-2.68081e-14
-2.677074e-14
-2.100241e-16
-6.628725e-15
3.171723e-14
1.713258e-16
-1.800051e-16
-6.979609e-15
3.334595e-14
-6.471279e-15
2.954754e-14
-7.81227e-17
6.842091e-15
4.585764e-15
6.655162e-17
-6.020109e-17
7.078926e-15
6.741549e-15
6.225371e-15
9.051809e-15
-4.746084e-16
2.395297e-14
3.766398e-16
-4.745929e-16
2.764607e-14
2.854676e-14
8.664134e-18
2.963339e-14
-5.902426e-15
-7.019849e-18
9.406591e-18
3.501994e-14
-7.167915e-15
3.835985e-14
-8.191753e-15
1.056578e-17
2.30027e-14
2.201873e-14
-8.321366e-18
1.25896e-17
2.790979e-14
2.794099e-14
3.109203e-14
3.297871e-14
8.27462e-18
6.24046e-14
-6.478025e-18
9.408609e-18
7.627099e-14
8.484172e-14
1.337565e-17
-1.152579e-14
3.961949e-14
-1.035498e-14
-1.034964e-17
1.666621e-17
-1.403406e-14
4.952837e-14
-1.399386e-14
-1.563319e-14
5.690802e-14
-1.758601e-14
-1.86475e-16
1.175944e-14
1.44576e-16
-2.219981e-16
1.415611e-14
1.541293e-14
-3.349463e-16
4.312469e-14
2.609319e-16
-3.441692e-16
4.853735e-14
4.736489e-14
1.346972e-17
2.852296e-14
2.729495e-14
-1.040181e-17
1.663268e-17
3.536017e-14
3.524385e-14
4.010788e-14
4.195193e-14
-6.060233e-16
2.944237e-14
3.008553e-14
4.739222e-16
-6.391877e-16
3.484873e-14
3.438385e-14
3.714521e-14
3.4407e-14
1.008469e-17
7.397152e-14
-7.838115e-18
1.17362e-17
9.080461e-14
1.014831e-13
-1.454754e-15
7.634311e-14
-3.023067e-14
1.133485e-15
-1.506824e-15
8.896443e-14
-3.383276e-14
9.185192e-14
-3.238692e-14
-1.440573e-15
-3.007411e-14
7.554093e-14
-2.952718e-14
1.118361e-15
-1.502155e-15
-3.359555e-14
8.872229e-14
-3.402469e-14
-3.217836e-14
9.186028e-14
-3.420177e-14
5.481094e-17
4.504996e-14
4.482524e-14
-4.231116e-17
6.27283e-17
5.501001e-14
5.54704e-14
6.052914e-14
6.244804e-14
-1.208458e-15
9.430751e-16
-1.16869e-15
5.05418e-17
-4.48058e-14
1.029283e-13
-3.875234e-17
6.028121e-17
-5.469156e-14
1.313718e-13
-6.025166e-14
1.535651e-13
5.433357e-17
4.418002e-14
-4.180992e-17
6.253881e-17
5.503098e-14
6.217477e-14
9.993129e-18
-2.808399e-14
-2.892504e-14
7.252577e-14
-7.611981e-18
1.182241e-17
-3.54699e-14
-3.467416e-14
9.088843e-14
-4.040706e-14
-3.706264e-14
1.022628e-13
1.340448e-17
-3.924409e-14
2.690236e-14
-1.014471e-17
1.678404e-17
-4.947704e-14
3.543424e-14
-5.695068e-14
4.244564e-14
-1.855608e-16
1.15696e-14
1.168482e-14
-4.989628e-15
1.476983e-16
-2.084186e-16
1.376111e-14
1.381517e-14
-5.729152e-15
1.47574e-14
1.478317e-14
-6.388649e-15
-5.978868e-16
-4.257816e-14
4.640986e-16
-6.363394e-16
-4.795458e-14
-4.677333e-14
1.337534e-17
-1.044385e-14
-1.031789e-17
1.638731e-17
-1.380233e-14
-1.690451e-14
-3.296668e-16
2.601698e-16
-3.343505e-16
8.341741e-18
-6.294893e-15
2.81614e-14
-5.393658e-15
-6.32281e-18
1.047565e-17
-7.447287e-15
3.589283e-14
-7.674592e-15
-7.992258e-15
4.201271e-14
-9.829336e-15
-2.040884e-16
-6.199245e-15
3.049148e-14
1.601642e-16
-1.960812e-16
-7.416547e-15
3.354895e-14
-7.993722e-15
3.193153e-14
-7.366144e-17
5.575532e-17
-8.16366e-17
1.039675e-17
2.244807e-14
2.150363e-14
-7.920569e-18
1.317084e-17
2.827569e-14
2.84437e-14
3.272882e-14
3.448056e-14
-4.628946e-16
2.329515e-14
3.648039e-16
-4.863714e-16
2.769626e-14
2.990845e-14
8.135176e-18
6.152784e-14
-6.305736e-18
9.648486e-18
7.650438e-14
8.692433e-14
2.902108e-15
6.461445e-14
-1.152251e-13
6.476174e-14
-2.128356e-15
3.989535e-15
8.849661e-14
-1.577984e-13
8.87729e-14
1.106063e-13
-1.973071e-13
1.103617e-13
2.920148e-15
6.50212e-14
-1.153853e-13
6.525012e-14
-2.136585e-15
4.01202e-15
8.91201e-14
-1.580558e-13
8.952751e-14
1.11236e-13
-1.97703e-13
1.111906e-13
3.119048e-15
1.441839e-13
-2.27783e-15
4.27832e-15
1.977718e-13
2.455903e-13
3.354237e-16
-5.154376e-14
-5.161822e-14
-2.488166e-16
4.526805e-16
-6.888046e-14
-6.907357e-14
-8.430334e-14
-8.396254e-14
3.352093e-16
-5.155545e-14
-5.154936e-14
-2.485316e-16
4.521744e-16
-6.891019e-14
-6.897456e-14
-8.434974e-14
-8.381136e-14
3.211827e-16
-2.406714e-16
4.228143e-16
9.42936e-17
3.662162e-14
-5.850776e-14
3.75869e-14
-7.038917e-17
1.230281e-16
4.908586e-14
-7.688764e-14
4.900819e-14
5.963825e-14
-9.30143e-14
5.806832e-14
7.875271e-16
3.683911e-14
-5.589904e-14
3.641671e-14
-5.646487e-16
1.078211e-15
4.965152e-14
-7.897707e-14
5.050256e-14
6.008192e-14
-1.009763e-13
6.233417e-14
6.288278e-17
2.11054e-14
2.014205e-14
-2.589929e-14
-4.756237e-17
8.713454e-17
2.809418e-14
2.798235e-14
-3.508115e-14
3.466627e-14
3.577868e-14
-4.468029e-14
9.081277e-16
9.030228e-14
-6.602874e-16
1.193358e-15
1.203713e-13
1.431948e-13
7.748445e-17
-5.925376e-17
1.009971e-16
5.381083e-16
-1.983574e-14
-3.901522e-16
7.801318e-16
-2.899553e-14
-3.825003e-14
9.508237e-17
6.987009e-14
-2.626906e-14
-7.211214e-17
1.253998e-16
9.200096e-14
-3.54676e-14
1.11306e-13
-4.408905e-14
1.107729e-16
4.276004e-14
4.385041e-14
-8.269343e-17
1.447474e-16
5.733359e-14
5.72025e-14
6.972127e-14
6.772762e-14
8.07982e-17
2.518403e-14
-3.519425e-14
-5.991649e-17
1.14614e-16
3.555324e-14
-4.974458e-14
4.580865e-14
-6.444084e-14
9.161934e-16
4.273205e-14
-6.656017e-14
4.207062e-14
-6.614703e-16
1.254057e-15
5.755793e-14
-9.358445e-14
5.808478e-14
6.975051e-14
-1.195627e-13
7.170306e-14
1.048533e-15
1.032451e-13
-7.645462e-16
1.379479e-15
1.374493e-13
1.63544e-13
6.589842e-16
-2.466005e-14
-4.769614e-16
9.619542e-16
-3.627122e-14
-4.802181e-14
3.213538e-15
-1.290848e-13
7.107503e-14
7.154021e-14
-2.359548e-15
4.35307e-15
-1.746542e-13
9.672791e-14
9.720264e-14
-2.156357e-13
1.197261e-13
1.197179e-13
3.198413e-15
-1.282956e-13
7.090533e-14
7.097436e-14
-2.344265e-15
4.331153e-15
-1.731269e-13
9.680338e-14
9.651386e-14
-2.138512e-13
1.196965e-13
1.18795e-13
3.762227e-16
-5.797424e-14
-5.826951e-14
-2.804144e-16
4.978478e-16
-7.654064e-14
-7.678292e-14
-9.259692e-14
-9.227017e-14
3.728769e-16
-5.77306e-14
-5.763111e-14
-2.791188e-16
4.933308e-16
-7.622206e-14
-7.570093e-14
-9.231975e-14
-9.110056e-14
3.60178e-16
-2.719461e-16
4.658522e-16
3.403078e-15
1.556335e-13
-2.477245e-15
4.625418e-15
2.131229e-13
2.628733e-13
8.013566e-17
2.580959e-14
2.487631e-14
-3.521009e-14
-5.90331e-17
1.136107e-16
3.532569e-14
3.511723e-14
-4.926785e-14
4.404242e-14
4.511125e-14
-6.357134e-14
9.432943e-17
6.845242e-14
-6.991647e-17
1.262315e-16
9.198648e-14
1.117673e-13
1.095831e-16
4.217613e-14
4.333044e-14
-8.099638e-17
1.440333e-16
5.657311e-14
5.677483e-14
6.867555e-14
6.72219e-14
1.031869e-15
-4.185189e-14
1.018645e-13
-7.527139e-16
1.355168e-15
-5.659908e-14
1.346914e-13
-6.855984e-14
1.596906e-13
6.490859e-16
6.503785e-14
-2.436524e-14
-4.682158e-16
9.456198e-16
9.219759e-14
-3.548132e-14
1.178572e-13
-4.677953e-14
8.986894e-16
4.120474e-14
-6.454842e-16
1.231986e-15
5.677529e-14
6.997332e-14
7.712372e-17
5.802718e-14
-2.068343e-14
-5.738971e-17
1.044403e-16
7.794484e-14
-2.869443e-14
9.596337e-14
-3.633382e-14
9.399455e-17
3.649659e-14
3.736849e-14
-6.975879e-17
1.250727e-16
4.941782e-14
4.924351e-14
6.079393e-14
5.906259e-14
7.77978e-16
3.660555e-14
-5.54396e-14
3.610021e-14
-5.637744e-16
1.077608e-15
4.964459e-14
-7.885683e-14
4.981103e-14
6.06464e-14
-1.022467e-13
6.189744e-14
6.233972e-17
1.978013e-14
-2.462587e-14
-4.52105e-17
9.124492e-17
2.857013e-14
-3.620691e-14
3.751674e-14
-4.821968e-14
9.023149e-16
8.987861e-14
-6.585525e-16
1.19949e-15
1.197701e-13
1.433615e-13
5.307472e-16
-1.939042e-14
-3.833532e-16
7.933897e-16
-2.889847e-14
-3.899011e-14
1.425988e-16
8.984594e-14
-3.741854e-14
-1.062032e-16
1.852012e-16
1.189553e-13
-4.899953e-14
1.427744e-13
-5.852104e-14
1.979946e-16
5.225241e-14
5.223796e-14
-1.444987e-16
2.590987e-16
6.981268e-14
7.010786e-14
8.367413e-14
8.428413e-14
8.500561e-17
9.049236e-14
-3.833812e-14
-6.431083e-17
1.056755e-16
1.182558e-13
-4.851376e-14
1.404092e-13
-5.58287e-14
2.676833e-16
5.133697e-14
-1.982867e-16
3.528616e-16
6.916736e-14
8.458394e-14
3.052192e-16
1.172027e-13
-2.222072e-16
4.059936e-16
1.59449e-13
1.947524e-13
6.764719e-17
-5.137002e-17
8.404755e-17
1.42743e-16
-3.747968e-14
8.973812e-14
-1.065282e-16
1.836478e-16
-4.86802e-14
1.187098e-13
-5.774509e-14
1.418587e-13
6.795497e-17
3.850408e-14
-5.180562e-17
8.324672e-17
4.850907e-14
5.532279e-14
1.978185e-16
5.20884e-14
5.223047e-14
-1.4416e-16
2.584171e-16
6.964469e-14
7.002476e-14
8.353984e-14
8.393262e-14
8.522444e-17
9.025738e-14
-6.446827e-17
1.053731e-16
1.179895e-13
1.400759e-13
2.674958e-16
5.13121e-14
-1.982432e-16
3.530249e-16
6.919297e-14
8.466121e-14
3.048623e-16
1.17247e-13
-2.220236e-16
4.061013e-16
1.595788e-13
1.951197e-13
5.569422e-19
3.968528e-15
5.983754e-15
-4.80003e-19
5.76892e-19
6.761276e-15
7.042404e-15
9.908973e-15
7.990071e-15
1.35868e-18
1.025763e-14
-1.008116e-18
1.936707e-18
1.409631e-14
1.775399e-14
1.430054e-17
-5.068931e-15
-1.129297e-17
1.937639e-17
-7.001152e-15
-9.207078e-15
2.288343e-17
-9.23538e-15
-1.666577e-17
3.388707e-17
-1.427296e-14
-1.961063e-14
4.27665e-18
3.738245e-15
5.091414e-15
-3.677937e-18
5.730159e-18
7.059523e-15
6.959594e-15
1.024538e-14
9.214403e-15
1.163603e-17
9.19957e-15
-7.844799e-18
1.915374e-17
1.429172e-14
1.956659e-14
1.655184e-16
1.033127e-13
-4.380555e-14
-1.240254e-16
2.11267e-16
1.354597e-13
-5.635816e-14
1.609403e-13
-6.634026e-14
2.253546e-16
5.927308e-14
5.935654e-14
-1.649862e-16
2.910278e-16
7.831574e-14
7.921722e-14
9.30138e-14
9.447704e-14
9.794307e-17
-4.481551e-14
1.033444e-13
-7.479471e-17
1.195114e-16
-5.596175e-14
1.329239e-13
-6.353209e-14
1.561956e-13
3.442499e-16
-5.827909e-14
1.318442e-13
-2.52388e-16
4.502981e-16
-7.730451e-14
1.7742e-13
-9.340113e-14
2.145828e-13
7.947412e-17
-6.086879e-17
9.675307e-17
3.025805e-16
-2.265797e-16
3.911948e-16
3.396508e-16
-5.888237e-14
-5.765375e-14
1.307337e-13
-2.518759e-16
4.426089e-16
-7.719122e-14
-7.632356e-14
1.740746e-13
-9.163781e-14
-9.227852e-14
2.105025e-13
2.22616e-16
-1.024564e-13
5.899848e-14
-1.650246e-16
2.858969e-16
-1.338439e-13
7.77168e-14
-1.586985e-13
9.24368e-14
2.989041e-16
-1.023951e-13
-2.247845e-16
3.866952e-16
-1.318534e-13
-1.551811e-13
1.639986e-16
-4.325346e-14
-1.224261e-16
2.101067e-16
-5.63043e-14
-6.649646e-14
9.68711e-17
-4.418356e-14
-7.372494e-17
1.189784e-16
-5.562357e-14
-6.330655e-14
7.873789e-17
-5.947402e-17
9.709868e-17
1.391847e-18
-5.121687e-15
1.060289e-14
-1.080541e-18
1.846315e-18
-6.161868e-15
1.404376e-14
-7.275458e-15
1.733472e-14
5.077795e-19
5.218805e-15
-3.35509e-19
7.489501e-19
7.410135e-15
9.364279e-15
2.308133e-17
-9.731318e-15
-1.737244e-17
3.300825e-17
-1.392562e-14
-1.853908e-14
1.187077e-17
-5.138484e-15
9.562361e-15
-9.104783e-18
1.751136e-17
-6.125249e-15
1.363906e-14
-7.440593e-15
1.814926e-14
1.375258e-17
-4.364024e-15
-9.595017e-18
2.129681e-17
-7.357927e-15
-1.065731e-14
3.872556e-18
4.519213e-15
-2.185574e-18
7.559964e-18
7.621929e-15
1.100974e-14
3.541374e-15
-7.969734e-14
1.743474e-13
-7.997028e-14
-2.517857e-15
4.634754e-15
-1.078929e-13
2.335897e-13
-1.084031e-13
-1.307041e-13
2.767814e-13
-1.310985e-13
3.513583e-15
-7.929001e-14
1.734277e-13
-7.910409e-14
-2.503099e-15
4.6011e-15
-1.072694e-13
2.323337e-13
-1.071518e-13
-1.300749e-13
2.753607e-13
-1.297581e-13
6.157323e-15
-4.424224e-15
8.223322e-15
-2.788128e-15
9.310383e-14
9.294486e-14
1.949686e-15
-3.547694e-15
1.243273e-13
1.24255e-13
1.452826e-13
1.450314e-13
-2.803321e-15
9.33904e-14
9.369032e-14
1.960417e-15
-3.565459e-15
1.24648e-13
1.252042e-13
1.456174e-13
1.460779e-13
-6.522856e-15
1.992233e-13
4.523951e-15
-8.214801e-15
2.654427e-13
3.058968e-13
-4.010881e-15
-5.312406e-14
-5.224944e-14
1.21994e-13
2.73505e-15
-4.929871e-15
-7.033366e-14
-7.025515e-14
1.598247e-13
-8.049923e-14
-8.091311e-14
1.788879e-13
-1.747851e-15
-8.962952e-14
5.351999e-14
1.218163e-15
-2.192225e-15
-1.212733e-13
7.023294e-14
-1.438026e-13
8.037286e-14
1.580804e-15
-3.597543e-14
-1.103147e-15
2.121442e-15
-5.053944e-14
-6.238918e-14
-1.700447e-15
-8.685062e-14
5.13385e-14
1.138619e-15
-2.171987e-15
-1.206277e-13
6.995188e-14
-1.445995e-13
8.130164e-14
1.578389e-15
-3.55243e-14
-3.456929e-14
-1.052747e-15
2.165994e-15
-5.079915e-14
-5.043586e-14
-6.305444e-14
-6.337985e-14
2.592888e-15
-5.424544e-14
-1.760236e-15
3.674933e-15
-8.132695e-14
-1.069563e-13
-4.429112e-15
-5.923807e-14
-5.76914e-14
1.337069e-13
3.022783e-15
-5.447232e-15
-7.845747e-14
-7.755238e-14
1.751327e-13
-8.990845e-14
-8.930641e-14
1.954443e-13
-1.958322e-15
-1.015352e-13
5.988267e-14
1.368574e-15
-2.459855e-15
-1.372148e-13
7.855401e-14
-1.630587e-13
8.987808e-14
-1.893032e-15
-9.827902e-14
5.680042e-14
1.26697e-15
-2.414768e-15
-1.363375e-13
7.734379e-14
-1.632256e-13
8.948911e-14
1.802138e-15
-4.095369e-14
-4.001434e-14
-1.213471e-15
2.458927e-15
-5.797399e-14
-5.769787e-14
-7.192043e-14
-7.203165e-14
1.804882e-15
-4.137321e-14
-1.268457e-15
2.422435e-15
-5.791602e-14
-7.165334e-14
2.991611e-15
-6.450401e-14
-2.065791e-15
4.218005e-15
-9.489827e-14
-1.24165e-13
3.806154e-15
-8.552222e-14
1.869794e-13
-8.594918e-14
-2.697864e-15
4.955948e-15
-1.155745e-13
2.504867e-13
-1.161455e-13
-1.391816e-13
2.950502e-13
-1.397958e-13
6.641755e-15
8.535219e-14
-4.746263e-15
8.825934e-15
1.156495e-13
1.39151e-13
-6.984794e-15
-1.000226e-13
-9.975614e-14
2.134721e-13
4.850041e-15
-8.741876e-15
-1.332166e-13
-1.327579e-13
2.826737e-13
-1.547381e-13
-1.542875e-13
3.24329e-13
3.804847e-15
1.863465e-13
-8.546304e-14
-2.6753e-15
4.967787e-15
2.50765e-13
-1.163602e-13
2.95335e-13
-1.399086e-13
-3.008914e-15
1.004791e-13
2.097649e-15
-3.805424e-15
1.338377e-13
1.55424e-13
-3.000114e-15
9.989715e-14
2.086207e-15
-3.803132e-15
1.335179e-13
1.551153e-13
-4.454327e-15
-5.911988e-14
-5.819395e-14
1.354823e-13
3.049227e-15
-5.486017e-15
-7.807824e-14
-7.808001e-14
1.779898e-13
-8.929876e-14
-8.992047e-14
1.997096e-13
-1.941843e-15
-1.000512e-13
5.952509e-14
1.361226e-15
-2.430704e-15
-1.343623e-13
7.802914e-14
-1.58865e-13
8.930033e-14
1.773197e-15
9.757727e-14
-4.031059e-14
-3.952234e-14
-1.208015e-15
2.395576e-15
1.340717e-13
-5.647726e-14
-5.634764e-14
1.595251e-13
-6.971734e-14
-7.010795e-14
-1.896842e-15
5.745489e-14
1.278726e-15
-2.412292e-15
7.801965e-14
9.037985e-14
1.772109e-15
-4.074916e-14
-1.250123e-15
2.36596e-15
-5.675438e-14
-6.989297e-14
2.929202e-15
-6.297426e-14
-2.038556e-15
4.102062e-15
-9.21364e-14
-1.204943e-13
1.554596e-15
8.638236e-14
-3.529302e-14
-3.427871e-14
-1.058991e-15
2.109663e-15
1.184693e-13
-4.965154e-14
-4.920581e-14
1.41092e-13
-6.160598e-14
-6.158804e-14
-3.982072e-15
-5.189493e-14
-5.291343e-14
1.212132e-13
2.725145e-15
-4.872565e-15
-6.926576e-14
-6.9763e-14
1.586987e-13
-7.940805e-14
-7.968325e-14
1.770679e-13
1.557812e-15
8.913449e-14
-3.573187e-14
-1.107657e-15
2.089922e-15
1.196371e-13
-4.966857e-14
1.418851e-13
-6.15019e-14
-1.683679e-15
5.092455e-14
1.136035e-15
-2.128103e-15
6.888074e-14
7.94509e-14
-1.734004e-15
5.323731e-14
1.217495e-15
-2.1712e-15
6.984242e-14
8.001001e-14
2.541427e-15
-5.364473e-14
-1.777456e-15
3.592217e-15
-7.928456e-14
-1.051047e-13
1.838499e-15
1.433801e-13
-6.455645e-14
-1.328068e-15
2.49178e-15
1.958906e-13
-8.816485e-14
2.406178e-13
-1.081046e-13
1.956851e-15
7.924024e-14
-1.396487e-15
2.592812e-15
1.07017e-13
1.281444e-13
4.432014e-16
6.56787e-14
-3.183073e-16
5.931996e-16
8.910829e-14
1.076214e-13
4.790463e-16
1.463881e-13
-6.707977e-14
-3.391784e-16
6.247132e-16
1.973808e-13
-9.002059e-14
2.349042e-13
-1.063974e-13
2.166868e-15
-7.922614e-14
1.736288e-13
-1.513826e-15
2.811107e-15
-1.076378e-13
2.341747e-13
-1.283923e-13
2.763373e-13
5.174252e-16
8.088106e-14
-3.604639e-16
6.688905e-16
1.089299e-13
1.277182e-13
-9.529877e-16
1.239559e-13
-5.376191e-14
6.743114e-16
-1.180029e-15
1.612005e-13
-7.103284e-14
1.827536e-13
-8.293793e-14
-1.042564e-15
6.972974e-14
6.982909e-14
7.266505e-16
-1.272441e-15
9.173603e-14
9.139625e-14
1.048282e-13
1.028271e-13
2.961733e-16
6.899537e-14
-1.215413e-13
6.752378e-14
-2.097392e-16
3.789786e-16
9.158528e-14
-1.615451e-13
9.090842e-14
1.067063e-13
-1.902869e-13
1.078003e-13
3.122098e-16
1.533223e-13
-2.176496e-16
3.900491e-16
2.042494e-13
2.356555e-13
-8.012182e-16
5.348999e-14
5.765505e-16
-1.021373e-15
7.039339e-14
8.240591e-14
2.596826e-16
-1.869561e-16
3.337243e-16
1.157533e-15
-2.437711e-14
-2.395608e-14
-7.94967e-16
1.776697e-15
-3.679768e-14
-3.685984e-14
-4.936565e-14
-4.962461e-14
9.559016e-16
-3.265864e-14
-6.659642e-16
1.493013e-15
-5.125992e-14
-7.098714e-14
2.784201e-17
-8.970913e-15
-1.87492e-17
4.61928e-17
-1.489945e-14
-2.102762e-14
9.101517e-16
-3.206552e-14
2.393755e-14
-6.119566e-16
1.439752e-15
-5.114053e-14
3.62649e-14
-7.106592e-14
4.831309e-14
2.69405e-17
-9.181987e-15
-9.116482e-15
-1.788068e-17
4.441881e-17
-1.487624e-14
-1.421165e-14
-2.069883e-14
-1.928227e-14
1.737458e-17
-4.107219e-15
-1.111664e-17
2.959952e-17
-7.079586e-15
-9.549714e-15
2.028833e-15
1.573705e-13
-7.200672e-14
-1.472098e-15
2.719561e-15
2.13822e-13
-9.730967e-14
2.610257e-13
-1.183307e-13
2.138729e-15
8.679039e-14
-1.526429e-15
2.814883e-15
1.167694e-13
1.391062e-13
4.94451e-16
7.323208e-14
-3.57085e-16
6.535456e-16
9.865131e-14
1.184123e-13
5.32005e-16
1.623475e-13
-7.49122e-14
-3.790521e-16
6.88525e-16
2.174117e-13
-9.98528e-14
2.577769e-13
-1.174898e-13
5.696875e-16
8.746166e-14
8.942337e-14
-4.013634e-16
7.310279e-16
1.176667e-13
1.192868e-13
1.396049e-13
1.392852e-13
2.371938e-15
1.898308e-13
-1.667231e-15
3.054097e-15
2.543301e-13
2.984832e-13
3.398309e-16
-7.567794e-14
-7.648043e-14
1.666607e-13
-2.394807e-16
4.195862e-16
-9.932245e-14
-9.962288e-14
2.194708e-13
-1.149749e-13
-1.130774e-13
2.51195e-13
2.89375e-16
1.355115e-13
-6.003212e-14
-2.117062e-16
3.667828e-16
1.772328e-13
-7.824838e-14
2.072202e-13
-9.118123e-14
3.249248e-16
7.440897e-14
-2.336889e-16
4.095335e-16
9.845439e-14
1.157597e-13
-1.144444e-15
-1.375166e-13
7.661604e-14
8.031251e-16
-1.388254e-15
-1.782182e-13
9.980171e-14
-2.017093e-13
1.118364e-13
-8.937102e-16
5.976863e-14
6.497706e-16
-1.130818e-15
7.835436e-14
9.116116e-14
-1.056307e-15
7.516615e-16
-1.303863e-15
1.573151e-17
-4.574925e-15
2.183904e-14
-4.439085e-15
-1.029168e-17
2.926269e-17
-8.045676e-15
3.719682e-14
-7.819374e-15
-1.229628e-14
5.471207e-14
-1.164044e-14
1.63336e-17
2.250504e-14
-4.324718e-15
-1.080537e-17
2.967955e-17
3.686105e-14
-8.019183e-15
5.338919e-14
-1.233223e-14
7.246362e-16
1.915312e-14
-5.109038e-16
1.174967e-15
2.923029e-14
4.02182e-14
5.934803e-18
4.315514e-15
-3.570778e-18
1.282327e-17
5.523105e-15
6.772919e-15
6.871893e-16
1.871397e-14
1.861294e-14
-4.615683e-16
1.142897e-15
2.9218e-14
2.904563e-14
4.03164e-14
3.974455e-14
9.229681e-16
-6.443814e-16
1.453648e-15
3.102058e-16
-6.850507e-14
-6.95904e-14
1.520132e-13
-2.16494e-16
3.856501e-16
-9.073478e-14
-9.138822e-14
2.014416e-13
-1.053294e-13
-1.040392e-13
2.31151e-13
2.598298e-16
-5.345044e-14
1.216835e-13
-1.86913e-16
3.345805e-16
-7.051614e-14
1.618806e-13
-8.278696e-14
1.904038e-13
-7.981159e-16
5.361432e-14
5.760484e-16
-1.020913e-15
7.081663e-14
8.272774e-14
2.949329e-16
-2.087635e-16
3.761877e-16
-9.499079e-16
1.237339e-13
6.721769e-16
-1.177565e-15
1.612632e-13
1.82623e-13
-1.040335e-15
6.955412e-14
7.242636e-16
-1.267293e-15
9.087217e-14
1.018833e-13
1.99407e-15
8.06959e-14
-1.461827e-13
-1.413552e-15
2.64082e-15
1.093196e-13
-2.004791e-13
1.308264e-13
-2.458101e-13
2.214563e-15
-8.122492e-14
1.765612e-13
-1.539993e-15
2.875798e-15
-1.10751e-13
2.383215e-13
-1.320952e-13
2.812405e-13
1.87143e-15
-6.562964e-14
-1.341836e-15
2.535206e-15
-8.996225e-14
-1.102655e-13
4.489651e-16
6.661483e-14
-3.207396e-16
6.014387e-16
9.071776e-14
1.095776e-13
5.297915e-16
-1.493823e-13
8.239061e-14
-3.669366e-16
6.871435e-16
-2.026293e-13
1.113288e-13
-2.416774e-13
1.308795e-13
4.869962e-16
-3.426606e-16
6.371101e-16
1.563798e-17
-4.589744e-15
2.164594e-14
-3.96839e-15
-9.664734e-18
2.828224e-17
-7.699158e-15
3.715792e-14
-7.362269e-15
-1.141947e-14
5.370514e-14
-1.098552e-14
6.001166e-18
4.802491e-15
-4.34599e-18
1.069089e-17
7.679255e-15
1.109561e-14
1.693558e-17
2.346996e-14
-1.227238e-17
2.741194e-17
3.640116e-14
5.082088e-14
7.030237e-16
1.905163e-14
1.846681e-14
-4.480185e-16
1.157069e-15
2.991293e-14
2.963032e-14
4.069761e-14
4.03489e-14
9.507746e-16
-1.950394e-14
-6.405521e-16
1.47753e-15
-2.96476e-14
-4.003791e-14
7.447517e-16
-5.224907e-16
1.16191e-15
-1.06765e-15
1.378938e-13
-6.058441e-14
7.534061e-16
-1.321197e-15
1.796266e-13
-8.011024e-14
2.029507e-13
-9.32762e-14
-1.151502e-15
7.72322e-14
7.691174e-14
8.069289e-16
-1.396326e-15
1.007444e-13
9.969865e-14
1.142481e-13
1.114754e-13
3.431522e-16
-7.634462e-14
1.682089e-13
-2.415537e-16
4.242105e-16
-1.007823e-13
2.207698e-13
-1.166393e-13
2.525565e-13
-9.092681e-16
6.055224e-14
6.525299e-16
-1.157661e-15
7.980417e-14
9.314919e-14
2.938602e-16
1.364778e-13
-2.108737e-16
3.755285e-16
1.809817e-13
2.116709e-13
3.29227e-16
-2.336274e-16
4.173672e-16
5.674099e-16
-1.614773e-13
8.684487e-14
8.855352e-14
-3.964107e-16
7.293836e-16
-2.16697e-13
1.176366e-13
1.186307e-13
-2.566513e-13
1.395629e-13
1.38634e-13
4.903329e-16
7.152088e-14
7.297976e-14
-3.559847e-16
6.452553e-16
9.668057e-14
9.787548e-14
1.174616e-13
1.172859e-13
2.022268e-15
1.568465e-13
-1.457973e-15
2.708659e-15
2.142411e-13
2.610108e-13
2.140071e-15
8.638109e-14
-1.508227e-15
2.82371e-15
1.17043e-13
1.392719e-13
5.287963e-16
-3.775267e-16
6.816739e-16
2.367273e-15
1.881469e-13
-1.643864e-15
3.062056e-15
2.542813e-13
2.986391e-13
2.722845e-17
3.249324e-14
-9.092726e-15
-1.990466e-17
4.309461e-17
4.928476e-14
-1.379164e-14
6.801811e-14
-1.921089e-14
9.33256e-16
2.384213e-14
-6.659323e-16
1.440684e-15
3.555395e-14
4.772814e-14
8.700166e-16
-3.047219e-14
2.340412e-14
2.291104e-14
-5.955139e-16
1.37798e-15
-4.857818e-14
3.528101e-14
3.484484e-14
-6.819908e-14
4.754619e-14
4.668081e-14
2.519078e-17
-8.841242e-15
-8.301565e-15
-1.708129e-17
4.180018e-17
-1.376319e-14
-1.326027e-14
-1.924304e-14
-1.827761e-14
1.121696e-15
-7.859095e-16
1.710702e-15
1.642042e-17
-1.190788e-17
2.632452e-17
1.019205e-15
-1.162019e-13
-1.161218e-13
2.440702e-13
-6.796379e-16
1.292077e-15
-1.575017e-13
-1.576859e-13
3.338498e-13
-1.833106e-13
-1.83685e-13
3.920046e-13
1.221811e-15
-2.219647e-13
1.168757e-13
-8.187472e-16
1.53894e-15
-2.987847e-13
1.586028e-13
-3.455002e-13
1.850233e-13
-2.664601e-15
1.050379e-13
1.047509e-13
1.817543e-15
-3.326082e-15
1.405774e-13
1.402578e-13
1.620388e-13
1.61704e-13
-2.998282e-15
-1.05929e-13
2.031217e-15
-3.749202e-15
-1.419691e-13
-1.6414e-13
-2.991157e-15
2.210861e-13
-1.052022e-13
2.015667e-15
-3.762218e-15
2.998012e-13
-1.421575e-13
3.480411e-13
-1.650751e-13
1.220935e-15
1.16357e-13
-8.134666e-16
1.548039e-15
1.592975e-13
1.866682e-13
1.556216e-16
-6.562661e-14
-6.338657e-14
1.442887e-13
-9.771745e-17
2.011257e-16
-9.111824e-14
-9.008789e-14
2.041188e-13
-1.062013e-13
-1.076407e-13
2.40437e-13
-1.106647e-15
-1.170969e-13
6.735273e-14
7.154878e-16
-1.388466e-15
-1.591222e-13
9.159114e-14
-1.836369e-13
1.044964e-13
2.622238e-16
-1.081626e-13
6.057644e-14
-1.645454e-16
3.483004e-16
-1.536917e-13
8.776564e-14
-1.85442e-13
1.066866e-13
-6.967029e-16
-4.973568e-14
4.586361e-16
-8.894589e-16
-6.963486e-14
-8.324471e-14
4.199015e-16
-4.767314e-14
-4.48403e-14
-2.647943e-16
5.670706e-16
-6.841404e-14
-6.604603e-14
-8.276037e-14
-8.178165e-14
-5.132126e-16
-8.099964e-14
3.288698e-16
-6.890814e-16
-1.177001e-13
-1.44627e-13
4.689018e-16
-5.341956e-14
1.183942e-13
-5.060768e-14
-2.934673e-16
6.257093e-16
-7.606755e-14
1.687991e-13
-7.388309e-14
-9.108613e-14
2.01452e-13
-9.022782e-14
-7.688222e-16
-5.515316e-14
1.273831e-13
5.024987e-16
-9.777177e-16
-7.729895e-14
1.733271e-13
-9.174764e-14
1.987904e-13
-5.774039e-16
-9.31419e-14
3.699217e-16
-7.669564e-16
-1.335976e-13
-1.625163e-13
2.859638e-16
6.904825e-14
6.626094e-14
-1.80265e-16
3.749597e-16
9.672872e-14
9.459388e-14
1.145082e-13
1.136777e-13
1.675942e-16
-7.120219e-14
1.56581e-13
-1.076358e-16
2.131867e-16
-9.769848e-14
2.158378e-13
-1.127362e-13
2.51488e-13
-1.197503e-15
7.298441e-14
7.801797e-16
-1.487968e-15
9.791594e-14
1.107373e-13
-2.844255e-15
1.12572e-13
1.123059e-13
1.959689e-15
-3.542796e-15
1.500203e-13
1.495611e-13
1.731707e-13
1.727195e-13
-3.18968e-15
2.368704e-13
-1.129578e-13
2.18377e-15
-4.019212e-15
3.195588e-13
-1.516749e-13
3.735037e-13
-1.763499e-13
-3.176824e-15
2.367809e-13
-1.126462e-13
2.186884e-15
-3.979978e-15
3.171435e-13
-1.500065e-13
3.689291e-13
-1.736093e-13
1.294171e-15
1.233953e-13
1.235488e-13
-8.72836e-16
1.671474e-15
1.694596e-13
1.708044e-13
2.009973e-13
2.0376e-13
1.075082e-15
-1.229726e-13
2.562129e-13
-7.201964e-16
1.402874e-15
-1.681825e-13
3.584742e-13
-1.990933e-13
4.323018e-13
1.28724e-15
1.230814e-13
-8.742121e-16
1.648929e-15
1.683211e-13
1.995696e-13
-7.75739e-16
1.29658e-13
-5.543558e-14
5.105889e-16
-9.871295e-16
1.765708e-13
-7.725757e-14
2.033083e-13
-9.153925e-14
1.671439e-16
-7.135645e-14
-6.85066e-14
1.542777e-13
-1.061481e-16
2.151693e-16
-9.829874e-14
-9.719162e-14
2.161488e-13
-1.138352e-13
-1.156151e-13
2.535818e-13
-1.207669e-15
7.351203e-14
7.87323e-16
-1.511447e-15
9.923082e-14
1.129375e-13
-5.755078e-16
5.347464e-14
-9.228624e-14
3.712713e-16
-7.627441e-16
7.606129e-14
-1.316895e-13
9.122309e-14
-1.600548e-13
4.711939e-16
1.200139e-13
-5.070746e-14
-2.956847e-16
6.31762e-16
1.715054e-13
-7.432346e-14
2.055993e-13
-9.127834e-14
2.867585e-16
6.576324e-14
-1.789207e-16
3.806951e-16
9.55027e-14
1.156975e-13
2.601079e-16
6.248043e-14
-1.066266e-13
5.987864e-14
-1.609768e-16
3.467707e-16
8.846314e-14
-1.542817e-13
8.757312e-14
1.052032e-13
-1.859558e-13
1.067295e-13
1.533523e-16
-6.496595e-14
1.431045e-13
-9.726525e-17
1.971265e-16
-8.968455e-14
2.002805e-13
-1.038097e-13
2.352266e-13
-1.094784e-15
-1.155875e-13
6.691019e-14
7.096714e-16
-1.36371e-15
-1.570013e-13
9.023513e-14
-1.798105e-13
1.024128e-13
4.20757e-16
-4.747072e-14
-4.484619e-14
-2.594358e-16
5.695487e-16
-6.790583e-14
-6.69716e-14
-8.161283e-14
-8.311323e-14
-5.106229e-16
4.910038e-14
-8.127601e-14
3.271898e-16
-6.783636e-16
6.84838e-14
-1.166592e-13
8.108203e-14
-1.42453e-13
-6.899375e-16
4.523483e-16
-8.724603e-16
6.446191e-16
2.006069e-13
-9.317034e-14
-9.402141e-14
-4.296813e-16
8.273748e-16
2.760843e-13
-1.265333e-13
-1.293494e-13
3.243878e-13
-1.482439e-13
-1.525599e-13
5.574599e-16
1.065119e-13
1.073719e-13
-3.666839e-16
7.200144e-16
1.467158e-13
1.495566e-13
1.731303e-13
1.774482e-13
-1.099161e-15
1.987933e-13
-9.308478e-14
7.54471e-16
-1.393603e-15
2.676284e-13
-1.25752e-13
3.104884e-13
-1.477663e-13
-1.179731e-15
1.050446e-13
7.939802e-16
-1.492527e-15
1.432708e-13
1.673185e-13
-9.750237e-16
6.678473e-16
-1.247448e-15
5.677496e-16
2.243895e-13
-3.759696e-16
7.290427e-16
3.097862e-13
3.65465e-13
2.970753e-17
8.437465e-14
-1.54246e-13
8.470643e-14
-1.96076e-17
3.661114e-17
1.143108e-13
-2.041592e-13
1.145842e-13
1.300039e-13
-2.294566e-13
1.313407e-13
-2.540437e-17
8.41594e-14
-1.510986e-13
8.305536e-14
1.631822e-17
-3.175232e-17
1.147043e-13
-2.047765e-13
1.154912e-13
1.314284e-13
-2.320505e-13
1.342912e-13
-3.132839e-17
1.836652e-13
2.02354e-17
-3.922053e-17
2.54688e-13
2.964055e-13
-2.486324e-15
-6.918357e-14
1.686379e-15
-2.99959e-15
-9.06889e-14
-1.00972e-13
-2.234336e-15
6.841935e-14
1.503619e-15
-2.684887e-15
9.077116e-14
1.015435e-13
-2.401555e-15
1.562963e-15
-2.940316e-15
1.321621e-16
2.313126e-14
2.334329e-14
-3.227635e-14
-8.945742e-17
1.971994e-16
3.461593e-14
3.410233e-14
-4.866383e-14
4.542358e-14
4.375015e-14
-6.471233e-14
1.957407e-16
-5.954157e-14
3.757313e-14
3.703554e-14
-1.264629e-16
2.773918e-16
-8.770448e-14
5.495337e-14
5.446564e-14
-1.120436e-13
6.868387e-14
6.79496e-14
6.193765e-16
6.219601e-14
-4.190766e-16
9.329448e-16
9.193431e-14
1.192169e-13
8.148744e-16
3.934972e-14
-5.445888e-16
1.153201e-15
5.625081e-14
6.941664e-14
1.43042e-16
-2.273461e-14
-9.519129e-17
2.070469e-16
-3.350438e-14
-4.286117e-14
9.259479e-16
-6.022252e-16
1.276736e-15
6.877847e-16
-1.014427e-13
2.153308e-13
-1.019057e-13
-4.74399e-16
8.685686e-16
-1.35946e-13
2.882926e-13
-1.364076e-13
-1.58329e-13
3.349651e-13
-1.591047e-13
-1.259647e-15
1.128197e-13