/*--------------------------------*- C++ -*----------------------------------*\
| =========                 |                                                 |
| \\      /  F ield         | OpenFOAM: The Open Source CFD Toolbox           |
|  \\    /   O peration     | Version:  2212                                  |
|   \\  /    A nd           | Website:  www.openfoam.com                      |
|    \\/     M anipulation  |                                                 |
\*---------------------------------------------------------------------------*/
FoamFile
{
    version     2.0;
    format      ascii;
    arch        "LSB;label=32;scalar=64";
    class       vectorField;
    location    "200/neutroRegion";
    object      neutroUndeformedPoints;
}
// * * * * * * * * * * * * * * * * * * * * * * * * * * * * * * * * * * * * * //


13272
(
(-0.060855 -0.105404 2.01)
(-0.12171 0 2.01)
(-0.060855 0.105404 2.01)
(0.060855 0.105404 2.01)
(0.12171 0 2.01)
(0.060855 -0.105404 2.01)
(-0.060855 -0.105404 2.31)
(-0.12171 0 2.31)
(-0.060855 0.105404 2.31)
(0.060855 0.105404 2.31)
(0.12171 0 2.31)
(0.060855 -0.105404 2.31)
(-0.12171 0.2108079 2.01)
(-0.060855 0.3162119 2.01)
(0.060855 0.3162119 2.01)
(0.12171 0.2108079 2.01)
(-0.12171 0.2108079 2.31)
(-0.060855 0.3162119 2.31)
(0.060855 0.3162119 2.31)
(0.12171 0.2108079 2.31)
(-0.24342 0 2.01)
(-0.304275 0.105404 2.01)
(-0.24342 0.2108079 2.01)
(-0.24342 0 2.31)
(-0.304275 0.105404 2.31)
(-0.24342 0.2108079 2.31)
(-0.24342 -0.2108079 2.01)
(-0.304275 -0.105404 2.01)
(-0.12171 -0.2108079 2.01)
(-0.24342 -0.2108079 2.31)
(-0.304275 -0.105404 2.31)
(-0.12171 -0.2108079 2.31)
(-0.060855 -0.3162119 2.01)
(0.12171 -0.2108079 2.01)
(0.060855 -0.3162119 2.01)
(-0.060855 -0.3162119 2.31)
(0.12171 -0.2108079 2.31)
(0.060855 -0.3162119 2.31)
(0.24342 0 2.01)
(0.304275 -0.105404 2.01)
(0.24342 -0.2108079 2.01)
(0.24342 0 2.31)
(0.304275 -0.105404 2.31)
(0.24342 -0.2108079 2.31)
(0.24342 0.2108079 2.01)
(0.304275 0.105404 2.01)
(0.24342 0.2108079 2.31)
(0.304275 0.105404 2.31)
(-0.12171 0.4216158 2.01)
(-0.060855 0.5270198 2.01)
(0.060855 0.5270198 2.01)
(0.12171 0.4216158 2.01)
(-0.12171 0.4216158 2.31)
(-0.060855 0.5270198 2.31)
(0.060855 0.5270198 2.31)
(0.12171 0.4216158 2.31)
(-0.425985 0.105404 2.01)
(-0.48684 0.2108079 2.01)
(-0.425985 0.3162119 2.01)
(-0.304275 0.3162119 2.01)
(-0.425985 0.105404 2.31)
(-0.48684 0.2108079 2.31)
(-0.425985 0.3162119 2.31)
(-0.304275 0.3162119 2.31)
(-0.425985 -0.3162119 2.01)
(-0.48684 -0.2108079 2.01)
(-0.425985 -0.105404 2.01)
(-0.304275 -0.3162119 2.01)
(-0.425985 -0.3162119 2.31)
(-0.48684 -0.2108079 2.31)
(-0.425985 -0.105404 2.31)
(-0.304275 -0.3162119 2.31)
(-0.060855 -0.5270198 2.01)
(-0.12171 -0.4216158 2.01)
(0.12171 -0.4216158 2.01)
(0.060855 -0.5270198 2.01)
(-0.060855 -0.5270198 2.31)
(-0.12171 -0.4216158 2.31)
(0.12171 -0.4216158 2.31)
(0.060855 -0.5270198 2.31)
(0.304275 -0.3162119 2.01)
(0.425985 -0.105404 2.01)
(0.48684 -0.2108079 2.01)
(0.425985 -0.3162119 2.01)
(0.304275 -0.3162119 2.31)
(0.425985 -0.105404 2.31)
(0.48684 -0.2108079 2.31)
(0.425985 -0.3162119 2.31)
(0.304275 0.3162119 2.01)
(0.425985 0.3162119 2.01)
(0.48684 0.2108079 2.01)
(0.425985 0.105404 2.01)
(0.304275 0.3162119 2.31)
(0.425985 0.3162119 2.31)
(0.48684 0.2108079 2.31)
(0.425985 0.105404 2.31)
(0.24342 0.4216158 2.01)
(0.24342 0.4216158 2.31)
(-0.24342 0.4216158 2.01)
(-0.24342 0.4216158 2.31)
(-0.48684 0 2.01)
(-0.48684 0 2.31)
(-0.24342 -0.4216158 2.01)
(-0.24342 -0.4216158 2.31)
(0.24342 -0.4216158 2.01)
(0.24342 -0.4216158 2.31)
(0.48684 0 2.01)
(0.48684 0 2.31)
(-0.12171 0.6324237 2.01)
(-0.060855 0.7378277 2.01)
(0.060855 0.7378277 2.01)
(0.12171 0.6324237 2.01)
(-0.12171 0.6324237 2.31)
(-0.060855 0.7378277 2.31)
(0.060855 0.7378277 2.31)
(0.12171 0.6324237 2.31)
(-0.60855 0.2108079 2.01)
(-0.669405 0.3162119 2.01)
(-0.60855 0.4216158 2.01)
(-0.48684 0.4216158 2.01)
(-0.60855 0.2108079 2.31)
(-0.669405 0.3162119 2.31)
(-0.60855 0.4216158 2.31)
(-0.48684 0.4216158 2.31)
(-0.60855 -0.4216158 2.01)
(-0.669405 -0.3162119 2.01)
(-0.60855 -0.2108079 2.01)
(-0.48684 -0.4216158 2.01)
(-0.60855 -0.4216158 2.31)
(-0.669405 -0.3162119 2.31)
(-0.60855 -0.2108079 2.31)
(-0.48684 -0.4216158 2.31)
(-0.060855 -0.7378277 2.01)
(-0.12171 -0.6324237 2.01)
(0.12171 -0.6324237 2.01)
(0.060855 -0.7378277 2.01)
(-0.060855 -0.7378277 2.31)
(-0.12171 -0.6324237 2.31)
(0.12171 -0.6324237 2.31)
(0.060855 -0.7378277 2.31)
(0.48684 -0.4216158 2.01)
(0.60855 -0.2108079 2.01)
(0.669405 -0.3162119 2.01)
(0.60855 -0.4216158 2.01)
(0.48684 -0.4216158 2.31)
(0.60855 -0.2108079 2.31)
(0.669405 -0.3162119 2.31)
(0.60855 -0.4216158 2.31)
(0.48684 0.4216158 2.01)
(0.60855 0.4216158 2.01)
(0.669405 0.3162119 2.01)
(0.60855 0.2108079 2.01)
(0.48684 0.4216158 2.31)
(0.60855 0.4216158 2.31)
(0.669405 0.3162119 2.31)
(0.60855 0.2108079 2.31)
(0.24342 0.6324237 2.01)
(0.304275 0.5270198 2.01)
(0.24342 0.6324237 2.31)
(0.304275 0.5270198 2.31)
(-0.425985 0.5270198 2.01)
(-0.304275 0.5270198 2.01)
(-0.425985 0.5270198 2.31)
(-0.304275 0.5270198 2.31)
(-0.669405 -0.105404 2.01)
(-0.60855 5.551115e-17 2.01)
(-0.669405 -0.105404 2.31)
(-0.60855 5.551115e-17 2.31)
(-0.24342 -0.6324237 2.01)
(-0.304275 -0.5270198 2.01)
(-0.24342 -0.6324237 2.31)
(-0.304275 -0.5270198 2.31)
(0.304275 -0.5270198 2.01)
(0.425985 -0.5270198 2.01)
(0.304275 -0.5270198 2.31)
(0.425985 -0.5270198 2.31)
(0.669405 0.105404 2.01)
(0.60855 -1.387779e-16 2.01)
(0.669405 0.105404 2.31)
(0.60855 -1.387779e-16 2.31)
(0.425985 0.5270198 2.01)
(0.425985 0.5270198 2.31)
(-0.24342 0.6324237 2.01)
(-0.24342 0.6324237 2.31)
(-0.669405 0.105404 2.01)
(-0.669405 0.105404 2.31)
(-0.425985 -0.5270198 2.01)
(-0.425985 -0.5270198 2.31)
(0.24342 -0.6324237 2.01)
(0.24342 -0.6324237 2.31)
(0.669405 -0.105404 2.01)
(0.669405 -0.105404 2.31)
(-0.12171 0.8432316 2.01)
(-0.060855 0.9486356 2.01)
(0.060855 0.9486356 2.01)
(0.12171 0.8432316 2.01)
(-0.12171 0.8432316 2.31)
(-0.060855 0.9486356 2.31)
(0.060855 0.9486356 2.31)
(0.12171 0.8432316 2.31)
(-0.791115 0.3162119 2.01)
(-0.85197 0.4216158 2.01)
(-0.791115 0.5270198 2.01)
(-0.669405 0.5270198 2.01)
(-0.791115 0.3162119 2.31)
(-0.85197 0.4216158 2.31)
(-0.791115 0.5270198 2.31)
(-0.669405 0.5270198 2.31)
(-0.791115 -0.5270198 2.01)
(-0.85197 -0.4216158 2.01)
(-0.791115 -0.3162119 2.01)
(-0.669405 -0.5270198 2.01)
(-0.791115 -0.5270198 2.31)
(-0.85197 -0.4216158 2.31)
(-0.791115 -0.3162119 2.31)
(-0.669405 -0.5270198 2.31)
(-0.060855 -0.9486356 2.01)
(-0.12171 -0.8432316 2.01)
(0.12171 -0.8432316 2.01)
(0.060855 -0.9486356 2.01)
(-0.060855 -0.9486356 2.31)
(-0.12171 -0.8432316 2.31)
(0.12171 -0.8432316 2.31)
(0.060855 -0.9486356 2.31)
(0.669405 -0.5270198 2.01)
(0.791115 -0.3162119 2.01)
(0.85197 -0.4216158 2.01)
(0.791115 -0.5270198 2.01)
(0.669405 -0.5270198 2.31)
(0.791115 -0.3162119 2.31)
(0.85197 -0.4216158 2.31)
(0.791115 -0.5270198 2.31)
(0.669405 0.5270198 2.01)
(0.791115 0.5270198 2.01)
(0.85197 0.4216158 2.01)
(0.791115 0.3162119 2.01)
(0.669405 0.5270198 2.31)
(0.791115 0.5270198 2.31)
(0.85197 0.4216158 2.31)
(0.791115 0.3162119 2.31)
(0.24342 0.8432316 2.01)
(0.304275 0.7378277 2.01)
(0.24342 0.8432316 2.31)
(0.304275 0.7378277 2.31)
(-0.60855 0.6324237 2.01)
(-0.48684 0.6324237 2.01)
(-0.60855 0.6324237 2.31)
(-0.48684 0.6324237 2.31)
(-0.85197 -0.2108079 2.01)
(-0.791115 -0.105404 2.01)
(-0.85197 -0.2108079 2.31)
(-0.791115 -0.105404 2.31)
(-0.24342 -0.8432316 2.01)
(-0.304275 -0.7378277 2.01)
(-0.24342 -0.8432316 2.31)
(-0.304275 -0.7378277 2.31)
(0.48684 -0.6324237 2.01)
(0.60855 -0.6324237 2.01)
(0.48684 -0.6324237 2.31)
(0.60855 -0.6324237 2.31)
(0.85197 0.2108079 2.01)
(0.791115 0.105404 2.01)
(0.85197 0.2108079 2.31)
(0.791115 0.105404 2.31)
(0.425985 0.7378277 2.01)
(0.48684 0.6324237 2.01)
(0.425985 0.7378277 2.31)
(0.48684 0.6324237 2.31)
(-0.425985 0.7378277 2.01)
(-0.304275 0.7378277 2.01)
(-0.425985 0.7378277 2.31)
(-0.304275 0.7378277 2.31)
(-0.85197 0 2.01)
(-0.791115 0.105404 2.01)
(-0.85197 0 2.31)
(-0.791115 0.105404 2.31)
(-0.425985 -0.7378277 2.01)
(-0.48684 -0.6324237 2.01)
(-0.425985 -0.7378277 2.31)
(-0.48684 -0.6324237 2.31)
(0.304275 -0.7378277 2.01)
(0.425985 -0.7378277 2.01)
(0.304275 -0.7378277 2.31)
(0.425985 -0.7378277 2.31)
(0.85197 0 2.01)
(0.791115 -0.105404 2.01)
(0.85197 0 2.31)
(0.791115 -0.105404 2.31)
(0.60855 0.6324237 2.01)
(0.60855 0.6324237 2.31)
(-0.24342 0.8432316 2.01)
(-0.24342 0.8432316 2.31)
(-0.85197 0.2108079 2.01)
(-0.85197 0.2108079 2.31)
(-0.60855 -0.6324237 2.01)
(-0.60855 -0.6324237 2.31)
(0.24342 -0.8432316 2.01)
(0.24342 -0.8432316 2.31)
(0.85197 -0.2108079 2.01)
(0.85197 -0.2108079 2.31)
(-0.12171 1.05404 2.01)
(-0.060855 1.159443 2.01)
(0.060855 1.159443 2.01)
(0.12171 1.05404 2.01)
(-0.12171 1.05404 2.31)
(-0.060855 1.159443 2.31)
(0.060855 1.159443 2.31)
(0.12171 1.05404 2.31)
(-0.97368 0.4216158 2.01)
(-1.034535 0.5270198 2.01)
(-0.97368 0.6324237 2.01)
(-0.85197 0.6324237 2.01)
(-0.97368 0.4216158 2.31)
(-1.034535 0.5270198 2.31)
(-0.97368 0.6324237 2.31)
(-0.85197 0.6324237 2.31)
(-0.97368 -0.6324237 2.01)
(-1.034535 -0.5270198 2.01)
(-0.97368 -0.4216158 2.01)
(-0.85197 -0.6324237 2.01)
(-0.97368 -0.6324237 2.31)
(-1.034535 -0.5270198 2.31)
(-0.97368 -0.4216158 2.31)
(-0.85197 -0.6324237 2.31)
(-0.060855 -1.159443 2.01)
(-0.12171 -1.05404 2.01)
(0.12171 -1.05404 2.01)
(0.060855 -1.159443 2.01)
(-0.060855 -1.159443 2.31)
(-0.12171 -1.05404 2.31)
(0.12171 -1.05404 2.31)
(0.060855 -1.159443 2.31)
(0.85197 -0.6324237 2.01)
(0.97368 -0.4216158 2.01)
(1.034535 -0.5270198 2.01)
(0.97368 -0.6324237 2.01)
(0.85197 -0.6324237 2.31)
(0.97368 -0.4216158 2.31)
(1.034535 -0.5270198 2.31)
(0.97368 -0.6324237 2.31)
(0.85197 0.6324237 2.01)
(0.97368 0.6324237 2.01)
(1.034535 0.5270198 2.01)
(0.97368 0.4216158 2.01)
(0.85197 0.6324237 2.31)
(0.97368 0.6324237 2.31)
(1.034535 0.5270198 2.31)
(0.97368 0.4216158 2.31)
(0.24342 1.05404 2.01)
(0.304275 0.9486356 2.01)
(0.24342 1.05404 2.31)
(0.304275 0.9486356 2.31)
(-0.791115 0.7378277 2.01)
(-0.669405 0.7378277 2.01)
(-0.791115 0.7378277 2.31)
(-0.669405 0.7378277 2.31)
(-1.034535 -0.3162119 2.01)
(-0.97368 -0.2108079 2.01)
(-1.034535 -0.3162119 2.31)
(-0.97368 -0.2108079 2.31)
(-0.24342 -1.05404 2.01)
(-0.304275 -0.9486356 2.01)
(-0.24342 -1.05404 2.31)
(-0.304275 -0.9486356 2.31)
(0.669405 -0.7378277 2.01)
(0.791115 -0.7378277 2.01)
(0.669405 -0.7378277 2.31)
(0.791115 -0.7378277 2.31)
(1.034535 0.3162119 2.01)
(0.97368 0.2108079 2.01)
(1.034535 0.3162119 2.31)
(0.97368 0.2108079 2.31)
(0.425985 0.9486356 2.01)
(0.48684 0.8432316 2.01)
(0.425985 0.9486356 2.31)
(0.48684 0.8432316 2.31)
(-0.60855 0.8432316 2.01)
(-0.48684 0.8432316 2.01)
(-0.60855 0.8432316 2.31)
(-0.48684 0.8432316 2.31)
(-1.034535 -0.105404 2.01)
(-0.97368 8.326673e-17 2.01)
(-1.034535 -0.105404 2.31)
(-0.97368 8.326673e-17 2.31)
(-0.425985 -0.9486356 2.01)
(-0.48684 -0.8432316 2.01)
(-0.425985 -0.9486356 2.31)
(-0.48684 -0.8432316 2.31)
(0.48684 -0.8432316 2.01)
(0.60855 -0.8432316 2.01)
(0.48684 -0.8432316 2.31)
(0.60855 -0.8432316 2.31)
(1.034535 0.105404 2.01)
(0.97368 -1.387779e-16 2.01)
(1.034535 0.105404 2.31)
(0.97368 -1.387779e-16 2.31)
(0.60855 0.8432316 2.01)
(0.669405 0.7378277 2.01)
(0.60855 0.8432316 2.31)
(0.669405 0.7378277 2.31)
(-0.425985 0.9486356 2.01)
(-0.304275 0.9486356 2.01)
(-0.425985 0.9486356 2.31)
(-0.304275 0.9486356 2.31)
(-1.034535 0.105404 2.01)
(-0.97368 0.2108079 2.01)
(-1.034535 0.105404 2.31)
(-0.97368 0.2108079 2.31)
(-0.60855 -0.8432316 2.01)
(-0.669405 -0.7378277 2.01)
(-0.60855 -0.8432316 2.31)
(-0.669405 -0.7378277 2.31)
(0.304275 -0.9486356 2.01)
(0.425985 -0.9486356 2.01)
(0.304275 -0.9486356 2.31)
(0.425985 -0.9486356 2.31)
(1.034535 -0.105404 2.01)
(0.97368 -0.2108079 2.01)
(1.034535 -0.105404 2.31)
(0.97368 -0.2108079 2.31)
(0.791115 0.7378277 2.01)
(0.791115 0.7378277 2.31)
(-0.24342 1.05404 2.01)
(-0.24342 1.05404 2.31)
(-1.034535 0.3162119 2.01)
(-1.034535 0.3162119 2.31)
(-0.791115 -0.7378277 2.01)
(-0.791115 -0.7378277 2.31)
(0.24342 -1.05404 2.01)
(0.24342 -1.05404 2.31)
(1.034535 -0.3162119 2.01)
(1.034535 -0.3162119 2.31)
(-0.12171 1.264847 2.01)
(-0.060855 1.370251 2.01)
(0.060855 1.370251 2.01)
(0.12171 1.264847 2.01)
(-0.12171 1.264847 2.31)
(-0.060855 1.370251 2.31)
(0.060855 1.370251 2.31)
(0.12171 1.264847 2.31)
(-1.156245 0.5270198 2.01)
(-1.2171 0.6324237 2.01)
(-1.156245 0.7378277 2.01)
(-1.034535 0.7378277 2.01)
(-1.156245 0.5270198 2.31)
(-1.2171 0.6324237 2.31)
(-1.156245 0.7378277 2.31)
(-1.034535 0.7378277 2.31)
(-1.156245 -0.7378277 2.01)
(-1.2171 -0.6324237 2.01)
(-1.156245 -0.5270198 2.01)
(-1.034535 -0.7378277 2.01)
(-1.156245 -0.7378277 2.31)
(-1.2171 -0.6324237 2.31)
(-1.156245 -0.5270198 2.31)
(-1.034535 -0.7378277 2.31)
(-0.060855 -1.370251 2.01)
(-0.12171 -1.264847 2.01)
(0.12171 -1.264847 2.01)
(0.060855 -1.370251 2.01)
(-0.060855 -1.370251 2.31)
(-0.12171 -1.264847 2.31)
(0.12171 -1.264847 2.31)
(0.060855 -1.370251 2.31)
(1.034535 -0.7378277 2.01)
(1.156245 -0.5270198 2.01)
(1.2171 -0.6324237 2.01)
(1.156245 -0.7378277 2.01)
(1.034535 -0.7378277 2.31)
(1.156245 -0.5270198 2.31)
(1.2171 -0.6324237 2.31)
(1.156245 -0.7378277 2.31)
(1.034535 0.7378277 2.01)
(1.156245 0.7378277 2.01)
(1.2171 0.6324237 2.01)
(1.156245 0.5270198 2.01)
(1.034535 0.7378277 2.31)
(1.156245 0.7378277 2.31)
(1.2171 0.6324237 2.31)
(1.156245 0.5270198 2.31)
(0.24342 1.264847 2.01)
(0.304275 1.159443 2.01)
(0.24342 1.264847 2.31)
(0.304275 1.159443 2.31)
(-0.97368 0.8432316 2.01)
(-0.85197 0.8432316 2.01)
(-0.97368 0.8432316 2.31)
(-0.85197 0.8432316 2.31)
(-1.2171 -0.4216158 2.01)
(-1.156245 -0.3162119 2.01)
(-1.2171 -0.4216158 2.31)
(-1.156245 -0.3162119 2.31)
(-0.24342 -1.264847 2.01)
(-0.304275 -1.159443 2.01)
(-0.24342 -1.264847 2.31)
(-0.304275 -1.159443 2.31)
(0.85197 -0.8432316 2.01)
(0.97368 -0.8432316 2.01)
(0.85197 -0.8432316 2.31)
(0.97368 -0.8432316 2.31)
(1.2171 0.4216158 2.01)
(1.156245 0.3162119 2.01)
(1.2171 0.4216158 2.31)
(1.156245 0.3162119 2.31)
(0.425985 1.159443 2.01)
(0.48684 1.05404 2.01)
(0.425985 1.159443 2.31)
(0.48684 1.05404 2.31)
(-0.791115 0.9486356 2.01)
(-0.669405 0.9486356 2.01)
(-0.791115 0.9486356 2.31)
(-0.669405 0.9486356 2.31)
(-1.2171 -0.2108079 2.01)
(-1.156245 -0.105404 2.01)
(-1.2171 -0.2108079 2.31)
(-1.156245 -0.105404 2.31)
(-0.425985 -1.159443 2.01)
(-0.48684 -1.05404 2.01)
(-0.425985 -1.159443 2.31)
(-0.48684 -1.05404 2.31)
(0.669405 -0.9486356 2.01)
(0.791115 -0.9486356 2.01)
(0.669405 -0.9486356 2.31)
(0.791115 -0.9486356 2.31)
(1.2171 0.2108079 2.01)
(1.156245 0.105404 2.01)
(1.2171 0.2108079 2.31)
(1.156245 0.105404 2.31)
(0.60855 1.05404 2.01)
(0.669405 0.9486356 2.01)
(0.60855 1.05404 2.31)
(0.669405 0.9486356 2.31)
(-0.60855 1.05404 2.01)
(-0.48684 1.05404 2.01)
(-0.60855 1.05404 2.31)
(-0.48684 1.05404 2.31)
(-1.2171 2.220446e-16 2.01)
(-1.156245 0.105404 2.01)
(-1.2171 2.220446e-16 2.31)
(-1.156245 0.105404 2.31)
(-0.60855 -1.05404 2.01)
(-0.669405 -0.9486356 2.01)
(-0.60855 -1.05404 2.31)
(-0.669405 -0.9486356 2.31)
(0.48684 -1.05404 2.01)
(0.60855 -1.05404 2.01)
(0.48684 -1.05404 2.31)
(0.60855 -1.05404 2.31)
(1.2171 -3.330669e-16 2.01)
(1.156245 -0.105404 2.01)
(1.2171 -3.330669e-16 2.31)
(1.156245 -0.105404 2.31)
(0.791115 0.9486356 2.01)
(0.85197 0.8432316 2.01)
(0.791115 0.9486356 2.31)
(0.85197 0.8432316 2.31)
(-0.425985 1.159443 2.01)
(-0.304275 1.159443 2.01)
(-0.425985 1.159443 2.31)
(-0.304275 1.159443 2.31)
(-1.2171 0.2108079 2.01)
(-1.156245 0.3162119 2.01)
(-1.2171 0.2108079 2.31)
(-1.156245 0.3162119 2.31)
(-0.791115 -0.9486356 2.01)
(-0.85197 -0.8432316 2.01)
(-0.791115 -0.9486356 2.31)
(-0.85197 -0.8432316 2.31)
(0.304275 -1.159443 2.01)
(0.425985 -1.159443 2.01)
(0.304275 -1.159443 2.31)
(0.425985 -1.159443 2.31)
(1.2171 -0.2108079 2.01)
(1.156245 -0.3162119 2.01)
(1.2171 -0.2108079 2.31)
(1.156245 -0.3162119 2.31)
(0.97368 0.8432316 2.01)
(0.97368 0.8432316 2.31)
(-0.24342 1.264847 2.01)
(-0.24342 1.264847 2.31)
(-1.2171 0.4216158 2.01)
(-1.2171 0.4216158 2.31)
(-0.97368 -0.8432316 2.01)
(-0.97368 -0.8432316 2.31)
(0.24342 -1.264847 2.01)
(0.24342 -1.264847 2.31)
(1.2171 -0.4216158 2.01)
(1.2171 -0.4216158 2.31)
(-0.12171 1.475655 2.01)
(-0.060855 1.581059 2.01)
(0.060855 1.581059 2.01)
(0.12171 1.475655 2.01)
(-0.12171 1.475655 2.31)
(-0.060855 1.581059 2.31)
(0.060855 1.581059 2.31)
(0.12171 1.475655 2.31)
(-1.33881 0.6324237 2.01)
(-1.399665 0.7378277 2.01)
(-1.33881 0.8432316 2.01)
(-1.2171 0.8432316 2.01)
(-1.33881 0.6324237 2.31)
(-1.399665 0.7378277 2.31)
(-1.33881 0.8432316 2.31)
(-1.2171 0.8432316 2.31)
(-1.33881 -0.8432316 2.01)
(-1.399665 -0.7378277 2.01)
(-1.33881 -0.6324237 2.01)
(-1.2171 -0.8432316 2.01)
(-1.33881 -0.8432316 2.31)
(-1.399665 -0.7378277 2.31)
(-1.33881 -0.6324237 2.31)
(-1.2171 -0.8432316 2.31)
(-0.060855 -1.581059 2.01)
(-0.12171 -1.475655 2.01)
(0.12171 -1.475655 2.01)
(0.060855 -1.581059 2.01)
(-0.060855 -1.581059 2.31)
(-0.12171 -1.475655 2.31)
(0.12171 -1.475655 2.31)
(0.060855 -1.581059 2.31)
(1.2171 -0.8432316 2.01)
(1.33881 -0.6324237 2.01)
(1.399665 -0.7378277 2.01)
(1.33881 -0.8432316 2.01)
(1.2171 -0.8432316 2.31)
(1.33881 -0.6324237 2.31)
(1.399665 -0.7378277 2.31)
(1.33881 -0.8432316 2.31)
(1.2171 0.8432316 2.01)
(1.33881 0.8432316 2.01)
(1.399665 0.7378277 2.01)
(1.33881 0.6324237 2.01)
(1.2171 0.8432316 2.31)
(1.33881 0.8432316 2.31)
(1.399665 0.7378277 2.31)
(1.33881 0.6324237 2.31)
(0.24342 1.475655 2.01)
(0.304275 1.370251 2.01)
(0.24342 1.475655 2.31)
(0.304275 1.370251 2.31)
(-1.156245 0.9486356 2.01)
(-1.034535 0.9486356 2.01)
(-1.156245 0.9486356 2.31)
(-1.034535 0.9486356 2.31)
(-1.399665 -0.5270198 2.01)
(-1.33881 -0.4216158 2.01)
(-1.399665 -0.5270198 2.31)
(-1.33881 -0.4216158 2.31)
(-0.24342 -1.475655 2.01)
(-0.304275 -1.370251 2.01)
(-0.24342 -1.475655 2.31)
(-0.304275 -1.370251 2.31)
(1.034535 -0.9486356 2.01)
(1.156245 -0.9486356 2.01)
(1.034535 -0.9486356 2.31)
(1.156245 -0.9486356 2.31)
(1.399665 0.5270198 2.01)
(1.33881 0.4216158 2.01)
(1.399665 0.5270198 2.31)
(1.33881 0.4216158 2.31)
(0.425985 1.370251 2.01)
(0.48684 1.264847 2.01)
(0.425985 1.370251 2.31)
(0.48684 1.264847 2.31)
(-0.97368 1.05404 2.01)
(-0.85197 1.05404 2.01)
(-0.97368 1.05404 2.31)
(-0.85197 1.05404 2.31)
(-1.399665 -0.3162119 2.01)
(-1.33881 -0.2108079 2.01)
(-1.399665 -0.3162119 2.31)
(-1.33881 -0.2108079 2.31)
(-0.425985 -1.370251 2.01)
(-0.48684 -1.264847 2.01)
(-0.425985 -1.370251 2.31)
(-0.48684 -1.264847 2.31)
(0.85197 -1.05404 2.01)
(0.97368 -1.05404 2.01)
(0.85197 -1.05404 2.31)
(0.97368 -1.05404 2.31)
(1.399665 0.3162119 2.01)
(1.33881 0.2108079 2.01)
(1.399665 0.3162119 2.31)
(1.33881 0.2108079 2.31)
(0.60855 1.264847 2.01)
(0.669405 1.159443 2.01)
(0.60855 1.264847 2.31)
(0.669405 1.159443 2.31)
(-0.791115 1.159443 2.01)
(-0.669405 1.159443 2.01)
(-0.791115 1.159443 2.31)
(-0.669405 1.159443 2.31)
(-1.399665 -0.105404 2.01)
(-1.33881 1.94289e-16 2.01)
(-1.399665 -0.105404 2.31)
(-1.33881 1.94289e-16 2.31)
(-0.60855 -1.264847 2.01)
(-0.669405 -1.159443 2.01)
(-0.60855 -1.264847 2.31)
(-0.669405 -1.159443 2.31)
(0.669405 -1.159443 2.01)
(0.791115 -1.159443 2.01)
(0.669405 -1.159443 2.31)
(0.791115 -1.159443 2.31)
(1.399665 0.105404 2.01)
(1.33881 -3.053113e-16 2.01)
(1.399665 0.105404 2.31)
(1.33881 -3.053113e-16 2.31)
(0.791115 1.159443 2.01)
(0.85197 1.05404 2.01)
(0.791115 1.159443 2.31)
(0.85197 1.05404 2.31)
(-0.60855 1.264847 2.01)
(-0.48684 1.264847 2.01)
(-0.60855 1.264847 2.31)
(-0.48684 1.264847 2.31)
(-1.399665 0.105404 2.01)
(-1.33881 0.2108079 2.01)
(-1.399665 0.105404 2.31)
(-1.33881 0.2108079 2.31)
(-0.791115 -1.159443 2.01)
(-0.85197 -1.05404 2.01)
(-0.791115 -1.159443 2.31)
(-0.85197 -1.05404 2.31)
(0.48684 -1.264847 2.01)
(0.60855 -1.264847 2.01)
(0.48684 -1.264847 2.31)
(0.60855 -1.264847 2.31)
(1.399665 -0.105404 2.01)
(1.33881 -0.2108079 2.01)
(1.399665 -0.105404 2.31)
(1.33881 -0.2108079 2.31)
(0.97368 1.05404 2.01)
(1.034535 0.9486356 2.01)
(0.97368 1.05404 2.31)
(1.034535 0.9486356 2.31)
(-0.425985 1.370251 2.01)
(-0.304275 1.370251 2.01)
(-0.425985 1.370251 2.31)
(-0.304275 1.370251 2.31)
(-1.399665 0.3162119 2.01)
(-1.33881 0.4216158 2.01)
(-1.399665 0.3162119 2.31)
(-1.33881 0.4216158 2.31)
(-0.97368 -1.05404 2.01)
(-1.034535 -0.9486356 2.01)
(-0.97368 -1.05404 2.31)
(-1.034535 -0.9486356 2.31)
(0.304275 -1.370251 2.01)
(0.425985 -1.370251 2.01)
(0.304275 -1.370251 2.31)
(0.425985 -1.370251 2.31)
(1.399665 -0.3162119 2.01)
(1.33881 -0.4216158 2.01)
(1.399665 -0.3162119 2.31)
(1.33881 -0.4216158 2.31)
(1.156245 0.9486356 2.01)
(1.156245 0.9486356 2.31)
(-0.24342 1.475655 2.01)
(-0.24342 1.475655 2.31)
(-1.399665 0.5270198 2.01)
(-1.399665 0.5270198 2.31)
(-1.156245 -0.9486356 2.01)
(-1.156245 -0.9486356 2.31)
(0.24342 -1.475655 2.01)
(0.24342 -1.475655 2.31)
(1.399665 -0.5270198 2.01)
(1.399665 -0.5270198 2.31)
(-0.060855 -0.105404 1.9)
(-0.12171 0 1.9)
(-0.060855 0.105404 1.9)
(0.060855 0.105404 1.9)
(0.12171 0 1.9)
(0.060855 -0.105404 1.9)
(-0.12171 0.2108079 1.9)
(-0.060855 0.3162119 1.9)
(0.060855 0.3162119 1.9)
(0.12171 0.2108079 1.9)
(-0.24342 0 1.9)
(-0.304275 0.105404 1.9)
(-0.24342 0.2108079 1.9)
(-0.24342 -0.2108079 1.9)
(-0.304275 -0.105404 1.9)
(-0.12171 -0.2108079 1.9)
(-0.060855 -0.3162119 1.9)
(0.12171 -0.2108079 1.9)
(0.060855 -0.3162119 1.9)
(0.24342 0 1.9)
(0.304275 -0.105404 1.9)
(0.24342 -0.2108079 1.9)
(0.24342 0.2108079 1.9)
(0.304275 0.105404 1.9)
(-0.12171 0.4216158 1.9)
(-0.060855 0.5270198 1.9)
(0.060855 0.5270198 1.9)
(0.12171 0.4216158 1.9)
(-0.425985 0.105404 1.9)
(-0.48684 0.2108079 1.9)
(-0.425985 0.3162119 1.9)
(-0.304275 0.3162119 1.9)
(-0.425985 -0.3162119 1.9)
(-0.48684 -0.2108079 1.9)
(-0.425985 -0.105404 1.9)
(-0.304275 -0.3162119 1.9)
(-0.060855 -0.5270198 1.9)
(-0.12171 -0.4216158 1.9)
(0.12171 -0.4216158 1.9)
(0.060855 -0.5270198 1.9)
(0.304275 -0.3162119 1.9)
(0.425985 -0.105404 1.9)
(0.48684 -0.2108079 1.9)
(0.425985 -0.3162119 1.9)
(0.304275 0.3162119 1.9)
(0.425985 0.3162119 1.9)
(0.48684 0.2108079 1.9)
(0.425985 0.105404 1.9)
(0.24342 0.4216158 1.9)
(-0.24342 0.4216158 1.9)
(-0.48684 0 1.9)
(-0.24342 -0.4216158 1.9)
(0.24342 -0.4216158 1.9)
(0.48684 0 1.9)
(-0.12171 0.6324237 1.9)
(-0.060855 0.7378277 1.9)
(0.060855 0.7378277 1.9)
(0.12171 0.6324237 1.9)
(-0.60855 0.2108079 1.9)
(-0.669405 0.3162119 1.9)
(-0.60855 0.4216158 1.9)
(-0.48684 0.4216158 1.9)
(-0.60855 -0.4216158 1.9)
(-0.669405 -0.3162119 1.9)
(-0.60855 -0.2108079 1.9)
(-0.48684 -0.4216158 1.9)
(-0.060855 -0.7378277 1.9)
(-0.12171 -0.6324237 1.9)
(0.12171 -0.6324237 1.9)
(0.060855 -0.7378277 1.9)
(0.48684 -0.4216158 1.9)
(0.60855 -0.2108079 1.9)
(0.669405 -0.3162119 1.9)
(0.60855 -0.4216158 1.9)
(0.48684 0.4216158 1.9)
(0.60855 0.4216158 1.9)
(0.669405 0.3162119 1.9)
(0.60855 0.2108079 1.9)
(0.24342 0.6324237 1.9)
(0.304275 0.5270198 1.9)
(-0.425985 0.5270198 1.9)
(-0.304275 0.5270198 1.9)
(-0.669405 -0.105404 1.9)
(-0.60855 5.551115e-17 1.9)
(-0.24342 -0.6324237 1.9)
(-0.304275 -0.5270198 1.9)
(0.304275 -0.5270198 1.9)
(0.425985 -0.5270198 1.9)
(0.669405 0.105404 1.9)
(0.60855 -1.387779e-16 1.9)
(0.425985 0.5270198 1.9)
(-0.24342 0.6324237 1.9)
(-0.669405 0.105404 1.9)
(-0.425985 -0.5270198 1.9)
(0.24342 -0.6324237 1.9)
(0.669405 -0.105404 1.9)
(-0.12171 0.8432316 1.9)
(-0.060855 0.9486356 1.9)
(0.060855 0.9486356 1.9)
(0.12171 0.8432316 1.9)
(-0.791115 0.3162119 1.9)
(-0.85197 0.4216158 1.9)
(-0.791115 0.5270198 1.9)
(-0.669405 0.5270198 1.9)
(-0.791115 -0.5270198 1.9)
(-0.85197 -0.4216158 1.9)
(-0.791115 -0.3162119 1.9)
(-0.669405 -0.5270198 1.9)
(-0.060855 -0.9486356 1.9)
(-0.12171 -0.8432316 1.9)
(0.12171 -0.8432316 1.9)
(0.060855 -0.9486356 1.9)
(0.669405 -0.5270198 1.9)
(0.791115 -0.3162119 1.9)
(0.85197 -0.4216158 1.9)
(0.791115 -0.5270198 1.9)
(0.669405 0.5270198 1.9)
(0.791115 0.5270198 1.9)
(0.85197 0.4216158 1.9)
(0.791115 0.3162119 1.9)
(0.24342 0.8432316 1.9)
(0.304275 0.7378277 1.9)
(-0.60855 0.6324237 1.9)
(-0.48684 0.6324237 1.9)
(-0.85197 -0.2108079 1.9)
(-0.791115 -0.105404 1.9)
(-0.24342 -0.8432316 1.9)
(-0.304275 -0.7378277 1.9)
(0.48684 -0.6324237 1.9)
(0.60855 -0.6324237 1.9)
(0.85197 0.2108079 1.9)
(0.791115 0.105404 1.9)
(0.425985 0.7378277 1.9)
(0.48684 0.6324237 1.9)
(-0.425985 0.7378277 1.9)
(-0.304275 0.7378277 1.9)
(-0.85197 0 1.9)
(-0.791115 0.105404 1.9)
(-0.425985 -0.7378277 1.9)
(-0.48684 -0.6324237 1.9)
(0.304275 -0.7378277 1.9)
(0.425985 -0.7378277 1.9)
(0.85197 0 1.9)
(0.791115 -0.105404 1.9)
(0.60855 0.6324237 1.9)
(-0.24342 0.8432316 1.9)
(-0.85197 0.2108079 1.9)
(-0.60855 -0.6324237 1.9)
(0.24342 -0.8432316 1.9)
(0.85197 -0.2108079 1.9)
(-0.12171 1.05404 1.9)
(-0.060855 1.159443 1.9)
(0.060855 1.159443 1.9)
(0.12171 1.05404 1.9)
(-0.97368 0.4216158 1.9)
(-1.034535 0.5270198 1.9)
(-0.97368 0.6324237 1.9)
(-0.85197 0.6324237 1.9)
(-0.97368 -0.6324237 1.9)
(-1.034535 -0.5270198 1.9)
(-0.97368 -0.4216158 1.9)
(-0.85197 -0.6324237 1.9)
(-0.060855 -1.159443 1.9)
(-0.12171 -1.05404 1.9)
(0.12171 -1.05404 1.9)
(0.060855 -1.159443 1.9)
(0.85197 -0.6324237 1.9)
(0.97368 -0.4216158 1.9)
(1.034535 -0.5270198 1.9)
(0.97368 -0.6324237 1.9)
(0.85197 0.6324237 1.9)
(0.97368 0.6324237 1.9)
(1.034535 0.5270198 1.9)
(0.97368 0.4216158 1.9)
(0.24342 1.05404 1.9)
(0.304275 0.9486356 1.9)
(-0.791115 0.7378277 1.9)
(-0.669405 0.7378277 1.9)
(-1.034535 -0.3162119 1.9)
(-0.97368 -0.2108079 1.9)
(-0.24342 -1.05404 1.9)
(-0.304275 -0.9486356 1.9)
(0.669405 -0.7378277 1.9)
(0.791115 -0.7378277 1.9)
(1.034535 0.3162119 1.9)
(0.97368 0.2108079 1.9)
(0.425985 0.9486356 1.9)
(0.48684 0.8432316 1.9)
(-0.60855 0.8432316 1.9)
(-0.48684 0.8432316 1.9)
(-1.034535 -0.105404 1.9)
(-0.97368 8.326673e-17 1.9)
(-0.425985 -0.9486356 1.9)
(-0.48684 -0.8432316 1.9)
(0.48684 -0.8432316 1.9)
(0.60855 -0.8432316 1.9)
(1.034535 0.105404 1.9)
(0.97368 -1.387779e-16 1.9)
(0.60855 0.8432316 1.9)
(0.669405 0.7378277 1.9)
(-0.425985 0.9486356 1.9)
(-0.304275 0.9486356 1.9)
(-1.034535 0.105404 1.9)
(-0.97368 0.2108079 1.9)
(-0.60855 -0.8432316 1.9)
(-0.669405 -0.7378277 1.9)
(0.304275 -0.9486356 1.9)
(0.425985 -0.9486356 1.9)
(1.034535 -0.105404 1.9)
(0.97368 -0.2108079 1.9)
(0.791115 0.7378277 1.9)
(-0.24342 1.05404 1.9)
(-1.034535 0.3162119 1.9)
(-0.791115 -0.7378277 1.9)
(0.24342 -1.05404 1.9)
(1.034535 -0.3162119 1.9)
(-0.12171 1.264847 1.9)
(-0.060855 1.370251 1.9)
(0.060855 1.370251 1.9)
(0.12171 1.264847 1.9)
(-1.156245 0.5270198 1.9)
(-1.2171 0.6324237 1.9)
(-1.156245 0.7378277 1.9)
(-1.034535 0.7378277 1.9)
(-1.156245 -0.7378277 1.9)
(-1.2171 -0.6324237 1.9)
(-1.156245 -0.5270198 1.9)
(-1.034535 -0.7378277 1.9)
(-0.060855 -1.370251 1.9)
(-0.12171 -1.264847 1.9)
(0.12171 -1.264847 1.9)
(0.060855 -1.370251 1.9)
(1.034535 -0.7378277 1.9)
(1.156245 -0.5270198 1.9)
(1.2171 -0.6324237 1.9)
(1.156245 -0.7378277 1.9)
(1.034535 0.7378277 1.9)
(1.156245 0.7378277 1.9)
(1.2171 0.6324237 1.9)
(1.156245 0.5270198 1.9)
(0.24342 1.264847 1.9)
(0.304275 1.159443 1.9)
(-0.97368 0.8432316 1.9)
(-0.85197 0.8432316 1.9)
(-1.2171 -0.4216158 1.9)
(-1.156245 -0.3162119 1.9)
(-0.24342 -1.264847 1.9)
(-0.304275 -1.159443 1.9)
(0.85197 -0.8432316 1.9)
(0.97368 -0.8432316 1.9)
(1.2171 0.4216158 1.9)
(1.156245 0.3162119 1.9)
(0.425985 1.159443 1.9)
(0.48684 1.05404 1.9)
(-0.791115 0.9486356 1.9)
(-0.669405 0.9486356 1.9)
(-1.2171 -0.2108079 1.9)
(-1.156245 -0.105404 1.9)
(-0.425985 -1.159443 1.9)
(-0.48684 -1.05404 1.9)
(0.669405 -0.9486356 1.9)
(0.791115 -0.9486356 1.9)
(1.2171 0.2108079 1.9)
(1.156245 0.105404 1.9)
(0.60855 1.05404 1.9)
(0.669405 0.9486356 1.9)
(-0.60855 1.05404 1.9)
(-0.48684 1.05404 1.9)
(-1.2171 2.220446e-16 1.9)
(-1.156245 0.105404 1.9)
(-0.60855 -1.05404 1.9)
(-0.669405 -0.9486356 1.9)
(0.48684 -1.05404 1.9)
(0.60855 -1.05404 1.9)
(1.2171 -3.330669e-16 1.9)
(1.156245 -0.105404 1.9)
(0.791115 0.9486356 1.9)
(0.85197 0.8432316 1.9)
(-0.425985 1.159443 1.9)
(-0.304275 1.159443 1.9)
(-1.2171 0.2108079 1.9)
(-1.156245 0.3162119 1.9)
(-0.791115 -0.9486356 1.9)
(-0.85197 -0.8432316 1.9)
(0.304275 -1.159443 1.9)
(0.425985 -1.159443 1.9)
(1.2171 -0.2108079 1.9)
(1.156245 -0.3162119 1.9)
(0.97368 0.8432316 1.9)
(-0.24342 1.264847 1.9)
(-1.2171 0.4216158 1.9)
(-0.97368 -0.8432316 1.9)
(0.24342 -1.264847 1.9)
(1.2171 -0.4216158 1.9)
(-0.12171 1.475655 1.9)
(-0.060855 1.581059 1.9)
(0.060855 1.581059 1.9)
(0.12171 1.475655 1.9)
(-1.33881 0.6324237 1.9)
(-1.399665 0.7378277 1.9)
(-1.33881 0.8432316 1.9)
(-1.2171 0.8432316 1.9)
(-1.33881 -0.8432316 1.9)
(-1.399665 -0.7378277 1.9)
(-1.33881 -0.6324237 1.9)
(-1.2171 -0.8432316 1.9)
(-0.060855 -1.581059 1.9)
(-0.12171 -1.475655 1.9)
(0.12171 -1.475655 1.9)
(0.060855 -1.581059 1.9)
(1.2171 -0.8432316 1.9)
(1.33881 -0.6324237 1.9)
(1.399665 -0.7378277 1.9)
(1.33881 -0.8432316 1.9)
(1.2171 0.8432316 1.9)
(1.33881 0.8432316 1.9)
(1.399665 0.7378277 1.9)
(1.33881 0.6324237 1.9)
(0.24342 1.475655 1.9)
(0.304275 1.370251 1.9)
(-1.156245 0.9486356 1.9)
(-1.034535 0.9486356 1.9)
(-1.399665 -0.5270198 1.9)
(-1.33881 -0.4216158 1.9)
(-0.24342 -1.475655 1.9)
(-0.304275 -1.370251 1.9)
(1.034535 -0.9486356 1.9)
(1.156245 -0.9486356 1.9)
(1.399665 0.5270198 1.9)
(1.33881 0.4216158 1.9)
(0.425985 1.370251 1.9)
(0.48684 1.264847 1.9)
(-0.97368 1.05404 1.9)
(-0.85197 1.05404 1.9)
(-1.399665 -0.3162119 1.9)
(-1.33881 -0.2108079 1.9)
(-0.425985 -1.370251 1.9)
(-0.48684 -1.264847 1.9)
(0.85197 -1.05404 1.9)
(0.97368 -1.05404 1.9)
(1.399665 0.3162119 1.9)
(1.33881 0.2108079 1.9)
(0.60855 1.264847 1.9)
(0.669405 1.159443 1.9)
(-0.791115 1.159443 1.9)
(-0.669405 1.159443 1.9)
(-1.399665 -0.105404 1.9)
(-1.33881 1.94289e-16 1.9)
(-0.60855 -1.264847 1.9)
(-0.669405 -1.159443 1.9)
(0.669405 -1.159443 1.9)
(0.791115 -1.159443 1.9)
(1.399665 0.105404 1.9)
(1.33881 -3.053113e-16 1.9)
(0.791115 1.159443 1.9)
(0.85197 1.05404 1.9)
(-0.60855 1.264847 1.9)
(-0.48684 1.264847 1.9)
(-1.399665 0.105404 1.9)
(-1.33881 0.2108079 1.9)
(-0.791115 -1.159443 1.9)
(-0.85197 -1.05404 1.9)
(0.48684 -1.264847 1.9)
(0.60855 -1.264847 1.9)
(1.399665 -0.105404 1.9)
(1.33881 -0.2108079 1.9)
(0.97368 1.05404 1.9)
(1.034535 0.9486356 1.9)