/*--------------------------------*- C++ -*----------------------------------*\
| =========                 |                                                 |
| \\      /  F ield         | OpenFOAM: The Open Source CFD Toolbox           |
|  \\    /   O peration     | Version:  2212                                  |
|   \\  /    A nd           | Website:  www.openfoam.com                      |
|    \\/     M anipulation  |                                                 |
\*---------------------------------------------------------------------------*/
FoamFile
{
    version     2.0;
    format      ascii;
    arch        "LSB;label=32;scalar=64";
    class       volScalarField;
    location    "200/neutroRegion";
    object      oneGroupFlux;
}
// * * * * * * * * * * * * * * * * * * * * * * * * * * * * * * * * * * * * * //

dimensions      [0 -2 -1 0 0 0 0];

internalField   nonuniform List<scalar> 
23322
(
1.019871e+18
5.929051e+17
1.968617e+17
1.019871e+18
5.929053e+17
1.968618e+17
1.019871e+18
5.929051e+17
1.968617e+17
1.019871e+18
5.92905e+17
1.968616e+17
1.019871e+18
5.92905e+17
1.968616e+17
1.019871e+18
5.929053e+17
1.968616e+17
1.058805e+18
5.894424e+17
1.892583e+17
1.064796e+18
5.869563e+17
1.870482e+17
1.050963e+18
5.756985e+17
1.819686e+17
1.050963e+18
5.756984e+17
1.819686e+17
1.041826e+18
5.697654e+17
1.802434e+17
1.064796e+18
5.869564e+17
1.870482e+17
1.058805e+18
5.894425e+17
1.892583e+17
1.064796e+18
5.869566e+17
1.870483e+17
1.064796e+18
5.869563e+17
1.870482e+17
1.050963e+18
5.756986e+17
1.819687e+17
1.041827e+18
5.697655e+17
1.802435e+17
1.050963e+18
5.756985e+17
1.819686e+17
1.050963e+18
5.756986e+17
1.819686e+17
1.064796e+18
5.869568e+17
1.870483e+17
1.058805e+18
5.894429e+17
1.892584e+17
1.041826e+18
5.697654e+17
1.802434e+17
1.064797e+18
5.869565e+17
1.870483e+17
1.050963e+18
5.756988e+17
1.819687e+17
1.064797e+18
5.869563e+17
1.870483e+17
1.064796e+18
5.869566e+17
1.870484e+17
1.050963e+18
5.756986e+17
1.819687e+17
1.058805e+18
5.894427e+17
1.892584e+17
1.041826e+18
5.697657e+17
1.802435e+17
1.050964e+18
5.756984e+17
1.819688e+17
1.050963e+18
5.756985e+17
1.819687e+17
1.041826e+18
5.697652e+17
1.802435e+17
1.064796e+18
5.869564e+17
1.870483e+17
1.064796e+18
5.86957e+17
1.870483e+17
1.050962e+18
5.756985e+17
1.819687e+17
1.058805e+18
5.894429e+17
1.892583e+17
1.050962e+18
5.756982e+17
1.819686e+17
1.058805e+18
5.894424e+17
1.892583e+17
1.064796e+18
5.869564e+17
1.870483e+17
1.041826e+18
5.697651e+17
1.802434e+17
1.064796e+18
5.869564e+17
1.870482e+17
1.050963e+18
5.756984e+17
1.819686e+17
9.133032e+17
4.870445e+17
1.531438e+17
9.133034e+17
4.870446e+17
1.531438e+17
8.371595e+17
4.406727e+17
1.386836e+17
9.799001e+17
5.296966e+17
1.665131e+17
9.799e+17
5.296965e+17
1.665131e+17
1.006832e+18
5.472078e+17
1.726291e+17
9.799004e+17
5.296968e+17
1.665132e+17
8.371596e+17
4.406727e+17
1.386837e+17
9.799003e+17
5.296967e+17
1.665132e+17
9.133038e+17
4.870449e+17
1.531439e+17
1.006832e+18
5.472082e+17
1.726292e+17
9.133037e+17
4.870449e+17
1.531439e+17
1.006832e+18
5.472076e+17
1.726291e+17
9.799e+17
5.296964e+17
1.665131e+17
9.799e+17
5.296964e+17
1.665131e+17
8.371591e+17
4.406723e+17
1.386835e+17
9.133033e+17
4.870445e+17
1.531438e+17
9.133032e+17
4.870446e+17
1.531438e+17
9.133032e+17
4.870447e+17
1.531438e+17
9.133035e+17
4.870446e+17
1.531439e+17
9.799001e+17
5.296968e+17
1.665132e+17
9.799002e+17
5.296967e+17
1.665132e+17
1.006831e+18
5.472088e+17
1.726293e+17
8.371594e+17
4.406727e+17
1.386836e+17
9.798997e+17
5.296963e+17
1.665131e+17
1.006831e+18
5.472075e+17
1.726291e+17
9.798995e+17
5.296965e+17
1.665131e+17
9.133037e+17
4.870442e+17
1.531438e+17
9.13303e+17
4.870445e+17
1.531437e+17
8.371591e+17
4.406726e+17
1.386836e+17
1.006831e+18
5.472073e+17
1.72629e+17
9.798995e+17
5.296962e+17
1.66513e+17
8.371587e+17
4.406722e+17
1.386835e+17
9.798995e+17
5.296961e+17
1.66513e+17
9.133029e+17
4.870443e+17
1.531437e+17
9.133028e+17
4.870443e+17
1.531437e+17
1.001983e+18
5.451628e+17
1.721213e+17
9.733743e+17
5.281001e+17
1.664815e+17
1.034695e+18
5.657443e+17
1.790365e+17
1.001983e+18
5.451629e+17
1.721213e+17
9.733745e+17
5.281001e+17
1.664815e+17
1.034695e+18
5.657444e+17
1.790364e+17
1.001984e+18
5.451632e+17
1.721214e+17
1.034695e+18
5.657445e+17
1.790365e+17
9.733751e+17
5.281005e+17
1.664817e+17
1.034695e+18
5.657444e+17
1.790365e+17
1.001984e+18
5.451632e+17
1.721214e+17
9.733753e+17
5.281004e+17
1.664816e+17
1.034695e+18
5.657445e+17
1.790366e+17
1.034695e+18
5.657444e+17
1.790366e+17
1.001984e+18
5.451632e+17
1.721214e+17
1.001984e+18
5.451629e+17
1.721213e+17
9.733747e+17
5.281002e+17
1.664816e+17
9.733747e+17
5.281001e+17
1.664815e+17
1.001984e+18
5.451631e+17
1.721213e+17
9.733747e+17
5.281001e+17
1.664816e+17
1.034695e+18
5.657444e+17
1.790365e+17
9.733749e+17
5.281001e+17
1.664816e+17
1.034695e+18
5.657448e+17
1.790366e+17
1.001984e+18
5.451629e+17
1.721213e+17
9.733748e+17
5.281002e+17
1.664817e+17
9.733743e+17
5.281006e+17
1.664817e+17
1.001985e+18
5.451625e+17
1.721214e+17
1.001983e+18
5.451636e+17
1.721214e+17
1.034696e+18
5.65744e+17
1.790365e+17
1.034695e+18
5.657445e+17
1.790366e+17
1.034694e+18
5.657443e+17
1.790365e+17
1.034695e+18
5.657442e+17
1.790365e+17
1.001983e+18
5.45163e+17
1.721213e+17
9.733744e+17
5.281e+17
1.664815e+17
1.001983e+18
5.451627e+17
1.721212e+17
9.733743e+17
5.280999e+17
1.664815e+17
5.919629e+17
3.128986e+17
1.000287e+17
5.919628e+17
3.128986e+17
1.000287e+17
6.147686e+17
3.255755e+17
1.043122e+17
5.461779e+17
2.876078e+17
9.153949e+16
5.461781e+17
2.876078e+17
9.153951e+16
5.221413e+17
2.743336e+17
8.707468e+16
5.461781e+17
2.876078e+17
9.153952e+16
5.919631e+17
3.128987e+17
1.000288e+17
6.147686e+17
3.255754e+17
1.043122e+17
5.221412e+17
2.743335e+17
8.70747e+16
5.46178e+17
2.876077e+17
9.153945e+16
5.919629e+17
3.128986e+17
1.000287e+17
5.461777e+17
2.876076e+17
9.153944e+16
5.919626e+17
3.128985e+17
1.000287e+17
5.221409e+17
2.743334e+17
8.707466e+16
5.461778e+17
2.876077e+17
9.153943e+16
6.147683e+17
3.255751e+17
1.043121e+17
5.919626e+17
3.128984e+17
1.000286e+17
5.919627e+17
3.128985e+17
1.000287e+17
6.147684e+17
3.255753e+17
1.043121e+17
5.221408e+17
2.743333e+17
8.707462e+16
5.919627e+17
3.128984e+17
1.000287e+17
5.461779e+17
2.876078e+17
9.153946e+16
5.461778e+17
2.876078e+17
9.153945e+16
5.461777e+17
2.876076e+17
9.153945e+16
5.919627e+17
3.128985e+17
1.000287e+17
5.461775e+17
2.876075e+17
9.15394e+16
5.221409e+17
2.743334e+17
8.707464e+16
6.147681e+17
3.255753e+17
1.043121e+17
5.919626e+17
3.128985e+17
1.000287e+17
5.461777e+17
2.876076e+17
9.153945e+16
5.461778e+17
2.876077e+17
9.153947e+16
6.147681e+17
3.255751e+17
1.043121e+17
5.221411e+17
2.743335e+17
8.707469e+16
5.919626e+17
3.128985e+17
1.000287e+17
5.919625e+17
3.128985e+17
1.000287e+17
8.869516e+17
4.721088e+17
1.482542e+17
7.860282e+17
4.121966e+17
1.293388e+17
9.261463e+17
4.984821e+17
1.563036e+17
8.998429e+17
4.848998e+17
1.522507e+17
8.125057e+17
4.303672e+17
1.347348e+17
8.533401e+17
4.57654e+17
1.432484e+17
7.860286e+17
4.121968e+17
1.293388e+17
8.125062e+17
4.303675e+17
1.347349e+17
8.998435e+17
4.849003e+17
1.522509e+17
8.533407e+17
4.576545e+17
1.432485e+17
8.869523e+17
4.721092e+17
1.482543e+17
9.261471e+17
4.984827e+17
1.563038e+17
7.86028e+17
4.121964e+17
1.293387e+17
8.869518e+17
4.721088e+17
1.482541e+17
9.261465e+17
4.984821e+17
1.563036e+17
8.125055e+17
4.30367e+17
1.347347e+17
8.533399e+17
4.576539e+17
1.432484e+17
8.998431e+17
4.848999e+17
1.522507e+17
8.869518e+17
4.721088e+17
1.482542e+17
7.860283e+17
4.121966e+17
1.293388e+17
9.261463e+17
4.984823e+17
1.563037e+17
8.998428e+17
4.848999e+17
1.522508e+17
8.533399e+17
4.576539e+17
1.432484e+17
8.125057e+17
4.303672e+17
1.347348e+17
8.5334e+17
4.576542e+17
1.432485e+17
9.26147e+17
4.984822e+17
1.563037e+17
8.998429e+17
4.849005e+17
1.522509e+17
8.125058e+17
4.303672e+17
1.347348e+17
8.869517e+17
4.721084e+17
1.482542e+17
7.860283e+17
4.121963e+17
1.293387e+17
8.533394e+17
4.576537e+17
1.432484e+17
9.261459e+17
4.984819e+17
1.563036e+17
8.869514e+17
4.721086e+17
1.482541e+17
8.998426e+17
4.848998e+17
1.522508e+17
8.125054e+17
4.30367e+17
1.347347e+17
7.86028e+17
4.121964e+17
1.293387e+17
8.533398e+17
4.576539e+17
1.432484e+17
9.261462e+17
4.984821e+17
1.563036e+17
8.869516e+17
4.721086e+17
1.482541e+17
8.99843e+17
4.848999e+17
1.522508e+17
7.860281e+17
4.121964e+17
1.293387e+17
8.125057e+17
4.303671e+17
1.347347e+17
7.860285e+17
4.121967e+17
1.293389e+17
8.125061e+17
4.303675e+17
1.347349e+17
8.869522e+17
4.72109e+17
1.482543e+17
9.26147e+17
4.984824e+17
1.563037e+17
8.533405e+17
4.576543e+17
1.432485e+17
8.998437e+17
4.849002e+17
1.522509e+17
8.533398e+17
4.576539e+17
1.432484e+17
8.998432e+17
4.848999e+17
1.522508e+17
9.261466e+17
4.984823e+17
1.563036e+17
8.125057e+17
4.303671e+17
1.347347e+17
7.860284e+17
4.121966e+17
1.293387e+17
8.869521e+17
4.721089e+17
1.482542e+17
7.86028e+17
4.121964e+17
1.293387e+17
8.125055e+17
4.30367e+17
1.347347e+17
8.533398e+17
4.576539e+17
1.432484e+17
8.869517e+17
4.721088e+17
1.482541e+17
9.261464e+17
4.984822e+17
1.563036e+17
8.998431e+17
4.848999e+17
1.522508e+17
8.533399e+17
4.576541e+17
1.432485e+17
9.261461e+17
4.984827e+17
1.563038e+17
8.869524e+17
4.721088e+17
1.482542e+17
7.860284e+17
4.121964e+17
1.293388e+17
8.998428e+17
4.849007e+17
1.522509e+17
8.12506e+17
4.30367e+17
1.347348e+17
9.261461e+17
4.98482e+17
1.563036e+17
8.869515e+17
4.721086e+17
1.482541e+17
8.125052e+17
4.303669e+17
1.347347e+17
8.533395e+17
4.576538e+17
1.432484e+17
7.86028e+17
4.121964e+17
1.293387e+17
8.998427e+17
4.848998e+17
1.522507e+17
5.897417e+17
3.120025e+17
9.697734e+16
6.168515e+17
3.256564e+17
1.010147e+17
6.279817e+17
3.252423e+17
1.011007e+17
6.531e+17
3.418751e+17
1.062068e+17
6.530998e+17
3.41875e+17
1.062068e+17
6.168514e+17
3.256563e+17
1.010147e+17
6.168509e+17
3.25656e+17
1.010146e+17
6.530997e+17
3.418749e+17
1.062067e+17
5.897413e+17
3.120022e+17
9.69772e+16
6.279818e+17
3.252423e+17
1.011007e+17
6.168508e+17
3.256558e+17
1.010145e+17
6.530996e+17
3.418747e+17
1.062066e+17
6.168507e+17
3.256559e+17
1.010146e+17
6.279814e+17
3.252422e+17
1.011007e+17
6.530995e+17
3.418748e+17
1.062067e+17
5.897411e+17
3.120022e+17
9.697723e+16
6.168507e+17
3.256559e+17
1.010146e+17
6.530994e+17
3.418748e+17
1.062067e+17
6.279813e+17
3.252421e+17
1.011007e+17
6.530992e+17
3.418746e+17
1.062067e+17
6.530993e+17
3.418747e+17
1.062067e+17
6.168507e+17
3.256559e+17
1.010145e+17
5.897411e+17
3.12002e+17
9.697715e+16
6.168509e+17
3.256558e+17
1.010145e+17
6.279812e+17
3.252419e+17
1.011006e+17
6.168506e+17
3.256558e+17
1.010145e+17
6.530993e+17
3.418746e+17
1.062067e+17
6.530991e+17
3.418746e+17
1.062066e+17
6.168506e+17
3.256558e+17
1.010145e+17
5.89741e+17
3.120021e+17
9.697714e+16
5.897412e+17
3.120022e+17
9.697725e+16
6.168511e+17
3.256561e+17
1.010146e+17
6.530996e+17
3.418749e+17
1.062068e+17
6.168508e+17
3.25656e+17
1.010146e+17
6.530994e+17
3.418748e+17
1.062067e+17
6.279818e+17
3.252423e+17
1.011007e+17
7.599278e+17
4.063343e+17
1.270163e+17
7.124742e+17
3.817283e+17
1.195273e+17
6.840124e+17
3.561191e+17
1.111423e+17
6.829454e+17
3.585026e+17
1.11603e+17
7.634329e+17
4.0351e+17
1.261953e+17
6.790292e+17
3.608581e+17
1.123561e+17
7.599282e+17
4.063345e+17
1.270164e+17
6.790293e+17
3.608583e+17
1.123562e+17
7.124747e+17
3.817286e+17
1.195274e+17
7.634333e+17
4.035102e+17
1.261954e+17
6.840128e+17
3.561193e+17
1.111423e+17
6.829457e+17
3.585027e+17
1.11603e+17
7.599275e+17
4.063341e+17
1.270163e+17
6.790288e+17
3.608581e+17
1.123562e+17
7.634325e+17
4.035097e+17
1.261953e+17
6.840122e+17
3.561189e+17
1.111422e+17
7.124741e+17
3.817284e+17
1.195273e+17
6.829452e+17
3.585024e+17
1.116029e+17
7.599276e+17
4.063341e+17
1.270162e+17
6.829449e+17
3.585022e+17
1.116028e+17
6.790288e+17
3.60858e+17
1.123561e+17
7.634327e+17
4.035098e+17
1.261953e+17
7.124739e+17
3.817282e+17
1.195272e+17
6.840123e+17
3.561188e+17
1.111421e+17
6.840121e+17
3.56119e+17
1.111422e+17
7.634327e+17
4.035101e+17
1.261953e+17
6.829451e+17
3.585023e+17
1.116029e+17
7.599279e+17
4.063343e+17
1.270163e+17
6.790288e+17
3.608579e+17
1.123561e+17
7.124741e+17
3.817283e+17
1.195272e+17
6.790286e+17
3.608579e+17
1.123561e+17
7.124736e+17
3.81728e+17
1.195272e+17
6.82945e+17
3.585024e+17
1.116029e+17
7.599273e+17
4.06334e+17
1.270162e+17
6.840121e+17
3.561189e+17
1.111422e+17
7.634325e+17
4.035097e+17
1.261952e+17
7.490912e+17
4.050189e+17
1.275477e+17
8.289387e+17
4.469826e+17
1.405289e+17
7.854689e+17
4.235018e+17
1.331638e+17
7.854688e+17
4.235017e+17
1.331638e+17
7.490914e+17
4.05019e+17
1.275478e+17
8.289389e+17
4.469826e+17
1.405289e+17
7.490916e+17
4.050191e+17
1.275478e+17
7.490917e+17
4.050192e+17
1.275478e+17
7.854693e+17
4.235021e+17
1.331639e+17
8.289394e+17
4.469829e+17
1.40529e+17
7.854693e+17
4.23502e+17
1.331639e+17
8.289395e+17
4.46983e+17
1.40529e+17
7.490908e+17
4.050187e+17
1.275477e+17
7.854685e+17
4.235016e+17
1.331638e+17
8.289386e+17
4.469825e+17
1.405289e+17
7.854685e+17
4.235015e+17
1.331637e+17
7.49091e+17
4.050188e+17
1.275477e+17
8.289387e+17
4.469826e+17
1.405288e+17
8.289385e+17
4.469824e+17
1.405288e+17
7.854684e+17
4.235015e+17
1.331637e+17
8.289387e+17
4.469825e+17
1.405289e+17
7.490908e+17
4.050187e+17
1.275477e+17
7.490909e+17
4.050187e+17
1.275477e+17
7.854687e+17
4.235016e+17
1.331637e+17
7.490912e+17
4.050189e+17
1.275478e+17
7.854689e+17
4.235018e+17
1.331638e+17
8.289391e+17
4.469826e+17
1.405289e+17
7.490912e+17
4.05019e+17
1.275478e+17
8.289391e+17
4.469828e+17
1.405289e+17
7.854689e+17
4.235016e+17
1.331638e+17
8.289382e+17
4.469824e+17
1.405288e+17
8.289382e+17
4.469823e+17
1.405288e+17
7.490906e+17
4.050185e+17
1.275476e+17
7.854683e+17
4.235013e+17
1.331636e+17
7.854684e+17
4.235015e+17
1.331637e+17
7.490907e+17
4.050186e+17
1.275476e+17
6.790291e+17
3.608582e+17
1.123562e+17
7.124743e+17
3.817283e+17
1.195273e+17
6.840124e+17
3.561191e+17
1.111423e+17
6.829455e+17
3.585027e+17
1.11603e+17
7.59928e+17
4.063343e+17
1.270163e+17
7.634329e+17
4.035099e+17
1.261953e+17
7.124746e+17
3.817286e+17
1.195274e+17
7.634332e+17
4.035101e+17
1.261954e+17
6.840127e+17
3.561193e+17
1.111423e+17
7.599285e+17
4.063347e+17
1.270164e+17
6.790296e+17
3.608585e+17
1.123563e+17
6.829458e+17
3.585027e+17
1.11603e+17
6.840122e+17
3.561188e+17
1.111422e+17
7.634326e+17
4.035098e+17
1.261952e+17
6.829452e+17
3.585023e+17
1.116028e+17
7.599276e+17
4.063341e+17
1.270162e+17
7.124738e+17
3.81728e+17
1.195271e+17
6.790288e+17
3.608578e+17
1.12356e+17
7.599276e+17
4.063341e+17
1.270162e+17
6.790287e+17
3.608579e+17
1.123561e+17
7.124739e+17
3.817282e+17
1.195272e+17
6.829451e+17
3.585024e+17
1.116029e+17
7.634326e+17
4.035097e+17
1.261952e+17
6.840123e+17
3.561189e+17
1.111422e+17
6.840121e+17
3.561188e+17
1.111421e+17
7.634327e+17
4.035096e+17
1.261952e+17
6.829451e+17
3.585025e+17
1.116029e+17
6.790291e+17
3.60858e+17
1.123561e+17
7.599277e+17
4.063341e+17
1.270162e+17
7.124741e+17
3.817282e+17
1.195272e+17
6.840118e+17
3.561187e+17
1.111421e+17
7.634322e+17
4.035096e+17
1.261952e+17
6.829448e+17
3.585021e+17
1.116028e+17
7.599274e+17
4.063339e+17
1.270161e+17
6.790285e+17
3.608577e+17
1.12356e+17
7.124737e+17
3.817279e+17
1.195271e+17
3.693641e+17
1.887852e+17
5.832112e+16
3.431252e+17
1.741504e+17
5.34945e+16
4.728468e+17
2.472325e+17
7.684351e+16
4.728466e+17
2.472324e+17
7.684347e+16
3.693643e+17
1.887851e+17
5.83211e+16
5.169346e+17
2.719411e+17
8.426129e+16
3.431244e+17
1.741499e+17
5.349434e+16
3.693637e+17
1.887849e+17
5.832103e+16
4.728465e+17
2.472323e+17
7.684341e+16
3.693636e+17
1.887849e+17
5.8321e+16
5.169342e+17
2.719407e+17
8.426114e+16
4.728464e+17
2.472322e+17
7.684335e+16
3.693635e+17
1.887849e+17
5.832102e+16
4.728464e+17
2.472323e+17
7.684342e+16
3.693636e+17
1.887849e+17
5.832102e+16
3.431244e+17
1.741499e+17
5.349432e+16
5.169341e+17
2.719407e+17
8.426117e+16
4.728465e+17
2.472323e+17
7.684342e+16
5.169338e+17
2.719405e+17
8.426109e+16
4.72846e+17
2.47232e+17
7.684331e+16
4.72846e+17
2.47232e+17
7.684329e+16
3.693634e+17
1.887847e+17
5.832095e+16
3.693634e+17
1.887848e+17
5.832097e+16
3.431246e+17
1.741499e+17
5.349434e+16
3.693634e+17
1.887848e+17
5.832098e+16
4.728463e+17
2.472322e+17
7.684336e+16
3.431243e+17
1.741498e+17
5.349429e+16
3.693636e+17
1.887848e+17
5.832097e+16
5.16934e+17
2.719405e+17
8.426109e+16
4.728463e+17
2.472322e+17
7.684334e+16
4.728464e+17
2.472323e+17
7.684341e+16
5.169342e+17
2.719408e+17
8.426119e+16
3.693636e+17
1.887849e+17
5.8321e+16
4.728466e+17
2.472323e+17
7.684342e+16
3.693637e+17
1.887849e+17
5.832101e+16
3.431244e+17
1.741499e+17
5.349431e+16
5.101229e+17
2.678987e+17
8.343676e+16
4.459248e+17
2.317319e+17
7.23596e+16
4.994356e+17
2.633217e+17
8.226481e+16
5.891572e+17
3.120893e+17
9.70528e+16
6.232854e+17
3.319184e+17
1.035174e+17
5.840042e+17
3.113977e+17
9.725976e+16
4.459248e+17
2.31732e+17
7.235962e+16
5.101228e+17
2.678985e+17
8.343672e+16
4.994357e+17
2.633217e+17
8.226483e+16
5.891571e+17
3.120893e+17
9.705282e+16
6.232855e+17
3.319185e+17
1.035175e+17
5.840043e+17
3.113978e+17
9.725979e+16
5.891568e+17
3.120893e+17
9.705283e+16
4.994353e+17
2.633216e+17
8.22648e+16
5.101226e+17
2.678986e+17
8.343673e+16
4.459247e+17
2.31732e+17
7.235961e+16
5.840038e+17
3.113977e+17
9.725978e+16
6.232851e+17
3.319184e+17
1.035175e+17
6.232849e+17
3.319182e+17
1.035174e+17
5.891567e+17
3.120891e+17
9.705272e+16
5.840038e+17
3.113976e+17
9.725973e+16
5.101225e+17
2.678983e+17
8.343661e+16
4.459244e+17
2.317316e+17
7.235948e+16
4.994353e+17
2.633215e+17
8.226473e+16
6.23285e+17
3.319183e+17
1.035174e+17
4.994355e+17
2.633217e+17
8.226483e+16
5.891567e+17
3.120893e+17
9.705277e+16
4.459247e+17
2.31732e+17
7.23596e+16
5.101225e+17
2.678985e+17
8.343667e+16
5.84004e+17
3.113977e+17
9.725977e+16
6.232849e+17
3.319182e+17
1.035174e+17
5.840035e+17
3.113975e+17
9.725969e+16
5.891568e+17
3.120892e+17
9.705278e+16
4.994352e+17
2.633215e+17
8.226472e+16
5.101226e+17
2.678985e+17
8.343668e+16
4.459246e+17
2.317318e+17
7.235955e+16
6.135693e+17
3.294144e+17
1.032611e+17
5.619502e+17
3.017408e+17
9.468255e+16
6.793922e+17
3.656246e+17
1.14726e+17
5.773875e+17
3.110628e+17
9.777586e+16
6.960772e+17
3.759175e+17
1.182098e+17
6.441712e+17
3.478427e+17
1.09398e+17
6.135695e+17
3.294145e+17
1.032611e+17
6.793925e+17
3.656248e+17
1.14726e+17
6.960774e+17
3.759177e+17
1.182099e+17
6.441713e+17
3.478428e+17
1.093981e+17
5.773877e+17
3.11063e+17
9.777592e+16
5.619505e+17
3.01741e+17
9.468259e+16
6.441705e+17
3.478424e+17
1.09398e+17
5.773869e+17
3.110626e+17
9.777581e+16
6.960767e+17
3.759173e+17
1.182098e+17
5.619498e+17
3.017407e+17
9.468252e+16
6.793919e+17
3.656245e+17
1.147259e+17
6.135691e+17
3.294144e+17
1.032611e+17
5.619496e+17
3.017405e+17
9.468246e+16
5.773869e+17
3.110625e+17
9.777574e+16
6.135689e+17
3.294142e+17
1.03261e+17
6.793918e+17
3.656244e+17
1.147259e+17
6.960767e+17
3.759172e+17
1.182097e+17
6.441705e+17
3.478423e+17
1.093979e+17
5.619501e+17
3.017409e+17
9.468263e+16
6.44171e+17
3.478427e+17
1.093981e+17
5.773876e+17
3.11063e+17
9.777594e+16
6.135693e+17
3.294145e+17
1.032611e+17
6.793922e+17
3.656246e+17
1.14726e+17
6.960772e+17
3.759176e+17
1.182099e+17
6.793915e+17
3.656242e+17
1.147258e+17
6.960765e+17
3.759171e+17
1.182097e+17
6.441703e+17
3.478421e+17
1.093979e+17
6.135687e+17
3.294141e+17
1.03261e+17
5.773867e+17
3.110624e+17
9.777569e+16
5.619496e+17
3.017404e+17
9.468238e+16
5.773875e+17
3.110629e+17
9.777591e+16
6.793922e+17
3.656247e+17
1.14726e+17
6.441713e+17
3.478428e+17
1.093981e+17
6.135695e+17
3.294146e+17
1.032612e+17
5.619504e+17
3.01741e+17
9.468261e+16
6.960773e+17
3.759176e+17
1.182098e+17
5.773877e+17
3.110631e+17
9.777598e+16
6.135698e+17
3.294148e+17
1.032613e+17
5.619507e+17
3.017412e+17
9.468271e+16
6.441715e+17
3.478429e+17
1.093982e+17
6.793927e+17
3.65625e+17
1.147261e+17
6.960777e+17
3.759178e+17
1.182099e+17
5.619496e+17
3.017405e+17
9.468246e+16
6.793916e+17
3.656244e+17
1.147259e+17
6.135689e+17
3.294142e+17
1.03261e+17
6.960767e+17
3.759173e+17
1.182098e+17
6.441706e+17
3.478424e+17
1.09398e+17
5.77387e+17
3.110625e+17
9.777575e+16
6.441704e+17
3.478422e+17
1.093979e+17
5.773868e+17
3.110624e+17
9.777571e+16
6.960766e+17
3.759171e+17
1.182097e+17
6.793917e+17
3.656243e+17
1.147259e+17
5.619496e+17
3.017405e+17
9.468243e+16
6.135689e+17
3.294142e+17
1.03261e+17
6.135692e+17
3.294144e+17
1.032611e+17
6.793921e+17
3.656247e+17
1.14726e+17
5.619501e+17
3.017409e+17
9.468258e+16
6.44171e+17
3.478427e+17
1.093981e+17
6.960771e+17
3.759176e+17
1.182098e+17
5.773875e+17
3.110628e+17
9.777587e+16
6.441703e+17
3.478422e+17
1.093979e+17
6.960764e+17
3.759171e+17
1.182097e+17
5.773868e+17
3.110625e+17
9.777575e+16
5.619496e+17
3.017406e+17
9.468248e+16
6.135688e+17
3.294142e+17
1.03261e+17
6.793917e+17
3.656243e+17
1.147258e+17
4.45925e+17
2.31732e+17
7.235964e+16
6.232854e+17
3.319186e+17
1.035175e+17
5.840043e+17
3.113979e+17
9.725983e+16
4.994359e+17
2.633218e+17
8.226485e+16
5.891572e+17
3.120894e+17
9.705285e+16
5.101229e+17
2.678986e+17
8.343673e+16
5.101233e+17
2.678989e+17
8.343683e+16
4.45925e+17
2.317321e+17
7.235967e+16
6.232858e+17
3.319188e+17
1.035176e+17
4.99436e+17
2.63322e+17
8.226493e+16
5.891577e+17
3.120897e+17
9.705293e+16
5.840047e+17
3.113983e+17
9.725997e+16
5.101224e+17
2.678983e+17
8.343662e+16
4.459245e+17
2.317317e+17
7.235952e+16
5.891566e+17
3.12089e+17
9.705267e+16
6.232849e+17
3.319181e+17
1.035173e+17
4.994353e+17
2.633215e+17
8.226472e+16
5.840038e+17
3.113975e+17
9.725966e+16
4.459247e+17
2.317319e+17
7.23596e+16
5.891568e+17
3.120892e+17
9.705278e+16
5.840038e+17
3.113976e+17
9.725972e+16
4.994355e+17
2.633216e+17
8.226479e+16
5.101227e+17
2.678985e+17
8.343671e+16
6.232851e+17
3.319183e+17
1.035174e+17
5.891568e+17
3.120891e+17
9.705274e+16
5.101225e+17
2.678984e+17
8.343666e+16
4.994354e+17
2.633216e+17
8.226481e+16
6.232853e+17
3.319183e+17
1.035174e+17
4.459245e+17
2.317318e+17
7.235956e+16
5.840041e+17
3.113978e+17
9.72598e+16
4.994353e+17
2.633216e+17
8.226479e+16
5.840037e+17
3.113975e+17
9.72597e+16
6.232848e+17
3.319181e+17
1.035173e+17
4.459246e+17
2.317319e+17
7.235959e+16
5.101224e+17
2.678983e+17
8.343664e+16
5.891566e+17
3.12089e+17
9.705268e+16
1.702921e+17
8.28593e+16
2.495391e+16
1.512489e+17
7.315616e+16
2.195082e+16
2.16267e+17
1.064555e+17
3.221667e+16
2.162671e+17
1.064555e+17
3.221667e+16
1.702924e+17
8.285928e+16
2.495391e+16
2.655272e+17
1.325138e+17
4.027215e+16
2.162664e+17
1.064551e+17
3.221656e+16
1.702917e+17
8.285909e+16
2.495384e+16
1.702916e+17
8.285903e+16
2.495383e+16
2.162664e+17
1.064551e+17
3.221655e+16
1.512485e+17
7.315597e+16
2.195074e+16
2.655265e+17
1.325132e+17
4.027198e+16
1.702915e+17
8.285898e+16
2.49538e+16
1.702916e+17
8.2859e+16
2.495381e+16
2.162664e+17
1.064551e+17
3.221653e+16
1.512484e+17
7.315593e+16
2.195072e+16
2.162664e+17
1.064551e+17
3.221652e+16
2.655265e+17
1.325132e+17
4.027196e+16
2.655268e+17
1.325133e+17
4.027201e+16
1.512485e+17
7.315596e+16
2.195074e+16
1.702918e+17
8.285909e+16
2.495383e+16
2.162667e+17
1.064552e+17
3.221656e+16
2.162667e+17
1.064552e+17
3.221656e+16
1.702918e+17
8.285908e+16
2.495383e+16
1.702915e+17
8.285898e+16
2.495381e+16
1.512484e+17
7.315591e+16
2.195073e+16
1.702916e+17
8.285897e+16
2.49538e+16
2.162663e+17
1.064551e+17
3.221653e+16
2.162663e+17
1.06455e+17
3.221651e+16
2.655264e+17
1.325131e+17
4.027194e+16
1.702915e+17
8.285896e+16
2.49538e+16
1.512484e+17
7.31559e+16
2.195072e+16
1.702916e+17
8.285897e+16
2.49538e+16
2.162663e+17
1.06455e+17
3.221651e+16
2.655264e+17
1.325131e+17
4.027194e+16
2.162664e+17
1.064551e+17
3.221651e+16
2.56262e+17
1.320012e+17
4.11791e+16
1.869218e+17
9.479534e+16
2.925859e+16
2.868124e+17
1.489072e+17
4.676472e+16
1.630825e+17
8.34171e+16
2.599902e+16
1.428524e+17
7.218589e+16
2.230005e+16
2.405454e+17
1.242126e+17
3.893666e+16
2.868122e+17
1.48907e+17
4.676467e+16
2.562613e+17
1.320008e+17
4.117897e+16
1.869212e+17
9.479501e+16
2.925849e+16
2.405449e+17
1.242123e+17
3.893656e+16
1.42852e+17
7.218567e+16
2.229997e+16
1.63082e+17
8.341681e+16
2.599892e+16
1.630819e+17
8.341678e+16
2.599892e+16
2.405448e+17
1.242123e+17
3.893655e+16
2.868121e+17
1.48907e+17
4.676467e+16
1.869211e+17
9.479497e+16
2.925847e+16
1.42852e+17
7.218563e+16
2.229995e+16
2.562613e+17
1.320008e+17
4.117898e+16
1.869214e+17
9.479512e+16
2.925851e+16
2.562616e+17
1.320009e+17
4.1179e+16
1.428522e+17
7.218573e+16
2.229998e+16
2.86812e+17
1.489069e+17
4.676462e+16
1.630822e+17
8.341689e+16
2.599894e+16
2.40545e+17
1.242123e+17
3.893656e+16
2.868121e+17
1.489069e+17
4.676464e+16
2.562611e+17
1.320007e+17
4.117893e+16
2.405449e+17
1.242123e+17
3.893656e+16
1.869211e+17
9.479491e+16
2.925845e+16
1.63082e+17
8.341681e+16
2.599893e+16
1.428519e+17
7.218561e+16
2.229995e+16
1.630818e+17
8.341672e+16
2.59989e+16
1.428519e+17
7.218561e+16
2.229995e+16
1.869211e+17
9.479493e+16
2.925845e+16
2.405447e+17
1.242122e+17
3.89365e+16
2.562612e+17
1.320007e+17
4.117894e+16
2.86812e+17
1.489069e+17
4.676462e+16
2.981832e+17
1.52698e+17
4.755663e+16
3.404702e+17
1.747515e+17
5.441137e+16
3.273427e+17
1.709524e+17
5.355239e+16
4.804357e+17
2.557021e+17
7.994602e+16
4.191322e+17
2.223848e+17
6.973129e+16
4.467731e+17
2.349805e+17
7.339844e+16
3.273428e+17
1.709525e+17
5.35524e+16
4.191326e+17
2.22385e+17
6.973135e+16
2.98183e+17
1.526979e+17
4.755655e+16
3.404704e+17
1.747515e+17
5.441136e+16
4.467734e+17
2.349806e+17
7.339848e+16
4.80436e+17
2.557022e+17
7.994605e+16
2.981826e+17
1.526978e+17
4.755654e+16
3.273425e+17
1.709524e+17
5.355236e+16
3.404701e+17
1.747514e+17
5.441134e+16
4.19132e+17
2.223847e+17
6.973127e+16
4.804355e+17
2.55702e+17
7.9946e+16
4.467731e+17
2.349804e+17
7.339844e+16
3.404697e+17
1.747512e+17
5.441124e+16
2.981827e+17
1.526977e+17
4.755648e+16
3.273421e+17
1.70952e+17
5.355223e+16
4.467726e+17
2.349801e+17
7.339833e+16
4.804352e+17
2.557018e+17
7.994592e+16
4.191316e+17
2.223844e+17
6.973114e+16
2.98183e+17
1.52698e+17
4.75566e+16
4.191325e+17
2.223851e+17
6.973141e+16
3.404704e+17
1.747516e+17
5.441141e+16
4.467733e+17
2.349807e+17
7.339853e+16
3.27343e+17
1.709526e+17
5.355243e+16
4.804359e+17
2.557024e+17
7.994613e+16
4.467728e+17
2.349802e+17
7.339835e+16
4.804352e+17
2.557018e+17
7.994588e+16
3.404699e+17
1.747513e+17
5.441126e+16
4.191319e+17
2.223846e+17
6.97312e+16
2.981826e+17
1.526976e+17
4.755647e+16
3.273424e+17
1.709522e+17
5.355229e+16
4.337291e+17
2.312827e+17
7.27234e+16
3.545529e+17
1.876072e+17
5.921644e+16
3.545532e+17
1.876074e+17
5.921648e+16
5.120627e+17
2.751599e+17
8.648999e+16
5.120628e+17
2.751601e+17
8.649001e+16
4.337291e+17
2.312826e+17
7.272334e+16
3.54553e+17
1.876072e+17
5.921646e+16
5.120629e+17
2.751601e+17
8.649006e+16
4.337293e+17
2.312827e+17
7.272336e+16
4.337292e+17
2.312827e+17
7.272339e+16
3.545533e+17
1.876073e+17
5.921647e+16
5.12063e+17
2.751601e+17
8.649001e+16
5.120621e+17
2.751595e+17
8.648983e+16
4.337286e+17
2.312824e+17
7.272325e+16
4.337287e+17
2.312823e+17
7.272323e+16
5.120622e+17
2.751596e+17
8.648985e+16
3.545529e+17
1.876071e+17
5.921639e+16
3.545529e+17
1.876071e+17
5.921637e+16
3.545523e+17
1.876067e+17
5.921625e+16
4.337283e+17
2.312821e+17
7.272314e+16
3.545525e+17
1.876068e+17
5.921629e+16
4.337285e+17
2.312822e+17
7.272317e+16
5.120621e+17
2.751594e+17
8.648979e+16
5.120621e+17
2.751595e+17
8.648978e+16
3.545527e+17
1.87607e+17
5.921638e+16
5.120626e+17
2.751598e+17
8.648994e+16
4.337291e+17
2.312827e+17
7.272337e+16
5.120627e+17
2.751599e+17
8.648996e+16
4.337288e+17
2.312825e+17
7.272327e+16
3.545531e+17
1.876072e+17
5.921642e+16
3.545528e+17
1.876071e+17
5.921642e+16
3.545528e+17
1.87607e+17
5.921639e+16
4.337286e+17
2.312824e+17
7.272327e+16
4.337285e+17
2.312822e+17
7.272318e+16
5.120621e+17
2.751596e+17
8.648984e+16
5.120621e+17
2.751595e+17
8.648978e+16
3.404704e+17
1.747516e+17
5.441139e+16
4.467736e+17
2.349806e+17
7.339851e+16
2.98183e+17
1.526979e+17
4.755658e+16
4.80436e+17
2.557022e+17
7.994608e+16
3.273429e+17
1.709526e+17
5.355241e+16
4.191327e+17
2.223851e+17
6.973138e+16
4.80436e+17
2.557023e+17
7.994611e+16
4.467735e+17
2.349807e+17
7.339851e+16
3.273428e+17
1.709525e+17
5.355242e+16
4.191325e+17
2.22385e+17
6.973135e+16
2.981834e+17
1.526982e+17
4.755664e+16
3.404705e+17
1.747516e+17
5.441139e+16
2.981826e+17
1.526977e+17
4.755651e+16
3.273425e+17
1.709523e+17
5.355233e+16
4.19132e+17
2.223847e+17
6.973123e+16
3.404701e+17
1.747514e+17
5.441132e+16
4.804355e+17
2.557019e+17
7.994596e+16
4.467731e+17
2.349804e+17
7.33984e+16
4.804354e+17
2.557019e+17
7.994595e+16
4.191321e+17
2.223847e+17
6.973122e+16
3.273424e+17
1.709523e+17
5.355231e+16
3.404701e+17
1.747514e+17
5.441135e+16
4.467731e+17
2.349805e+17
7.339844e+16
2.981827e+17
1.526977e+17
4.75565e+16
4.804355e+17
2.557021e+17
7.994601e+16
4.467729e+17
2.349803e+17
7.33984e+16
4.19132e+17
2.223847e+17
6.973124e+16
3.404701e+17
1.747513e+17
5.44113e+16
3.273425e+17
1.709523e+17
5.35523e+16
2.98183e+17
1.526978e+17
4.755653e+16
2.981828e+17
1.526978e+17
4.755658e+16
3.273427e+17
1.709525e+17
5.355241e+16
3.404702e+17
1.747515e+17
5.441139e+16
4.804355e+17
2.55702e+17
7.994603e+16
4.191323e+17
2.223849e+17
6.973132e+16
4.467732e+17
2.349805e+17
7.339848e+16
2.40545e+17
1.242124e+17
3.893658e+16
2.868123e+17
1.489071e+17
4.676468e+16
1.42852e+17
7.21857e+16
2.229999e+16
2.562613e+17
1.320008e+17
4.117897e+16
1.630821e+17
8.341686e+16
2.599894e+16
1.869211e+17
9.479498e+16
2.925847e+16
1.869219e+17
9.479536e+16
2.925861e+16
2.868126e+17
1.489073e+17
4.676475e+16
2.405456e+17
1.242127e+17
3.893667e+16
2.56262e+17
1.320012e+17
4.117912e+16
1.428525e+17
7.218594e+16
2.230006e+16
1.630825e+17
8.34171e+16
2.599901e+16
2.86812e+17
1.489069e+17
4.676462e+16
1.869211e+17
9.4795e+16
2.925848e+16
2.562612e+17
1.320007e+17
4.117894e+16
2.405448e+17
1.242122e+17
3.893652e+16
1.42852e+17
7.218565e+16
2.229996e+16
1.630819e+17
8.341674e+16
2.59989e+16
2.405449e+17
1.242123e+17
3.893656e+16
1.63082e+17
8.341681e+16
2.599892e+16
1.869211e+17
9.479499e+16
2.925848e+16
2.868121e+17
1.48907e+17
4.676466e+16
1.42852e+17
7.218567e+16
2.229997e+16
2.562613e+17
1.320008e+17
4.117898e+16
2.405452e+17