/*--------------------------------*- C++ -*----------------------------------*\
| =========                 |                                                 |
| \\      /  F ield         | OpenFOAM: The Open Source CFD Toolbox           |
|  \\    /   O peration     | Version:  2212                                  |
|   \\  /    A nd           | Website:  www.openfoam.com                      |
|    \\/     M anipulation  |                                                 |
\*---------------------------------------------------------------------------*/
FoamFile
{
    version     2.0;
    format      ascii;
    arch        "LSB;label=32;scalar=64";
    class       volVectorField;
    location    "87/fluidRegion";
    object      U;
}
// * * * * * * * * * * * * * * * * * * * * * * * * * * * * * * * * * * * * * //

dimensions      [0 1 -1 0 0 0 0];

internalField   nonuniform List<vector> 
350
(
(-7.46151e-10 -4.30789e-10 -14.9677)
(-1.32117e-09 -7.62775e-10 -14.9664)
(-1.60542e-09 -9.26889e-10 -14.9653)
(-1.39049e-09 -8.02799e-10 -14.9643)
(-4.35625e-10 -2.51507e-10 -14.9633)
(8.63956e-10 4.98804e-10 -14.9624)
(1.92343e-09 1.11049e-09 -14.9614)
(2.38322e-09 1.37595e-09 -14.9604)
(2.14898e-09 1.24071e-09 -14.9591)
(1.40234e-09 8.09642e-10 -14.9577)
(4.64412e-10 2.68128e-10 -14.9563)
(-3.32723e-10 -1.92097e-10 -14.9548)
(-7.89469e-10 -4.55799e-10 -14.9534)
(-8.49242e-10 -4.90309e-10 -14.952)
(-6.25382e-10 -3.61064e-10 -14.9507)
(-3.32734e-10 -1.92103e-10 -14.9494)
(-1.81111e-10 -1.04564e-10 -14.948)
(-2.49573e-10 -1.44091e-10 -14.9467)
(-4.39077e-10 -2.53501e-10 -14.9455)
(-5.12295e-10 -2.95773e-10 -14.9442)
(-2.49547e-10 -1.44076e-10 -14.9431)
(2.59235e-10 1.49669e-10 -14.942)
(6.23618e-10 3.60045e-10 -14.9409)
(4.44797e-10 2.56803e-10 -14.9398)
(4.48375e-11 2.58869e-11 -14.9696)
(-7.46151e-10 -4.30789e-10 -14.9677)
(-1.32117e-09 -7.62775e-10 -14.9664)
(-1.60542e-09 -9.26889e-10 -14.9653)
(-1.39049e-09 -8.02799e-10 -14.9643)
(-4.35625e-10 -2.51508e-10 -14.9633)
(8.63956e-10 4.98804e-10 -14.9624)
(1.92343e-09 1.11049e-09 -14.9614)
(2.38322e-09 1.37595e-09 -14.9604)
(2.14898e-09 1.24071e-09 -14.9591)
(1.40234e-09 8.09642e-10 -14.9577)
(4.64412e-10 2.68128e-10 -14.9563)
(-3.32723e-10 -1.92097e-10 -14.9548)
(-7.89469e-10 -4.55799e-10 -14.9534)
(-8.49242e-10 -4.90309e-10 -14.952)
(-6.25382e-10 -3.61064e-10 -14.9507)
(-3.32734e-10 -1.92104e-10 -14.9494)
(-1.81111e-10 -1.04564e-10 -14.948)
(-2.49573e-10 -1.44091e-10 -14.9467)
(-4.39077e-10 -2.53501e-10 -14.9455)
(-5.12295e-10 -2.95773e-10 -14.9442)
(-2.49547e-10 -1.44076e-10 -14.9431)
(2.59235e-10 1.49669e-10 -14.942)
(6.23618e-10 3.60045e-10 -14.9409)
(4.44797e-10 2.56803e-10 -14.9398)
(4.48375e-11 2.58869e-11 -14.9696)
(-0.00197677 -0.00114129 -423.826)
(-0.000939101 -0.00054219 -415.837)
(-0.00101742 -0.000587409 -405.731)
(-0.00091565 -0.000528651 -393.301)
(-0.000828948 -0.000478593 -378.74)
(-0.000748624 -0.000432218 -362.249)
(-0.000674226 -0.000389264 -344.039)
(-0.000602093 -0.000347618 -324.325)
(-0.000524191 -0.000302642 -303.326)
(-0.000427311 -0.000246708 -281.27)
(-0.000294863 -0.000170239 -258.396)
(-0.000110535 -6.38171e-05 -234.962)
(0.000130527 7.53599e-05 -211.248)
(0.000408908 0.000236083 -187.565)
(0.000693121 0.000400173 -164.252)
(0.000935393 0.000540049 -141.663)
(0.00109832 0.000634114 -120.144)
(0.00117187 0.000676577 -100.01)
(0.00117517 0.000678484 -81.5295)
(0.00114232 0.000659519 -64.9231)
(0.00110396 0.000637369 -50.3825)
(0.00106745 0.000616292 -38.0955)
(0.00101769 0.000587562 -28.2707)
(0.000883352 0.000510003 -21.1346)
(0.00084127 0.000485707 -16.6338)
(-0.00192803 -0.00110444 -426.56)
(-0.000707847 -0.000377992 -418.527)
(-0.00079908 -0.000430212 -408.389)
(-0.000729284 -0.000388252 -395.905)
(-0.000670231 -0.000352658 -381.273)
(-0.000615622 -0.000319216 -364.696)
(-0.000564983 -0.000287698 -346.384)
(-0.000515507 -0.000256736 -326.553)
(-0.0004614 -0.000222637 -305.425)
(-0.000393124 -0.00017999 -283.228)
(-0.00029922 -0.000122295 -260.202)
(-0.000168017 -4.32191e-05 -236.604)
(4.11158e-06 6.06375e-05 -212.717)
(0.000196688 0.000176609 -188.855)
(0.00039234 0.000294546 -165.359)
(0.000557236 0.000394652 -142.588)
(0.000666624 0.000462572 -120.893)
(0.000714957 0.000494467 -100.597)
(0.000715874 0.000498233 -81.969)
(0.000693459 0.000486109 -65.2341)
(0.000668539 0.000470719 -50.5856)
(0.00064932 0.000453463 -38.2128)
(0.000629028 0.000433573 -28.3258)
(0.000576078 0.000386406 -21.1517)
(0.000611595 0.000379495 -16.6358)
(-0.00088967 -0.000650777 -423.389)
(-0.000522306 -0.000945076 -415.398)
(-0.000509568 -0.000903238 -405.3)
(-0.000465563 -0.000792786 -392.88)
(-0.00042447 -0.000695565 -378.332)
(-0.00038681 -0.000605815 -361.857)
(-0.000351446 -0.000522904 -343.664)
(-0.000315689 -0.000442813 -323.969)
(-0.000274075 -0.000356583 -302.992)
(-0.000218449 -0.000249553 -280.959)
(-0.000139524 -0.000102453 -258.111)
(-3.06386e-05 0.000101327 -234.703)
(0.000111023 0.000365858 -211.016)
(0.00026417 0.000682269 -187.362)
(0.000414798 0.00100452 -164.078)
(0.000535597 0.00127947 -141.517)
(0.00060947 0.00146319 -120.025)
(0.0006353 0.00154338 -99.9169)
(0.000626224 0.00154241 -81.4588)
(0.000601292 0.00149937 -64.872)
(0.000574443 0.00144831 -50.3475)
(0.000550896 0.00139224 -38.0733)
(0.000513631 0.00129678 -28.2577)
(0.00045011 0.00105189 -21.1277)
(0.000394528 0.000829001 -16.6315)
(-0.000982767 -0.000567399 -425.95)
(-0.000924376 -0.000533687 -417.928)
(-0.000890629 -0.000514204 -407.795)
(-0.000793854 -0.000458331 -395.322)
(-0.000707231 -0.000408319 -380.705)
(-0.000627315 -0.000362179 -364.146)
(-0.000552904 -0.000319219 -345.856)
(-0.000479964 -0.000277106 -326.051)
(-0.000399291 -0.00023053 -304.951)
(-0.000296541 -0.000171208 -282.785)
(-0.000153983 -8.8902e-05 -259.793)
(4.30073e-05 2.48302e-05 -236.231)
(0.000298843 0.000172536 -212.383)
(0.000594262 0.000343096 -188.561)
(0.000891839 0.000514902 -165.107)
(0.00114103 0.00065877 -142.377)
(0.00130345 0.000752547 -120.722)
(0.00137059 0.000791306 -100.463)
(0.00136474 0.000787928 -81.8687)
(0.00132212 0.000763324 -65.1632)
(0.00127275 0.000734819 -50.5395)
(0.00122206 0.000705556 -38.1864)
(0.00113806 0.000657055 -28.3136)
(0.000944316 0.0005452 -21.1483)
(0.000769653 0.000444358 -16.6356)
(0.000948359 0.000547534 -425.951)
(0.000907948 0.000524203 -417.928)
(0.000872457 0.000503712 -407.795)
(0.000776162 0.000448116 -395.322)
(0.000689669 0.00039818 -380.705)
(0.000610342 0.00035238 -364.146)
(0.000537188 0.000310145 -345.856)
(0.000465599 0.000268813 -326.051)
(0.00038688 0.000223365 -304.951)
(0.000286753 0.000165557 -282.785)
(0.000146999 8.48699e-05 -259.793)
(-4.70013e-05 -2.71362e-05 -236.231)
(-0.00029905 -0.000172656 -212.383)
(-0.000590246 -0.000340778 -188.561)
(-0.000883032 -0.000509817 -165.107)
(-0.00112719 -0.000650781 -142.377)
(-0.00128501 -0.000741898 -120.722)
(-0.00134854 -0.000778581 -100.463)
(-0.0013399 -0.000773591 -81.8687)
(-0.001296 -0.000748243 -65.1632)
(-0.00124687 -0.000719878 -50.5395)
(-0.00119751 -0.000691384 -38.1864)
(-0.00111511 -0.000643808 -28.3136)
(-0.000925721 -0.000534464 -21.1483)
(-0.000754548 -0.000435637 -16.6356)
(0.000988407 0.000442232 -423.39)
(0.00107379 -3.41497e-05 -415.399)
(0.00102992 -2.43006e-05 -405.301)
(0.000912644 -7.88352e-06 -392.881)
(0.00080822 4.02195e-06 -378.332)
(0.000712242 1.51498e-05 -361.857)
(0.000623645 2.48404e-05 -343.664)
(0.00053745 3.24433e-05 -323.969)
(0.000443332 3.79965e-05 -302.992)
(0.000324516 4.17669e-05 -280.959)
(0.000159531 4.51478e-05 -258.111)
(-6.95472e-05 5.08706e-05 -234.703)
(-0.000366949 5.78903e-05 -211.016)
(-0.000714886 8.13143e-05 -187.362)
(-0.00106644 0.000110184 -164.078)
(-0.00136211 0.000141804 -141.517)
(-0.00155559 0.000169041 -120.025)
(-0.001636 0.000187072 -99.917)
(-0.00162928 0.000196352 -81.4589)
(-0.00157916 0.0002 -64.872)
(-0.00152196 0.000202538 -50.3475)
(-0.00146297 0.000201155 -38.0732)
(-0.00136337 0.000193197 -28.2577)
(-0.00112296 0.000131516 -21.1277)
(-0.000904773 7.17645e-05 -16.6315)
(0.00190563 0.00113688 -426.56)
(0.000680902 0.000416161 -418.527)
(0.000770949 0.000470319 -408.389)
(0.000700439 0.000429559 -395.905)
(0.000640643 0.000394683 -381.273)
(0.000585276 0.000362217 -364.696)
(0.000533973 0.000331763 -346.384)
(0.000483932 0.000301529 -326.553)
(0.000429407 0.000268295 -305.425)
(0.000360907 0.000226479 -283.228)
(0.000266836 0.000169425 -260.202)
(0.000135405 9.10587e-05 -236.604)
(-3.61132e-05 -1.25966e-05 -212.717)
(-0.000227743 -0.000128066 -188.855)
(-0.000421466 -0.00024564 -165.359)
(-0.000583115 -0.000345739 -142.588)
(-0.000687744 -0.000413985 -120.893)
(-0.000729243 -0.000446865 -100.597)
(-0.000720508 -0.000451913 -81.969)
(-0.000684895 -0.000442861 -65.2341)
(-0.000643917 -0.00043115 -50.5856)
(-0.000607384 -0.000420634 -38.2128)
(-0.000571465 -0.000404843 -28.3258)
(-0.000513332 -0.000367015 -21.1517)
(-0.000548868 -0.000381169 -16.6358)
(0.00197598 0.00114083 -423.826)
(0.000937928 0.000541513 -415.836)
(0.00101626 0.000586738 -405.731)
(0.000914496 0.000527984 -393.301)
(0.000827686 0.000477864 -378.74)
(0.000747313 0.000431461 -362.249)
(0.000672913 0.000388506 -344.039)
(0.000600749 0.000346842 -324.325)
(0.000522909 0.000301901 -303.326)
(0.000426146 0.000246035 -281.27)
(0.000293771 0.000169609 -258.396)
(0.00010959 6.32719e-05 -234.962)
(-0.000131126 -7.57055e-05 -211.248)
(-0.000408996 -0.000236134 -187.565)
(-0.00069231 -0.000399705 -164.252)
(-0.000933241 -0.000538807 -141.663)
(-0.00109429 -0.000631788 -120.144)
(-0.00116523 -0.000672745 -100.01)
(-0.00116474 -0.000672462 -81.5295)
(-0.00112686 -0.000650594 -64.9231)
(-0.00108196 -0.000624669 -50.3825)
(-0.00103881 -0.000599759 -38.0955)
(-0.000981659 -0.000566761 -28.2707)
(-0.000846477 -0.000488713 -21.1346)
(-0.000809147 -0.000467161 -16.6338)
(0.000960732 0.000554677 -425.951)
(0.00089875 0.000518892 -417.928)
(0.000864145 0.000498913 -407.795)
(0.000766812 0.000442718 -395.322)
(0.000679283 0.000392183 -380.705)
(0.000598618 0.000345611 -364.146)
(0.000523764 0.000302394 -345.856)
(0.000450206 0.000259926 -326.051)
(0.000369082 0.000213089 -304.951)
(0.000266111 0.000153639 -282.785)
(0.000123186 7.11211e-05 -259.793)
(-7.39684e-05 -4.27056e-05 -236.231)
(-0.00033059 -0.000190866 -212.383)
(-0.000626718 -0.000361835 -188.561)
(-0.000925131 -0.000534123 -165.107)
(-0.00117562 -0.000678744 -142.377)
(-0.00134071 -0.000774055 -120.722)
(-0.0014124 -0.000815446 -100.463)
(-0.00141346 -0.000816061 -81.8687)
(-0.00138035 -0.000796943 -65.1632)
(-0.0013436 -0.000775728 -50.5395)
(-0.00130419 -0.00075297 -38.1864)
(-0.00122778 -0.000708859 -28.3136)
(-0.0010299 -0.000594612 -21.1483)
(-0.00083525 -0.000482231 -16.6356)
(0.000858967 0.000661015 -423.389)
(0.000486007 0.00095774 -415.398)
(0.000471834 0.000916547 -405.3)
(0.000426929 0.000806446 -392.88)
(0.000384767 0.000709556 -378.332)
(0.000346109 0.000620197 -361.857)
(0.000309971 0.000537657 -343.664)
(0.000273458 0.000457865 -323.969)
(0.000231296 0.000371877 -302.992)
(0.000175429 0.000264985 -280.959)
(9.64004e-05 0.000117981 -258.111)
(-1.29857e-05 -8.56381e-05 -234.703)
(-0.000154369 -0.00035062 -211.016)
(-0.000306862 -0.000667799 -187.362)
(-0.000456157 -0.00099156 -164.078)
(-0.000574777 -0.00126914 -141.517)
(-0.000645958 -0.00145702 -120.025)
(-0.000668529 -0.00154343 -99.9169)
(-0.000655623 -0.00155147 -81.4589)
(-0.000626218 -0.00152071 -64.872)
(-0.000595729 -0.00148457 -50.3475)
(-0.000568321 -0.00144388 -38.0733)
(-0.000528445 -0.00136034 -28.2577)
(-0.00046234 -0.00111743 -21.1277)
(-0.00039734 -0.000887819 -16.6315)
(-0.000997405 -0.00043002 -423.39)
(-0.00108373 4.85169e-05 -415.398)
(-0.00104017 3.96346e-05 -405.301)
(-0.000923141 2.38185e-05 -392.881)
(-0.000819054 1.19171e-05 -378.332)
(-0.000723366 1.06881e-06 -361.857)
(-0.000634989 -8.11909e-06 -343.664)
(-0.000549068 -1.55621e-05 -323.969)
(-0.000455206 -2.07159e-05 -302.992)
(-0.000336579 -2.39124e-05 -280.959)
(-0.000171811 -2.68364e-05 -258.111)
(5.74849e-05 -3.20427e-05 -234.703)
(0.000354361 -3.89053e-05 -211.016)
(0.000701905 -6.14556e-05 -187.362)
(0.0010532 -8.89454e-05 -164.078)
(0.00134874 -0.000118622 -141.517)
(0.00154216 -0.000143253 -120.025)
(0.00162288 -0.000157936 -99.917)
(0.00161727 -0.000162207 -81.4589)
(0.00156965 -0.000160233 -64.872)
(0.00151681 -0.000156184 -50.3475)
(0.00146432 -0.000150181 -38.0732)
(0.0013722 -0.000137587 -28.2577)
(0.00113755 -8.14464e-05 -21.1277)
(0.000922002 -4.25121e-05 -16.6315)
(-0.00096168 -0.000555225 -425.951)
(-0.000923037 -0.000532914 -417.928)
(-0.000887912 -0.000512635 -407.795)
(-0.000791872 -0.000457186 -395.322)
(-0.00070609 -0.00040766 -380.705)
(-0.000627293 -0.000362167 -364.146)
(-0.000554378 -0.00032007 -345.856)
(-0.0004833 -0.000279033 -326.051)
(-0.000404951 -0.000233798 -304.951)
(-0.000304995 -0.000176089 -282.785)
(-0.000165675 -9.56526e-05 -259.793)
(2.86987e-05 1.65691e-05 -236.231)
(0.000279649 0.000161455 -212.383)
(0.000570071 0.00032913 -188.561)
(0.000862221 0.000497802 -165.107)
(0.00110567 0.000638355 -142.377)
(0.00126226 0.000728765 -120.722)
(0.00132408 0.000764458 -100.463)
(0.00131383 0.000758538 -81.8687)
(0.00126868 0.000732474 -65.1632)
(0.00121918 0.000703895 -50.5395)
(0.0011723 0.000676828 -38.1864)
(0.00109556 0.00063252 -28.3136)
(0.000913437 0.000527372 -21.1483)
(0.000749147 0.000432519 -16.6356)
)
;

boundaryField
{
    outletCentralUnloaded
    {
        type            zeroGradient;
    }
    inletCentralUnloaded
    {
        type            fixedValue;
        value           uniform (0 0 -15);
    }
    outletFuelElement
    {
        type            zeroGradient;
    }
    inletFuelElement
    {
        type            fixedValue;
        value           uniform (0 0 -15);
    }
    defaultFaces
    {
        type            slip;
    }
    baffle_master
    {
        type            slip;
    }
    baffle_slave
    {
        type            slip;
    }
}


// ************************************************************************* //
