/*--------------------------------*- C++ -*----------------------------------*\
| =========                 |                                                 |
| \\      /  F ield         | OpenFOAM: The Open Source CFD Toolbox           |
|  \\    /   O peration     | Version:  2212                                  |
|   \\  /    A nd           | Website:  www.openfoam.com                      |
|    \\/     M anipulation  |                                                 |
\*---------------------------------------------------------------------------*/
FoamFile
{
    version     2.0;
    format      ascii;
    arch        "LSB;label=32;scalar=64";
    class       volScalarField;
    location    "29/neutroRegion";
    object      TClad;
}
// * * * * * * * * * * * * * * * * * * * * * * * * * * * * * * * * * * * * * //

dimensions      [0 0 0 1 0 0 0];

internalField   nonuniform List<scalar> 
350
(
0
0
0
0
0
0
0
0
0
0
0
0
0
0
0
0
0
0
0
0
0
0
0
0
0
0
0
0
0
0
0
0
0
0
0
0
0
0
0
0
0
0
0
0
0
0
0
0
0
0
1785.49
1825.51
1852.68
1867
1868.59
1857.74
1834.85
1800.48
1755.34
1700.26
1636.21
1564.26
1485.63
1401.65
1313.73
1223.29
1131.68
1039.9
948.271
855.94
759.991
654.366
529.045
373.243
188.993
1812.51
1853.18
1880.79
1895.32
1896.9
1885.81
1862.47
1827.45
1781.46
1725.35
1660.1
1586.81
1506.7
1421.13
1331.51
1239.34
1145.97
1052.48
959.244
865.436
768.139
661.208
534.419
376.719
190.169
1781.1
1821.03
1848.14
1862.45
1864.07
1853.26
1830.46
1796.22
1751.23
1696.32
1632.46
1560.74
1482.36
1398.63
1310.98
1220.82
1129.48
1037.97
946.596
854.496
758.76
653.343
528.252
372.735
188.814
1806.43
1846.94
1874.43
1888.9
1890.47
1879.42
1856.17
1821.29
1775.49
1719.61
1654.62
1581.63
1501.86
1416.64
1327.41
1235.63
1142.67
1049.57
956.707
863.24
766.254
659.624
533.174
375.913
189.897
1806.43
1846.94
1874.43
1888.9
1890.47
1879.42
1856.17
1821.29
1775.49
1719.61
1654.62
1581.63
1501.86
1416.64
1327.41
1235.63
1142.67
1049.57
956.707
863.24
766.254
659.624
533.174
375.913
189.897
1781.1
1821.03
1848.15
1862.45
1864.07
1853.27
1830.46
1796.22
1751.23
1696.32
1632.46
1560.74
1482.36
1398.64
1310.98
1220.82
1129.49
1037.97
946.597
854.497
758.761
653.344
528.253
372.735
188.814
1812.51
1853.18
1880.79
1895.32
1896.9
1885.81
1862.47
1827.45
1781.46
1725.35
1660.1
1586.81
1506.7
1421.13
1331.51
1239.34
1145.97
1052.48
959.244
865.436
768.139
661.208
534.42
376.719
190.169
1785.49
1825.51
1852.68
1867
1868.59
1857.74
1834.85
1800.48
1755.34
1700.26
1636.21
1564.26
1485.63
1401.65
1313.73
1223.29
1131.68
1039.9
948.271
855.94
759.991
654.366
529.045
373.243
188.993
1806.43
1846.94
1874.43
1888.9
1890.47
1879.42
1856.17
1821.29
1775.49
1719.61
1654.62
1581.63
1501.86
1416.64
1327.41
1235.63
1142.67
1049.57
956.707
863.24
766.254
659.624
533.174
375.913
189.897
1781.1
1821.03
1848.14
1862.45
1864.07
1853.26
1830.46
1796.22
1751.23
1696.32
1632.46
1560.74
1482.36
1398.63
1310.98
1220.82
1129.48
1037.97
946.596
854.496
758.76
653.343
528.252
372.735
188.814
1781.1
1821.03
1848.15
1862.45
1864.07
1853.27
1830.46
1796.22
1751.23
1696.32
1632.46
1560.74
1482.36
1398.64
1310.98
1220.82
1129.48
1037.97
946.597
854.497
758.761
653.343
528.253
372.735
188.814
1806.43
1846.94
1874.43
1888.9
1890.47
1879.42
1856.17
1821.29
1775.49
1719.61
1654.62
1581.63
1501.86
1416.64
1327.41
1235.63
1142.67
1049.57
956.707
863.24
766.254
659.624
533.174
375.913
189.897
)
;

boundaryField
{
    outletCentralUnloaded
    {
        type            zeroGradient;
    }
    inletCentralUnloaded
    {
        type            zeroGradient;
    }
    outletFuelElement
    {
        type            zeroGradient;
    }
    inletFuelElement
    {
        type            zeroGradient;
    }
    defaultFaces
    {
        type            zeroGradient;
    }
}


// ************************************************************************* //
