/*--------------------------------*- C++ -*----------------------------------*\
| =========                 |                                                 |
| \\      /  F ield         | OpenFOAM: The Open Source CFD Toolbox           |
|  \\    /   O peration     | Version:  2212                                  |
|   \\  /    A nd           | Website:  www.openfoam.com                      |
|    \\/     M anipulation  |                                                 |
\*---------------------------------------------------------------------------*/
FoamFile
{
    version     2.0;
    format      ascii;
    arch        "LSB;label=32;scalar=64";
    class       volScalarField;
    location    "29/neutroRegion";
    object      TCool;
}
// * * * * * * * * * * * * * * * * * * * * * * * * * * * * * * * * * * * * * //

dimensions      [0 0 0 1 0 0 0];

internalField   nonuniform List<scalar> 
350
(
83.2887
83.2892
83.2897
83.2902
83.2907
83.2911
83.2916
83.2921
83.2925
83.293
83.2935
83.294
83.2945
83.295
83.2955
83.2959
83.2964
83.2968
83.2973
83.2978
83.2982
83.2987
83.2991
83.2996
83.3
83.2887
83.2892
83.2897
83.2902
83.2907
83.2911
83.2916
83.2921
83.2925
83.293
83.2935
83.294
83.2945
83.295
83.2955
83.2959
83.2964
83.2968
83.2973
83.2978
83.2982
83.2987
83.2991
83.2996
83.3
1770.62
1766.53
1750.13
1721.65
1681.43
1629.95
1567.81
1495.76
1414.66
1325.51
1229.45
1127.81
1022.1
914.045
805.582
698.762
595.635
498.107
407.846
326.269
254.612
194.067
145.835
111.017
90.2279
1797.58
1793.74
1777.39
1748.74
1708.14
1656.07
1593.15
1520.11
1437.85
1347.37
1249.81
1146.51
1039.01
929.04
818.584
709.746
604.642
505.247
413.284
330.21
257.283
195.71
146.702
111.367
90.3023
1766.24
1762.12
1745.73
1717.3
1677.16
1625.78
1563.79
1491.91
1411.01
1322.08
1226.28
1124.91
1019.49
911.741
803.595
697.093
594.275
497.036
407.037
325.687
254.221
193.828
145.709
110.966
90.216
1791.52
1787.61
1771.24
1742.61
1702.08
1650.14
1587.38
1514.56
1432.56
1342.37
1245.15
1142.22
1035.12
925.589
815.588
707.211
602.561
503.596
412.026
329.297
256.664
195.329
146.501
111.286
90.2852
1791.52
1787.61
1771.24
1742.61
1702.08
1650.14
1587.38
1514.56
1432.56
1342.37
1245.15
1142.22
1035.12
925.589
815.588
707.211
602.561
503.596
412.026
329.297
256.664
195.329
146.501
111.286
90.2852
1766.24
1762.12
1745.73
1717.3
1677.16
1625.79
1563.79
1491.91
1411.01
1322.09
1226.28
1124.91
1019.49
911.742
803.596
697.094
594.276
497.037
407.038
325.687
254.222
193.829
145.709
110.966
90.216
1797.58
1793.74
1777.39
1748.74
1708.14
1656.07
1593.15
1520.11
1437.85
1347.37
1249.81
1146.51
1039.01
929.04
818.584
709.746
604.642
505.247
413.284
330.21
257.284
195.71
146.702
111.367
90.3023
1770.62
1766.53
1750.13
1721.65
1681.43
1629.95
1567.81
1495.76
1414.66
1325.51
1229.45
1127.81
1022.1
914.045
805.582
698.762
595.634
498.107
407.846
326.269
254.612
194.067
145.835
111.017
90.2279
1791.52
1787.61
1771.24
1742.61
1702.08
1650.14
1587.38
1514.56
1432.56
1342.37
1245.15
1142.22
1035.12
925.589
815.588
707.211
602.561
503.596
412.026
329.297
256.664
195.329
146.501
111.286
90.2852
1766.24
1762.12
1745.73
1717.3
1677.16
1625.78
1563.79
1491.91
1411.01
1322.08
1226.28
1124.91
1019.49
911.741
803.595
697.093
594.275
497.037
407.037
325.687
254.221
193.829
145.709
110.966
90.216
1766.24
1762.12
1745.73
1717.3
1677.16
1625.79
1563.79
1491.91
1411.01
1322.09
1226.28
1124.91
1019.49
911.742
803.596
697.094
594.276
497.037
407.037
325.687
254.222
193.829
145.709
110.966
90.216
1791.52
1787.61
1771.24
1742.61
1702.08
1650.14
1587.38
1514.56
1432.56
1342.37
1245.15
1142.22
1035.12
925.589
815.588
707.211
602.561
503.596
412.025
329.297
256.664
195.329
146.501
111.286
90.2852
)
;

boundaryField
{
    outletCentralUnloaded
    {
        type            zeroGradient;
    }
    inletCentralUnloaded
    {
        type            zeroGradient;
    }
    outletFuelElement
    {
        type            zeroGradient;
    }
    inletFuelElement
    {
        type            zeroGradient;
    }
    defaultFaces
    {
        type            zeroGradient;
    }
}


// ************************************************************************* //
