/*--------------------------------*- C++ -*----------------------------------*\
| =========                 |                                                 |
| \\      /  F ield         | OpenFOAM: The Open Source CFD Toolbox           |
|  \\    /   O peration     | Version:  2212                                  |
|   \\  /    A nd           | Website:  www.openfoam.com                      |
|    \\/     M anipulation  |                                                 |
\*---------------------------------------------------------------------------*/
FoamFile
{
    version     2.0;
    format      ascii;
    arch        "LSB;label=32;scalar=64";
    class       volScalarField;
    location    "42/neutroRegion";
    object      TCool;
}
// * * * * * * * * * * * * * * * * * * * * * * * * * * * * * * * * * * * * * //

dimensions      [0 0 0 1 0 0 0];

internalField   nonuniform List<scalar> 
350
(
83.2887
83.2892
83.2896
83.2902
83.2907
83.2913
83.2919
83.2925
83.293
83.2934
83.2939
83.2943
83.2948
83.2953
83.2957
83.2962
83.2966
83.297
83.2973
83.2976
83.298
83.2984
83.2988
83.2993
83.2999
83.2887
83.2892
83.2896
83.2902
83.2907
83.2913
83.2919
83.2925
83.293
83.2934
83.2939
83.2943
83.2948
83.2953
83.2957
83.2962
83.2966
83.297
83.2973
83.2976
83.298
83.2984
83.2988
83.2993
83.2999
1817.72
1811.86
1793.59
1763.13
1720.83
1667.18
1602.8
1528.44
1444.97
1353.41
1254.89
1150.76
1042.53
931.954
820.979
711.705
606.233
506.524
414.283
330.951
257.775
195.952
146.706
111.194
90.1039
1845.81
1840.18
1821.91
1791.24
1748.51
1694.23
1629
1553.61
1468.92
1375.97
1275.91
1170.07
1059.99
947.442
834.414
723.059
615.546
513.906
419.906
335.027
260.54
197.655
147.606
111.556
90.181
1813.15
1807.28
1789.03
1758.62
1716.41
1662.88
1598.65
1524.47
1441.21
1349.87
1251.62
1147.77
1039.84
929.578
818.93
709.983
604.83
505.419
413.448
330.351
257.371
195.706
146.577
111.141
90.0916
1839.5
1833.8
1815.52
1784.88
1742.24
1688.08
1623.04
1547.87
1463.45
1370.81
1271.09
1165.64
1055.98
943.876
831.317
720.438
613.394
512.198
418.604
334.083
259.899
197.259
147.397
111.472
90.1633
1839.5
1833.8
1815.52
1784.88
1742.24
1688.08
1623.04
1547.87
1463.45
1370.81
1271.09
1165.64
1055.98
943.876
831.317
720.438
613.394
512.198
418.604
334.083
259.899
197.259
147.397
111.472
90.1633
1813.16
1807.28
1789.03
1758.62
1716.41
1662.88
1598.65
1524.47
1441.21
1349.87
1251.62
1147.77
1039.84
929.579
818.931
709.984
604.831
505.42
413.449
330.351
257.372
195.706
146.577
111.141
90.0916
1845.81
1840.18
1821.91
1791.24
1748.51
1694.23
1629
1553.61
1468.92
1375.97
1275.91
1170.07
1059.99
947.442
834.414
723.059
615.546
513.906
419.906
335.028
260.54
197.655
147.606
111.556
90.181
1817.72
1811.86
1793.59
1763.13
1720.83
1667.18
1602.8
1528.44
1444.97
1353.4
1254.89
1150.76
1042.53
931.954
820.979
711.705
606.233
506.524
414.283
330.951
257.775
195.952
146.706
111.194
90.1039
1839.5
1833.8
1815.52
1784.88
1742.24
1688.08
1623.04
1547.87
1463.45
1370.81
1271.09
1165.64
1055.98
943.876
831.317
720.438
613.394
512.198
418.604
334.083
259.899
197.259
147.397
111.472
90.1633
1813.15
1807.28
1789.03
1758.62
1716.41
1662.88
1598.65
1524.47
1441.21
1349.87
1251.62
1147.77
1039.84
929.578
818.93
709.983
604.83
505.419
413.448
330.351
257.371
195.706
146.577
111.141
90.0916
1813.16
1807.28
1789.03
1758.62
1716.41
1662.88
1598.65
1524.47
1441.21
1349.87
1251.62
1147.77
1039.84
929.579
818.931
709.984
604.831
505.42
413.448
330.351
257.372
195.706
146.577
111.141
90.0916
1839.5
1833.8
1815.52
1784.88
1742.24
1688.08
1623.04
1547.87
1463.45
1370.81
1271.09
1165.64
1055.98
943.876
831.317
720.438
613.394
512.198
418.604
334.083
259.899
197.259
147.397
111.472
90.1633
)
;

boundaryField
{
    outletCentralUnloaded
    {
        type            zeroGradient;
    }
    inletCentralUnloaded
    {
        type            zeroGradient;
    }
    outletFuelElement
    {
        type            zeroGradient;
    }
    inletFuelElement
    {
        type            zeroGradient;
    }
    defaultFaces
    {
        type            zeroGradient;
    }
}


// ************************************************************************* //
