/*--------------------------------*- C++ -*----------------------------------*\
| =========                 |                                                 |
| \\      /  F ield         | OpenFOAM: The Open Source CFD Toolbox           |
|  \\    /   O peration     | Version:  2212                                  |
|   \\  /    A nd           | Website:  www.openfoam.com                      |
|    \\/     M anipulation  |                                                 |
\*---------------------------------------------------------------------------*/
FoamFile
{
    version     2.0;
    format      ascii;
    arch        "LSB;label=32;scalar=64";
    class       volScalarField;
    location    "42/neutroRegion";
    object      TFuel;
}
// * * * * * * * * * * * * * * * * * * * * * * * * * * * * * * * * * * * * * //

dimensions      [0 0 0 1 0 0 0];

internalField   nonuniform List<scalar> 
350
(
0
0
0
0
0
0
0
0
0
0
0
0
0
0
0
0
0
0
0
0
0
0
0
0
0
0
0
0
0
0
0
0
0
0
0
0
0
0
0
0
0
0
0
0
0
0
0
0
0
0
2195.19
2981.59
3737.37
4451.03
5111.65
5709.08
6234.13
6678.7
7035.92
7300.26
7467.63
7535.45
7502.72
7370
7139.48
6814.82
6401.06
5904.3
5331.25
4688.74
3982.37
3215.71
2388.73
1500.9
565.474
2227.31
3022.9
3787.45
4509.32
5177.45
5781.6
6312.46
6761.84
7122.8
7389.75
7558.55
7626.61
7592.91
7458.02
7224.16
6895.05
6475.83
5972.69
5392.5
4742.2
4027.48
3251.93
2415.45
1517.33
570.992
2189.99
2974.94
3729.34
4441.72
5101.16
5697.54
6221.68
6665.49
7022.13
7286.07
7453.22
7521.01
7488.44
7356.08
7126.08
6802.13
6389.24
5893.48
5321.57
4680.3
3975.26
3210.01
2384.54
1498.33
564.604
2220.06
3013.52
3776.04
4496
5162.4
5764.98
6294.49
6742.75
7102.84
7369.18
7537.64
7605.64
7572.15
7437.76
7204.66
6876.57
6458.6
5956.94
5378.39
4729.88
4017.08
3243.58
2409.29
1513.55
569.72
2220.06
3013.52
3776.04
4496
5162.4
5764.98
6294.49
6742.75
7102.84
7369.18
7537.64
7605.64
7572.15
7437.76
7204.66
6876.57
6458.6
5956.94
5378.39
4729.88
4017.08
3243.58
2409.29
1513.55
569.72
2189.99
2974.94
3729.34
4441.72
5101.16
5697.54
6221.68
6665.5
7022.13
7286.07
7453.22
7521.02
7488.44
7356.08
7126.08
6802.13
6389.24
5893.49
5321.57
4680.3
3975.26
3210.01
2384.54
1498.33
564.604
2227.31
3022.9
3787.45
4509.32
5177.45
5781.6
6312.46
6761.84
7122.8
7389.75
7558.55
7626.61
7592.9
7458.02
7224.15
6895.05
6475.83
5972.69
5392.5
4742.2
4027.48
3251.93
2415.45
1517.33
570.992
2195.19
2981.59
3737.37
4451.04
5111.65
5709.08
6234.13
6678.7
7035.92
7300.26
7467.63
7535.45
7502.72
7370
7139.48
6814.82
6401.06
5904.3
5331.25
4688.74
3982.37
3215.71
2388.73
1500.9
565.474
2220.06
3013.52
3776.04
4496
5162.4
5764.98
6294.49
6742.75
7102.84
7369.18
7537.64
7605.64
7572.15
7437.76
7204.66
6876.57
6458.6
5956.94
5378.39
4729.88
4017.08
3243.58
2409.29
1513.55
569.72
2189.99
2974.94
3729.34
4441.72
5101.16
5697.54
6221.68
6665.49
7022.13
7286.07
7453.22
7521.01
7488.44
7356.07
7126.08
6802.13
6389.24
5893.48
5321.57
4680.3
3975.26
3210.01
2384.54
1498.33
564.604
2189.99
2974.94
3729.34
4441.72
5101.16
5697.54
6221.68
6665.5
7022.13
7286.07
7453.22
7521.02
7488.44
7356.08
7126.08
6802.13
6389.24
5893.49
5321.57
4680.3
3975.26
3210.01
2384.54
1498.33
564.604
2220.06
3013.52
3776.04
4496
5162.4
5764.98
6294.49
6742.75
7102.84
7369.18
7537.64
7605.64
7572.15
7437.76
7204.66
6876.57
6458.6
5956.94
5378.39
4729.88
4017.08
3243.58
2409.29
1513.55
569.72
)
;

boundaryField
{
    outletCentralUnloaded
    {
        type            zeroGradient;
    }
    inletCentralUnloaded
    {
        type            zeroGradient;
    }
    outletFuelElement
    {
        type            zeroGradient;
    }
    inletFuelElement
    {
        type            zeroGradient;
    }
    defaultFaces
    {
        type            zeroGradient;
    }
}


// ************************************************************************* //
