/*--------------------------------*- C++ -*----------------------------------*\
| =========                 |                                                 |
| \\      /  F ield         | OpenFOAM: The Open Source CFD Toolbox           |
|  \\    /   O peration     | Version:  2212                                  |
|   \\  /    A nd           | Website:  www.openfoam.com                      |
|    \\/     M anipulation  |                                                 |
\*---------------------------------------------------------------------------*/
FoamFile
{
    version     2.0;
    format      ascii;
    arch        "LSB;label=32;scalar=64";
    class       volScalarField;
    location    "45/neutroRegion";
    object      TCool;
}
// * * * * * * * * * * * * * * * * * * * * * * * * * * * * * * * * * * * * * //

dimensions      [0 0 0 1 0 0 0];

internalField   nonuniform List<scalar> 
350
(
83.2888
83.2893
83.2898
83.2903
83.2908
83.2913
83.2918
83.2923
83.2928
83.2932
83.2937
83.2941
83.2946
83.295
83.2955
83.2959
83.2964
83.2969
83.2973
83.2978
83.2982
83.2987
83.2991
83.2996
83.3
83.2888
83.2893
83.2898
83.2903
83.2908
83.2913
83.2918
83.2923
83.2928
83.2932
83.2937
83.2941
83.2946
83.295
83.2955
83.2959
83.2964
83.2969
83.2973
83.2978
83.2982
83.2987
83.2991
83.2996
83.3
1820.09
1814.11
1795.72
1765.14
1722.72
1668.95
1604.45
1529.96
1446.37
1354.69
1256.05
1151.8
1043.46
932.759
821.669
712.284
606.707
506.901
414.573
331.163
257.92
196.04
146.747
111.202
90.0969
1848.24
1842.49
1824.1
1793.31
1750.45
1696.04
1630.69
1555.17
1470.37
1377.29
1277.1
1171.14
1060.94
948.271
835.126
723.656
616.035
514.295
420.205
335.246
260.689
197.745
147.648
111.565
90.1741
1815.51
1809.52
1791.15
1760.63
1718.29
1664.64
1600.29
1525.98
1442.6
1351.15
1252.78
1148.81
1040.76
930.379
819.617
710.56
605.302
505.794
413.736
330.562
257.516
195.793
146.617
111.149
90.0845
1841.91
1836.09
1817.69
1786.93
1744.17
1689.89
1624.72
1549.42
1464.89
1372.12
1272.28
1166.7
1056.92
944.7
832.023
721.031
613.879
512.584
418.901
334.3
260.047
197.349
147.439
111.481
90.1563
1841.91
1836.09
1817.69
1786.93
1744.17
1689.89
1624.72
1549.42
1464.89
1372.12
1272.28
1166.7
1056.92
944.7
832.023
721.031
613.879
512.584
418.901
334.3
260.047
197.349
147.439
111.481
90.1563
1815.52
1809.52
1791.15
1760.63
1718.29
1664.64
1600.29
1525.98
1442.6
1351.15
1252.78
1148.81
1040.76
930.38
819.618
710.561
605.303
505.795
413.737
330.563
257.516
195.793
146.617
111.149
90.0845
1848.24
1842.49
1824.1
1793.31
1750.45
1696.04
1630.69
1555.17
1470.37
1377.29
1277.1
1171.14
1060.94
948.271
835.126
723.656
616.035
514.295
420.205
335.246
260.689
197.745
147.648
111.565
90.1741
1820.09
1814.11
1795.72
1765.14
1722.72
1668.95
1604.45
1529.96
1446.37
1354.69
1256.05
1151.8
1043.46
932.759
821.669
712.284
606.707
506.901
414.573
331.163
257.92
196.04
146.747
111.202
90.0969
1841.91
1836.09
1817.69
1786.93
1744.17
1689.89
1624.72
1549.42
1464.89
1372.12
1272.28
1166.7
1056.92
944.7
832.023
721.031
613.879
512.584
418.901
334.3
260.047
197.349
147.439
111.481
90.1563
1815.51
1809.52
1791.15
1760.63
1718.29
1664.64
1600.29
1525.98
1442.6
1351.15
1252.78
1148.81
1040.76
930.379
819.617
710.56
605.302
505.794
413.736
330.562
257.516
195.793
146.617
111.149
90.0845
1815.52
1809.52
1791.15
1760.63
1718.29
1664.64
1600.29
1525.98
1442.6
1351.15
1252.78
1148.81
1040.76
930.38
819.618
710.561
605.303
505.795
413.737
330.563
257.516
195.793
146.617
111.149
90.0845
1841.91
1836.09
1817.69
1786.93
1744.17
1689.89
1624.72
1549.42
1464.89
1372.12
1272.28
1166.7
1056.92
944.7
832.023
721.031
613.879
512.584
418.901
334.3
260.047
197.349
147.439
111.481
90.1563
)
;

boundaryField
{
    outletCentralUnloaded
    {
        type            zeroGradient;
    }
    inletCentralUnloaded
    {
        type            zeroGradient;
    }
    outletFuelElement
    {
        type            zeroGradient;
    }
    inletFuelElement
    {
        type            zeroGradient;
    }
    defaultFaces
    {
        type            zeroGradient;
    }
}


// ************************************************************************* //
