/*--------------------------------*- C++ -*----------------------------------*\
| =========                 |                                                 |
| \\      /  F ield         | OpenFOAM: The Open Source CFD Toolbox           |
|  \\    /   O peration     | Version:  2212                                  |
|   \\  /    A nd           | Website:  www.openfoam.com                      |
|    \\/     M anipulation  |                                                 |
\*---------------------------------------------------------------------------*/
FoamFile
{
    version     2.0;
    format      ascii;
    arch        "LSB;label=32;scalar=64";
    class       volScalarField;
    location    "57/fluidRegion";
    object      alphat;
}
// * * * * * * * * * * * * * * * * * * * * * * * * * * * * * * * * * * * * * //

dimensions      [1 -1 -1 0 0 0 0];

internalField   nonuniform List<scalar> 
350
(
0.0025857
0.00258566
0.00258562
0.00258559
0.00258557
0.00258556
0.00258556
0.00258556
0.00258558
0.00258561
0.00258566
0.00258574
0.00258584
0.00258597
0.00258614
0.00258636
0.00258666
0.0025871
0.00258776
0.00258878
0.00259036
0.00259279
0.00259652
0.00260225
0.00261101
0.0025857
0.00258566
0.00258562
0.00258559
0.00258557
0.00258556
0.00258556
0.00258556
0.00258558
0.00258561
0.00258566
0.00258574
0.00258584
0.00258597
0.00258614
0.00258636
0.00258666
0.0025871
0.00258776
0.00258878
0.00259036
0.00259279
0.00259652
0.00260225
0.00261101
0.000895862
0.000884255
0.000872842
0.000861269
0.00084943
0.000837219
0.000824531
0.000811268
0.000797344
0.000782695
0.00076729
0.000751134
0.000734271
0.000716772
0.000698716
0.000680199
0.000661397
0.000642765
0.000625484
0.000612389
0.000609876
0.000631329
0.000699562
0.00083229
0.00100217
0.000888006
0.000876412
0.000865035
0.000853504
0.000841716
0.000829563
0.000816941
0.000803749
0.000789901
0.000775333
0.000760013
0.000743955
0.000727208
0.000709857
0.000691993
0.00067372
0.000655214
0.000636918
0.000619989
0.000607236
0.000605037
0.000626817
0.000695613
0.000829593
0.00100143
0.000897116
0.000885495
0.000874072
0.000862488
0.000850636
0.00083841
0.000825707
0.000812429
0.000798488
0.000783822
0.000768397
0.00075222
0.000735334
0.000717804
0.000699712
0.000681149
0.000662293
0.000643601
0.000626255
0.000613096
0.00061052
0.000631911
0.000700061
0.000832632
0.0010023
0.00088981
0.000878217
0.000866834
0.000855297
0.0008435
0.000831336
0.0008187
0.000805493
0.000791628
0.000777042
0.000761703
0.000745621
0.000728847
0.000711461
0.000693552
0.000675223
0.000656649
0.000638275
0.000621264
0.000608432
0.00060616
0.000627865
0.000696531
0.000830222
0.00100161
0.00088981
0.000878217
0.000866834
0.000855297
0.0008435
0.000831336
0.0008187
0.000805493
0.000791628
0.000777042
0.000761703
0.000745621
0.000728847
0.000711461
0.000693552
0.000675223
0.000656649
0.000638275
0.000621264
0.000608431
0.000606159
0.000627864
0.000696531
0.000830223
0.00100161
0.000897116
0.000885495
0.000874072
0.000862488
0.000850635
0.00083841
0.000825707
0.000812428
0.000798487
0.000783821
0.000768397
0.00075222
0.000735333
0.000717804
0.000699711
0.000681148
0.000662291
0.000643599
0.000626253
0.000613093
0.000610517
0.000631907
0.000700057
0.000832628
0.00100229
0.000888006
0.000876412
0.000865035
0.000853504
0.000841716
0.000829563
0.000816941
0.000803749
0.000789901
0.000775333
0.000760014
0.000743955
0.000727208
0.000709857
0.000691993
0.00067372
0.000655214
0.000636918
0.000619989
0.000607236
0.000605037
0.000626817
0.000695613
0.000829593
0.00100143
0.000895862
0.000884255
0.000872842
0.000861269
0.00084943
0.000837219
0.000824531
0.000811268
0.000797344
0.000782695
0.00076729
0.000751134
0.000734271
0.000716772
0.000698716
0.000680199
0.000661397
0.000642765
0.000625484
0.000612388
0.000609874
0.000631326
0.000699557
0.000832282
0.00100216
0.00088981
0.000878217
0.000866834
0.000855297
0.0008435
0.000831335
0.0008187
0.000805493
0.000791628
0.000777042
0.000761703
0.000745621
0.000728847
0.000711461
0.000693552
0.000675223
0.000656649
0.000638275
0.000621264
0.000608431
0.000606159
0.000627864
0.00069653
0.000830219
0.0010016
0.000897116
0.000885495
0.000874072
0.000862488
0.000850636
0.00083841
0.000825707
0.000812429
0.000798488
0.000783822
0.000768397
0.00075222
0.000735334
0.000717804
0.000699712
0.000681149
0.000662293
0.000643601
0.000626256
0.000613097
0.000610523
0.000631917
0.000700071
0.000832647
0.00100232
0.000897116
0.000885495
0.000874072
0.000862488
0.000850635
0.00083841
0.000825707
0.000812428
0.000798487
0.000783821
0.000768397
0.00075222
0.000735333
0.000717803
0.00069971
0.000681147
0.000662291
0.000643598
0.000626252
0.000613092
0.000610516
0.000631907
0.000700057
0.00083263
0.0010023
0.00088981
0.000878217
0.000866834
0.000855297
0.0008435
0.000831336
0.0008187
0.000805493
0.000791628
0.000777042
0.000761703
0.000745621
0.000728847
0.000711461
0.000693552
0.000675223
0.000656648
0.000638274
0.000621263
0.000608429
0.000606156
0.00062786
0.000696524
0.00083021
0.00100159
)
;

boundaryField
{
    outletCentralUnloaded
    {
        type            zeroGradient;
    }
    inletCentralUnloaded
    {
        type            zeroGradient;
    }
    outletFuelElement
    {
        type            zeroGradient;
    }
    inletFuelElement
    {
        type            zeroGradient;
    }
    defaultFaces
    {
        type            zeroGradient;
    }
    baffle_master
    {
        type            calculated;
        value           nonuniform List<scalar> 
150
(
0.0025857
0.0025857
0.0025857
0.00258566
0.00258566
0.00258566
0.00258562
0.00258562
0.00258562
0.00258559
0.00258559
0.00258559
0.00258557
0.00258557
0.00258557
0.00258556
0.00258556
0.00258556
0.00258556
0.00258556
0.00258556
0.00258556
0.00258556
0.00258556
0.00258558
0.00258558
0.00258558
0.00258561
0.00258561
0.00258561
0.00258566
0.00258566
0.00258566
0.00258574
0.00258574
0.00258574
0.00258584
0.00258584
0.00258584
0.00258597
0.00258597
0.00258597
0.00258614
0.00258614
0.00258614
0.00258636
0.00258636
0.00258636
0.00258666
0.00258666
0.00258666
0.0025871
0.0025871
0.0025871
0.00258776
0.00258776
0.00258776
0.00258878
0.00258878
0.00258878
0.00259036
0.00259036
0.00259036
0.00259279
0.00259279
0.00259279
0.00259652
0.00259652
0.00259652
0.00260225
0.00260225
0.00260225
0.00261101
0.00261101
0.00261101
0.0025857
0.0025857
0.0025857
0.00258566
0.00258566
0.00258566
0.00258562
0.00258562
0.00258562
0.00258559
0.00258559
0.00258559
0.00258557
0.00258557
0.00258557
0.00258556
0.00258556
0.00258556
0.00258556
0.00258556
0.00258556
0.00258556
0.00258556
0.00258556
0.00258558
0.00258558
0.00258558
0.00258561
0.00258561
0.00258561
0.00258566
0.00258566
0.00258566
0.00258574
0.00258574
0.00258574
0.00258584
0.00258584
0.00258584
0.00258597
0.00258597
0.00258597
0.00258614
0.00258614
0.00258614
0.00258636
0.00258636
0.00258636
0.00258666
0.00258666
0.00258666
0.0025871
0.0025871
0.0025871
0.00258776
0.00258776
0.00258776
0.00258878
0.00258878
0.00258878
0.00259036
0.00259036
0.00259036
0.00259279
0.00259279
0.00259279
0.00259652
0.00259652
0.00259652
0.00260225
0.00260225
0.00260225
0.00261101
0.00261101
0.00261101
)
;
    }
    baffle_slave
    {
        type            calculated;
        value           nonuniform List<scalar> 
150
(
0.000888006
0.00088981
0.00088981
0.000876412
0.000878217
0.000878217
0.000865035
0.000866834
0.000866834
0.000853504
0.000855297
0.000855297
0.000841716
0.0008435
0.0008435
0.000829563
0.000831336
0.000831336
0.000816941
0.0008187
0.0008187
0.000803749
0.000805493
0.000805493
0.000789901
0.000791628
0.000791628
0.000775333
0.000777042
0.000777042
0.000760013
0.000761703
0.000761703
0.000743955
0.000745621
0.000745621
0.000727208
0.000728847
0.000728847
0.000709857
0.000711461
0.000711461
0.000691993
0.000693552
0.000693552
0.00067372
0.000675223
0.000675223
0.000655214
0.000656649
0.000656648
0.000636918
0.000638275
0.000638274
0.000619989
0.000621264
0.000621263
0.000607236
0.000608432
0.000608429
0.000605037
0.00060616
0.000606156
0.000626817
0.000627865
0.00062786
0.000695613
0.000696531
0.000696524
0.000829593
0.000830222
0.00083021
0.00100143
0.00100161
0.00100159
0.00088981
0.000888006
0.00088981
0.000878217
0.000876412
0.000878217
0.000866834
0.000865035
0.000866834
0.000855297
0.000853504
0.000855297
0.0008435
0.000841716
0.0008435
0.000831336
0.000829563
0.000831335
0.0008187
0.000816941
0.0008187
0.000805493
0.000803749
0.000805493
0.000791628
0.000789901
0.000791628
0.000777042
0.000775333
0.000777042
0.000761703
0.000760014
0.000761703
0.000745621
0.000743955
0.000745621
0.000728847
0.000727208
0.000728847
0.000711461
0.000709857
0.000711461
0.000693552
0.000691993
0.000693552
0.000675223
0.00067372
0.000675223
0.000656649
0.000655214
0.000656649
0.000638275
0.000636918
0.000638275
0.000621264
0.000619989
0.000621264
0.000608431
0.000607236
0.000608431
0.000606159
0.000605037
0.000606159
0.000627864
0.000626817
0.000627864
0.000696531
0.000695613
0.00069653
0.000830223
0.000829593
0.000830219
0.00100161
0.00100143
0.0010016
)
;
    }
}


// ************************************************************************* //
