/*--------------------------------*- C++ -*----------------------------------*\
| =========                 |                                                 |
| \\      /  F ield         | OpenFOAM: The Open Source CFD Toolbox           |
|  \\    /   O peration     | Version:  2212                                  |
|   \\  /    A nd           | Website:  www.openfoam.com                      |
|    \\/     M anipulation  |                                                 |
\*---------------------------------------------------------------------------*/
FoamFile
{
    version     2.0;
    format      ascii;
    arch        "LSB;label=32;scalar=64";
    class       surfaceScalarField;
    location    "57/fluidRegion";
    object      alphaRhoPhi;
}
// * * * * * * * * * * * * * * * * * * * * * * * * * * * * * * * * * * * * * //

dimensions      [1 0 -1 0 0 0 0];

oriented        oriented;

internalField   nonuniform List<scalar> 
661
(
-0.0058498
2.27092e-11
-0.00584977
2.53407e-11
-0.0058497
1.93325e-11
-0.00584958
1.09296e-11
-0.00584943
1.98049e-12
-0.00584929
-6.57329e-12
-0.00584917
-1.41524e-11
-0.00584908
-2.03125e-11
-0.00584905
-2.43967e-11
-0.00584907
-2.59509e-11
-0.00584916
-2.4945e-11
-0.00584931
-2.14457e-11
-0.0058495
-1.59002e-11
-0.00584974
-8.98828e-12
-0.00584999
-1.55943e-12
-0.00585024
5.64506e-12
-0.00585046
1.17809e-11
-0.00585064
1.63326e-11
-0.00585075
1.87929e-11
-0.00585078
1.92401e-11
-0.00585072
1.78191e-11
-0.00585056
1.49332e-11
-0.0058503
9.93666e-12
-0.00584999
-1.97012e-12
-2.12388e-11
-0.0058498
-0.00584977
-0.0058497
-0.00584958
-0.00584943
-0.00584929
-0.00584917
-0.00584908
-0.00584905
-0.00584907
-0.00584916
-0.00584931
-0.0058495
-0.00584974
-0.00584999
-0.00585024
-0.00585046
-0.00585064
-0.00585075
-0.00585078
-0.00585072
-0.00585056
-0.0058503
-0.00584999
-0.00939652
6.45804e-07
-0.00939675
3.12576e-07
-0.00939702
3.4713e-07
-0.00939727
3.22209e-07
-0.0093975
3.02845e-07
-0.00939771
2.85878e-07
-0.00939791
2.71022e-07
-0.00939811
2.56665e-07
-0.00939828
2.38855e-07
-0.00939844
2.09919e-07
-0.00939856
1.57646e-07
-0.00939861
6.50561e-08
-0.00939853
-8.50811e-08
-0.00939827
-3.00349e-07
-0.00939777
-5.81139e-07
-0.00939696
-9.08728e-07
-0.00939582
-1.25701e-06
-0.00939434
-1.60929e-06
-0.0093925
-1.97701e-06
-0.00939023
-2.41009e-06
-0.00938737
-3.00092e-06
-0.00938367
-3.84662e-06
-0.00937882
-4.97821e-06
-0.00937307
-5.87914e-06
-7.18098e-06
-0.0093123
-1.8654e-08
-1.65844e-08
-0.00931185
-8.20892e-08
-8.20777e-08
-0.00931137
-7.98892e-08
-7.9665e-08
-0.00931093
-7.1408e-08
-7.11478e-08
-0.00931053
-6.43031e-08
-6.39581e-08
-0.00931015
-5.77271e-08
-5.73071e-08
-0.0093098
-5.16201e-08
-5.11164e-08
-0.00930948
-4.55487e-08
-4.48938e-08
-0.00930919
-3.84186e-08
-3.75774e-08
-0.00930894
-2.80503e-08
-2.69539e-08
-0.00930878
-1.07268e-08
-9.21362e-09
-0.00930875
1.85922e-08
2.06927e-08
-0.00930897
6.44011e-08
6.747e-08
-0.00930952
1.3419e-07
1.38574e-07
-0.00931054
2.25861e-07
2.32193e-07
-0.00931209
3.35175e-07
3.44545e-07
-0.00931422
4.54252e-07
4.68408e-07
-0.00931696
5.77868e-07
5.99848e-07
-0.00932034
7.0984e-07
7.44788e-07
-0.00932448
8.66952e-07
9.23221e-07
-0.00932966
1.07816e-06
1.16814e-06
-0.00933629
1.36913e-06
1.50719e-06
-0.0093448
1.71278e-06
1.92479e-06
-0.00935446
1.81559e-06
2.09375e-06
1.75799e-06
2.03224e-06
-0.00941033
3.17471e-07
-0.00941065
3.05151e-07
-0.00941098
3.01013e-07
-0.00941127
2.7635e-07
-0.00941154
2.55206e-07
-0.00941178
2.36263e-07
-0.009412
2.18934e-07
-0.00941221
2.01286e-07
-0.00941238
1.78729e-07
-0.00941253
1.4269e-07
-0.0094126
7.96225e-08
-0.00941256
-2.77472e-08
-0.00941233
-1.97133e-07
-0.00941182
-4.382e-07
-0.00941094
-7.48577e-07
-0.00940961
-1.10795e-06
-0.0094078
-1.48919e-06
-0.00940548
-1.87681e-06
-0.00940263
-2.28624e-06
-0.00939912
-2.77309e-06
-0.00939472
-3.43002e-06
-0.00938908
-4.34736e-06
-0.0093819
-5.46081e-06
-0.00937386
-6.11481e-06
-6.36188e-06
-0.00933118
1.40139e-09
-0.00933091
-1.78395e-10
-0.00933065
-7.93321e-11
-0.0093304
-1.02784e-10
-0.00933018
-6.21349e-11
-0.00932997
-2.70058e-11
-0.00932978
-2.47968e-11
-0.0093296
2.26999e-11
-0.00932945
6.68576e-11
-0.00932933
1.02318e-10
-0.00932926
2.17613e-10
-0.00932928
3.95057e-10
-0.00932947
6.67662e-10
-0.00932987
1.02007e-09
-0.00933057
1.50124e-09
-0.00933162
2.21125e-09
-0.00933303
3.40913e-09
-0.00933484
5.50826e-09
-0.00933705
8.83082e-09
-0.00933975
1.42786e-08
-0.00934312
2.30842e-08
-0.00934742
3.54101e-08
-0.00935288
5.21619e-08
-0.00935904
6.61325e-08
6.87375e-08
-0.0093312
-3.14498e-07
-0.00933093
-3.0562e-07
-0.00933066
-3.01162e-07
-0.00933041
-2.7654e-07
-0.00933019
-2.55333e-07
-0.00932998
-2.36348e-07
-0.00932979
-2.19012e-07
-0.00932962
-2.01296e-07
-0.00932946
-1.78683e-07
-0.00932934
-1.42587e-07
-0.00932927
-7.93438e-08
-0.00932929
2.82638e-08
-0.00932948
1.98048e-07
-0.00932988
4.39613e-07
-0.00933058
7.50678e-07
-0.00933163
1.11113e-06
-0.00933304
1.49432e-06
-0.00933485
1.88554e-06
-0.00933706
2.30115e-06
-0.00933976
2.79894e-06
-0.00934313
3.47512e-06
-0.00934743
4.42318e-06
-0.00935289
5.58493e-06
-0.00935905
6.28735e-06
6.5665e-06
-0.00941033
1.66235e-08
-0.00941066
8.21146e-08
-0.00941098
7.96727e-08
-0.00941127
7.1142e-08
-0.00941154
6.40039e-08
-0.00941178
5.73754e-08
-0.009412
5.1192e-08
-0.00941221
4.50386e-08
-0.00941239
3.77788e-08
-0.00941253
2.72203e-08
-0.0094126
9.6645e-09
-0.00941256
-1.99478e-08
-0.00941233
-6.62459e-08
-0.00941182
-1.3674e-07
-0.00941094
-2.29495e-07
-0.00940961
-3.40455e-07
-0.0094078
-4.61985e-07
-0.00940548
-5.89154e-07
-0.00940262
-7.26557e-07
-0.0093991
-8.91291e-07
-0.0093947
-1.11359e-06
-0.00938906
-1.41858e-06
-0.00938188
-1.78002e-06
-0.00937384
-1.89102e-06
-1.78916e-06
-0.0093123
-6.45841e-07
-1.85027e-08
-0.00931185
-3.12634e-07
-8.19047e-08
-0.00931137
-3.47228e-07
-7.96655e-08
-0.00931093
-3.22332e-07
-7.11342e-08
-0.00931053
-3.02953e-07
-6.39972e-08
-0.00931015
-2.85991e-07
-5.73923e-08
-0.0093098
-2.7115e-07
-5.12333e-08
-0.00930948
-2.5679e-07
-4.50916e-08
-0.00930919
-2.39e-07
-3.78619e-08
-0.00930894
-2.10089e-07
-2.73531e-08
-0.00930878
-1.57781e-07
-9.85152e-09
-0.00930875
-6.51075e-08
1.97622e-08
-0.00930897
8.51907e-08
6.59551e-08
-0.00930952
3.00699e-07
1.36217e-07
-0.00931054
5.8196e-07
2.28475e-07
-0.00931209
9.1061e-07
3.38435e-07
-0.00931422
1.26129e-06
4.57814e-07
-0.00931696
1.61906e-06
5.80557e-07
-0.00932034
1.99855e-06
7.08648e-07
-0.00932448
2.45719e-06
8.54411e-07
-0.00932966
3.10258e-06
1.03399e-06
-0.00933629
4.05515e-06
1.25412e-06
-0.0093448
5.38632e-06
1.46567e-06
-0.00935445
6.55092e-06
1.38736e-06
8.08297e-06
1.20293e-06
-0.00939652
-0.00939675
-0.00939702
-0.00939727
-0.0093975
-0.00939771
-0.00939792
-0.00939811
-0.00939828
-0.00939844
-0.00939856
-0.00939861
-0.00939853
-0.00939827
-0.00939777
-0.00939696
-0.00939582
-0.00939434
-0.0093925
-0.00939023
-0.00938737
-0.00938366
-0.00937882
-0.00937307
-0.00933118
-3.17763e-07
1.60147e-09
-0.00933091
-3.05511e-07
6.53359e-11
-0.00933065
-3.01447e-07
2.33778e-10
-0.0093304
-2.76856e-07
2.83803e-10
-0.00933018
-2.5573e-07
3.09024e-10
-0.00932997
-2.36827e-07
3.49919e-10
-0.00932978
-2.19584e-07
4.26013e-10
-0.0093296
-2.02013e-07
5.00143e-10
-0.00932945
-1.79575e-07
6.21287e-10
-0.00932933
-1.43713e-07
8.21108e-10
-0.00932926
-8.08433e-08
1.08149e-09
-0.00932928
2.62015e-08
1.32928e-09
-0.00932946
1.95101e-07
1.87749e-09
-0.00932987
4.354e-07
2.71472e-09
-0.00933057
7.44457e-07
4.10853e-09
-0.00933162
1.10154e-06
6.53299e-09
-0.00933303
1.47872e-06
1.07485e-08
-0.00933484
1.85879e-06
1.84413e-08
-0.00933705
2.25276e-06
3.33817e-08
-0.00933975
2.70846e-06
6.26763e-08
-0.00934312
3.29809e-06
1.21585e-07
-0.00934742
4.08106e-06
2.30646e-07
-0.00935289
4.94575e-06
4.30518e-07
-0.00935904
5.25041e-06
6.72664e-07
5.30698e-06
8.20029e-07
-0.00941033
-0.00941065
-0.00941098
-0.00941127
-0.00941154
-0.00941178
-0.009412
-0.00941221
-0.00941238
-0.00941253
-0.0094126
-0.00941256
-0.00941233
-0.00941182
-0.00941094
-0.00940961
-0.0094078
-0.00940548
-0.00940263
-0.00939912
-0.00939472
-0.00938908
-0.00938191
-0.00937388
-0.00941033
3.14312e-07
-0.00941066
3.05395e-07
-0.00941098
3.00866e-07
-0.00941127
2.76189e-07
-0.00941154
2.55005e-07
-0.00941178
2.36007e-07
-0.00941201
2.18619e-07
-0.00941221
2.00897e-07
-0.00941239
1.78242e-07
-0.00941253
1.4206e-07
-0.0094126
7.87882e-08
-0.00941256
-2.87719e-08
-0.00941233
-1.98617e-07
-0.00941182
-4.40289e-07
-0.00941094
-7.51595e-07
-0.00940961
-1.11237e-06
-0.0094078
-1.49574e-06
-0.00940548
-1.88621e-06
-0.00940262
-2.299e-06
-0.0093991
-2.7869e-06
-0.0093947
-3.44004e-06
-0.00938906
-4.33368e-06
-0.00938188
-5.37722e-06
-0.00937384
-5.88632e-06
-5.89727e-06
-0.0093312
-0.00933093
-0.00933066
-0.00933041
-0.00933019
-0.00932998
-0.00932979
-0.00932962
-0.00932946
-0.00932934
-0.00932927
-0.0093293
-0.00932948
-0.00932988
-0.00933058
-0.00933163
-0.00933304
-0.00933485
-0.00933706
-0.00933976
-0.00934312
-0.00934742
-0.00935289
-0.00935905
)
;

boundaryField
{
    outletCentralUnloaded
    {
        type            calculated;
        value           nonuniform List<scalar> 2(0.00584979 0.00584979);
    }
    inletCentralUnloaded
    {
        type            calculated;
        value           nonuniform List<scalar> 2(-0.0058737 -0.0058737);
    }
    outletFuelElement
    {
        type            calculated;
        value           nonuniform List<scalar> 
12
(
0.00939595
0.00931295
0.00941005
0.00933147
0.00933148
0.00941006
0.00931295
0.00939595
0.00933147
0.00941005
0.00941006
0.00933148
)
;
    }
    inletFuelElement
    {
        type            calculated;
        value           nonuniform List<scalar> 
12
(
-0.0095385
-0.00953851
-0.0095385
-0.0095385
-0.00953851
-0.0095385
-0.00953851
-0.0095385
-0.0095385
-0.0095385
-0.0095385
-0.00953851
)
;
    }
    defaultFaces
    {
        type            calculated;
        value           nonuniform List<scalar> 
450
(
-9.70154e-24
3.36092e-24
0
8.4997e-24
-3.1816e-24
0
1.16973e-23
7.94079e-24
0
-2.53543e-23
-1.52535e-23
0
-9.70794e-24
-2.55702e-23
0
-2.26763e-23
-4.4612e-24
0
-1.98539e-23
-8.91999e-24
0
-2.01472e-23
-5.93978e-24
0
-1.26193e-23
-8.96175e-24
0
-1.71174e-23
-2.27131e-24
0
-9.9358e-24
-5.67435e-24
0
-5.15959e-24
-9.77569e-25
0
5.54882e-24
1.67109e-24
0
1.95173e-23
6.94449e-24
0
3.27671e-23
5.65595e-24
0
6.22595e-23
2.35779e-23
0
6.85755e-23
-4.98591e-23
0
1.16596e-22
2.84299e-23
0
6.62935e-23
-9.06588e-23
0
-7.93171e-23
-8.12956e-23
0
-7.01362e-23
-5.7111e-23
0
1.83179e-22
-8.56179e-23
0
-1.32154e-22
6.7418e-23
0
-2.39695e-22
-1.81024e-22
0
-1.98793e-22
-1.38216e-22
0
1.01826e-23
0
1.13116e-23
0
0
0
7.97332e-24
0
-1.03496e-23
0
1.29843e-23
0
9.11373e-24
0
7.25004e-24
0
-1.29181e-24
0
6.9643e-24
0
3.41059e-24
0
-1.66655e-24
0
-7.41214e-24
0
-1.25173e-23
0
-1.90501e-23
0
-3.31141e-23
0
5.20261e-23
0
-6.24486e-23
0
7.65278e-23
0
-9.59996e-23
0
-1.23606e-22
0
2.4534e-22
0
0
0
-2.99995e-22
0
-2.88262e-22
0
0
-7.43215e-24
0
0
8.15717e-24
-4.26361e-24
0
-2.38022e-24
7.63334e-24
-5.4866e-24
0
4.10272e-25
3.64964e-24
-8.21895e-24
9.38372e-24
0
-5.13029e-23
0
-7.55872e-23
0
6.11961e-23
-1.62236e-22
-2.20074e-22
0
9.59932e-23
0
0
0
0
0
0
0
0
0
0
0
0
0
0
0
0
0
0
0
0
0
0
0
0
0
-8.33117e-24
7.40549e-24
3.77053e-24
1.13116e-23
7.72904e-24
1.93226e-23
-7.97332e-24
-7.97332e-24
1.03496e-23
-8.27969e-24
-6.49216e-24
-4.3281e-24
-4.55686e-24
-6.83529e-24
-7.25003e-24
-2.41668e-24
1.16263e-23
-5.16725e-24
-4.17858e-24
-2.78572e-24
-1.89477e-24
-2.27373e-24
8.33274e-25
9.37433e-25
3.70606e-24
5.5591e-24
1.66897e-23
1.25173e-23
1.90501e-23
1.90501e-23
2.2076e-23
1.1038e-23
-5.2026e-23
6.50325e-23
6.24485e-23
3.12242e-23
-1.14792e-22
9.56596e-23
-9.59994e-23
-7.19996e-23
0
-1.23606e-22
-1.2267e-22
2.04449e-22
-1.10693e-22
-2.21385e-22
0
-2.62496e-22
-2.88262e-22
-1.92175e-22
-5.57975e-24
0
0
4.14068e-24
0
0
6.7341e-24
0
-3.08376e-23
-2.79863e-23
0
3.97648e-24
7.89081e-24
0
0
-2.28342e-23
0
8.63392e-24
-2.52482e-23
0
4.54508e-24
-1.90363e-23
0
4.82083e-24
-7.44545e-24
0
-1.54615e-23
-2.06327e-23
0
5.55695e-24
-1.28371e-23
0
6.04751e-24
-7.01753e-24
0
8.31116e-25
7.56901e-24
-0
-1.84827e-24
2.45964e-23
-0
-8.32369e-24
4.77547e-23
-0
-9.50139e-24
7.9037e-23
-0
0
6.63909e-23
-0
0
1.28375e-22
-0
-3.11565e-23
7.1956e-23
-0
-7.63739e-23
-9.70826e-23
-0
4.79126e-23
1.06997e-23
-0
0
2.49175e-22
-0
8.16742e-23
-1.57836e-22
-0
0
-1.40176e-22
-0
1.49916e-22
-2.01873e-22
-0
3.84285e-22
0
0
0
0
8.15717e-24
0
-4.48852e-24
0
-2.54445e-24
-2.7433e-24
0
4.10272e-25
0
1.64379e-23
9.38372e-24
2.17571e-23
-7.69543e-23
3.08126e-23
-1.51174e-22
-4.74628e-23
0
-8.11179e-23
-1.65055e-22
0
0
1.4811e-23
0
1.13116e-23
0
-3.86452e-24
0
7.97332e-24
0
-6.20977e-24
0
1.08203e-23
0
9.11373e-24
0
9.66672e-24
0
-2.58363e-24
0
2.78572e-24
0
2.65268e-24
0
-8.33275e-25
0
-9.26517e-24
-0
-8.34487e-24
-0
-2.85752e-23
-0
-3.31141e-23
-0
7.80391e-23
-0
-6.24485e-23
-0
1.14792e-22
-0
-1.19999e-22
-0
-2.16311e-22
-0
1.6356e-22
-0
5.53464e-23
-0
-2.24996e-22
-0
-1.44131e-22
-0
-9.25686e-24
7.40549e-24
-1.13116e-23
1.13116e-23
-3.86452e-24
7.72904e-24
-9.96665e-24
-2.19266e-23
2.06992e-24
6.20977e-24
-6.49216e-24
-1.73124e-23
-4.55686e-24
-1.5949e-23
-4.83335e-24
-1.20834e-23
-1.29181e-24
-7.75087e-24
-4.17858e-24
-1.11429e-23
-2.65268e-24
-4.54745e-24
1.66655e-24
3.95805e-24
3.70606e-24
1.85303e-23
8.34486e-24
2.9207e-23
9.52505e-24
7.14379e-23
3.3114e-23
9.93421e-23
0
7.8039e-23
6.24485e-23
1.56121e-22
3.82639e-23
1.14792e-22
-4.79997e-23
-4.79997e-23
6.18029e-23
-9.27044e-23
0
2.45339e-22
5.53463e-23
-1.38366e-22
0
-2.24996e-22
0
-1.92175e-22
-0
-0
-0
-0
-0
-0
-0
-0
-0
-0
-0
0
0
0
0
0
0
0
0
0
0
0
0
0
0
)
;
    }
    baffle_master
    {
        type            calculated;
        value           nonuniform List<scalar> 
150
(
1.82338e-28
0
0
5.28823e-29
0
-9.93925e-28
1.74607e-28
0
-2.48502e-28
-1.57948e-29
0
0
1.17447e-28
0
6.21356e-29
-4.87163e-29
0
-1.24282e-28
-6.99208e-29
0
2.48584e-28
1.66779e-28
0
0
4.62907e-28
0
-4.9725e-28
-9.25364e-29
0
4.97291e-28
3.47187e-28
0
4.97333e-28
1.45554e-28
0
4.97374e-28
1.43481e-28
0
0
-3.43018e-29
0
0
-4.85719e-31
0
0
2.42549e-29
0
0
-1.19491e-27
0
-2.48789e-28
-1.27148e-28
0
0
-1.05768e-27
0
-9.95322e-28
1.02593e-28
0
-2.48851e-28
1.04902e-28
0
2.48872e-28
8.47173e-28
0
7.46679e-28
-7.75967e-29
0
0
3.1946e-30
0
3.11168e-29
4.57901e-29
0
0
-4.96922e-28
6.3072e-28
-0
0
8.52858e-28
-0
-2.48502e-28
9.26877e-28
-0
2.48522e-28
3.41952e-28
-0
0
-2.54097e-29
-0
1.24282e-28
-2.17777e-28
0
0
-6.93312e-28
0
2.48604e-28
-8.07721e-28
0
-4.9725e-28
-9.38765e-28
0
0
-9.70844e-28
0
0
-1.11214e-27
0
0
-8.15299e-28
0
0
-4.87693e-28
0
1.24364e-28
-1.27669e-28
0
3.10936e-29
-5.51775e-29
0
-1.24385e-28
1.65493e-28
-0
4.97579e-28
5.32959e-28
-0
-2.4881e-28
8.47939e-28
-0
4.97661e-28
1.83212e-28
-0
0
-3.18033e-28
-0
0
-4.84003e-28
-0
4.97786e-28
-9.06231e-28
-0
1.24457e-28
2.11969e-28
-0
0
4.54892e-29
0
0
4.34307e-28
0
)
;
    }
    baffle_slave
    {
        type            calculated;
        value           nonuniform List<scalar> 
150
(
1.02299e-24
-0
7.29954e-24
1.04921e-24
-0
0
2.38661e-24
-0
-3.80821e-24
2.59925e-25
-0
0
-1.62559e-23
-0
-8.15717e-24
-1.64285e-24
-0
-4.26361e-24
-1.8168e-24
-0
0
2.77904e-25
-0
-2.38022e-24
-1.98046e-25
-0
2.54445e-24
-2.56222e-25
-0
0
4.64704e-25
-0
2.98534e-24
1.22617e-24
0
0
-1.13621e-25
0
3.64964e-24
-1.66322e-24
0
0
-3.21373e-24
0
0
-3.38728e-24
0
2.17571e-23
-7.18935e-23
0
-7.69543e-23
1.91941e-24
0
0
-7.53533e-23
0
-7.55872e-23
-1.18322e-23
0
-4.74628e-23
0
0
6.11962e-23
1.36605e-22
0
8.11179e-23
2.06008e-23
0
-1.10037e-22
-6.53467e-23
0
-1.49492e-22
-1.19962e-23
0
0
2.88198e-24
2.18806e-23
0
-7.71192e-24
7.31237e-24
0
4.22914e-24
8.77723e-24
0
-5.98533e-24
6.76475e-24
0
2.18192e-24
-1.62125e-23
0
-7.18893e-24
8.21062e-24
0
1.19477e-24
9.38098e-24
0
-1.46111e-24
6.8735e-24
0
3.79076e-24
5.44628e-24
0
-5.29171e-24
4.38246e-24
0
-5.72429e-25
6.50005e-24
0
4.83383e-25
3.2634e-24
0
2.73048e-24
-7.38537e-25
0
6.02187e-25
-5.19755e-24
0
2.12509e-23
-1.63243e-23
0
-1.28726e-23
-2.56586e-23
0
-3.61594e-23
-1.9571e-23
0
4.29642e-23
-4.07874e-23
0
-5.76416e-23
5.29828e-24
0
-7.63123e-25
3.99336e-23
0
5.89263e-24
3.43373e-23
0
-1.73625e-22
1.77081e-22
0
-1.11727e-22
-9.61372e-23
0
-4.02585e-23
1.68034e-22
0
-3.08001e-23
1.43955e-22
0
)
;
    }
}


// ************************************************************************* //
