/*--------------------------------*- C++ -*----------------------------------*\
| =========                 |                                                 |
| \\      /  F ield         | OpenFOAM: The Open Source CFD Toolbox           |
|  \\    /   O peration     | Version:  2212                                  |
|   \\  /    A nd           | Website:  www.openfoam.com                      |
|    \\/     M anipulation  |                                                 |
\*---------------------------------------------------------------------------*/
FoamFile
{
    version     2.0;
    format      ascii;
    arch        "LSB;label=32;scalar=64";
    class       volScalarField;
    location    "57/fluidRegion";
    object      heatFlux.structure;
}
// * * * * * * * * * * * * * * * * * * * * * * * * * * * * * * * * * * * * * //

dimensions      [1 0 -3 0 0 0 0];

internalField   nonuniform List<scalar> 
350
(
-258316
-258318
-258319
-258319
-258317
-258315
-258313
-258312
-258313
-258315
-258320
-258327
-258336
-258346
-258358
-258370
-258381
-258391
-258399
-258404
-258406
-258405
-258400
-258393
-258813
-258316
-258318
-258319
-258319
-258317
-258315
-258313
-258312
-258313
-258315
-258320
-258327
-258336
-258346
-258358
-258370
-258381
-258391
-258399
-258404
-258406
-258405
-258400
-258393
-258813
448024
1.34182e+06
2.21442e+06
3.05206e+06
3.84154e+06
4.57041e+06
5.22717e+06
5.80147e+06
6.28424e+06
6.66789e+06
6.94636e+06
7.11526e+06
7.17193e+06
7.11548e+06
6.94679e+06
6.66853e+06
6.28509e+06
5.80251e+06
5.22837e+06
4.57181e+06
3.84311e+06
3.05381e+06
2.21631e+06
1.34394e+06
450541
453124
1.35716e+06
2.23976e+06
3.087e+06
3.88552e+06
4.62274e+06
5.28702e+06
5.8679e+06
6.35621e+06
6.74425e+06
7.02591e+06
7.19675e+06
7.25407e+06
7.19697e+06
7.02635e+06
6.74491e+06
6.35707e+06
5.86897e+06
5.28826e+06
4.62418e+06
3.88712e+06
3.08879e+06
2.2417e+06
1.35933e+06
455698
447212
1.33938e+06
2.21039e+06
3.0465e+06
3.83454e+06
4.56208e+06
5.21764e+06
5.79089e+06
6.27278e+06
6.65573e+06
6.93369e+06
7.10229e+06
7.15885e+06
7.1025e+06
6.93412e+06
6.65637e+06
6.27363e+06
5.79192e+06
5.21884e+06
4.56347e+06
3.8361e+06
3.04824e+06
2.21227e+06
1.34149e+06
449719
451950
1.35363e+06
2.23392e+06
3.07896e+06
3.8754e+06
4.61069e+06
5.27324e+06
5.85261e+06
6.33964e+06
6.72667e+06
7.0076e+06
7.17799e+06
7.23516e+06
7.17821e+06
7.00804e+06
6.72733e+06
6.3405e+06
5.85367e+06
5.27447e+06
4.61212e+06
3.87699e+06
3.08074e+06
2.23585e+06
1.35579e+06
454511
451950
1.35363e+06
2.23392e+06
3.07896e+06
3.8754e+06
4.61069e+06
5.27324e+06
5.85261e+06
6.33964e+06
6.72667e+06
7.0076e+06
7.17799e+06
7.23516e+06
7.17821e+06
7.00804e+06
6.72733e+06
6.3405e+06
5.85367e+06
5.27447e+06
4.61212e+06
3.87699e+06
3.08074e+06
2.23585e+06
1.35579e+06
454511
447212
1.33938e+06
2.21039e+06
3.0465e+06
3.83454e+06
4.56208e+06
5.21764e+06
5.79089e+06
6.27278e+06
6.65573e+06
6.93369e+06
7.10229e+06
7.15885e+06
7.1025e+06
6.93412e+06
6.65637e+06
6.27363e+06
5.79192e+06
5.21884e+06
4.56347e+06
3.8361e+06
3.04824e+06
2.21227e+06
1.34149e+06
449720
453124
1.35716e+06
2.23976e+06
3.087e+06
3.88552e+06
4.62274e+06
5.28702e+06
5.8679e+06
6.35621e+06
6.74425e+06
7.02591e+06
7.19675e+06
7.25407e+06
7.19697e+06
7.02635e+06
6.74491e+06
6.35707e+06
5.86897e+06
5.28826e+06
4.62418e+06
3.88712e+06
3.08879e+06
2.2417e+06
1.35933e+06
455698
448024
1.34182e+06
2.21442e+06
3.05206e+06
3.84154e+06
4.57041e+06
5.22717e+06
5.80146e+06
6.28424e+06
6.66789e+06
6.94636e+06
7.11526e+06
7.17193e+06
7.11548e+06
6.94679e+06
6.66853e+06
6.28509e+06
5.80251e+06
5.22837e+06
4.57181e+06
3.8431e+06
3.05381e+06
2.21631e+06
1.34394e+06
450541
451950
1.35363e+06
2.23392e+06
3.07896e+06
3.8754e+06
4.61069e+06
5.27324e+06
5.85261e+06
6.33964e+06
6.72667e+06
7.0076e+06
7.17799e+06
7.23516e+06
7.17821e+06
7.00804e+06
6.72733e+06
6.3405e+06
5.85367e+06
5.27447e+06
4.61212e+06
3.87699e+06
3.08074e+06
2.23585e+06
1.35579e+06
454511
447212
1.33938e+06
2.21039e+06
3.0465e+06
3.83454e+06
4.56208e+06
5.21764e+06
5.79089e+06
6.27278e+06
6.65573e+06
6.93369e+06
7.10229e+06
7.15885e+06
7.1025e+06
6.93412e+06
6.65637e+06
6.27363e+06
5.79192e+06
5.21884e+06
4.56347e+06
3.8361e+06
3.04824e+06
2.21227e+06
1.34149e+06
449720
447212
1.33938e+06
2.21039e+06
3.0465e+06
3.83454e+06
4.56208e+06
5.21764e+06
5.79089e+06
6.27278e+06
6.65573e+06
6.93369e+06
7.10229e+06
7.15885e+06
7.1025e+06
6.93412e+06
6.65637e+06
6.27363e+06
5.79192e+06
5.21884e+06
4.56347e+06
3.8361e+06
3.04824e+06
2.21227e+06
1.34149e+06
449719
451950
1.35363e+06
2.23392e+06
3.07896e+06
3.8754e+06
4.61069e+06
5.27324e+06
5.85261e+06
6.33964e+06
6.72667e+06
7.0076e+06
7.17799e+06
7.23516e+06
7.17821e+06
7.00804e+06
6.72733e+06
6.3405e+06
5.85367e+06
5.27447e+06
4.61212e+06
3.87699e+06
3.08074e+06
2.23585e+06
1.35579e+06
454511
)
;

boundaryField
{
    outletCentralUnloaded
    {
        type            zeroGradient;
    }
    inletCentralUnloaded
    {
        type            zeroGradient;
    }
    outletFuelElement
    {
        type            zeroGradient;
    }
    inletFuelElement
    {
        type            zeroGradient;
    }
    defaultFaces
    {
        type            zeroGradient;
    }
    baffle_master
    {
        type            zeroGradient;
    }
    baffle_slave
    {
        type            zeroGradient;
    }
}


// ************************************************************************* //
