/*--------------------------------*- C++ -*----------------------------------*\
| =========                 |                                                 |
| \\      /  F ield         | OpenFOAM: The Open Source CFD Toolbox           |
|  \\    /   O peration     | Version:  2212                                  |
|   \\  /    A nd           | Website:  www.openfoam.com                      |
|    \\/     M anipulation  |                                                 |
\*---------------------------------------------------------------------------*/
FoamFile
{
    version     2.0;
    format      ascii;
    arch        "LSB;label=32;scalar=64";
    class       volScalarField;
    location    "57/fluidRegion";
    object      htc;
}
// * * * * * * * * * * * * * * * * * * * * * * * * * * * * * * * * * * * * * //

dimensions      [1 0 -3 -1 0 0 0];

internalField   nonuniform List<scalar> 
350
(
3101.44
3101.45
3101.45
3101.42
3101.38
3101.34
3101.3
3101.27
3101.26
3101.28
3101.32
3101.38
3101.47
3101.58
3101.7
3101.82
3101.94
3102.04
3102.12
3102.17
3102.18
3102.14
3102.07
3101.97
3107
3101.44
3101.45
3101.45
3101.42
3101.38
3101.34
3101.3
3101.27
3101.26
3101.28
3101.32
3101.38
3101.47
3101.58
3101.7
3101.82
3101.94
3102.04
3102.12
3102.17
3102.18
3102.14
3102.07
3101.97
3107
27252.8
27171.4
26984.3
26672.1
26236.3
25679
25003.2
24212.6
23312.5
22309.9
21214.5
20038.7
18797.6
17508.2
16186.7
14847.3
13500.2
12153.5
10816.4
9504.96
8247.24
7089.83
6103.87
5383.21
4943.97
27341.8
27260
27073.5
26761.3
26325.1
25766.8
25089.3
24296.4
23393
22386.1
21285
20102.2
18853
17554.9
16224.9
14877.8
13524.3
12172.2
10830.5
9514.52
8252.23
7090.33
6100.83
5378.96
4942
27238.8
27157
26969.8
26657.6
26222
25664.9
24989.3
24199.2
23299.6
22297.8
21203.3
20028.6
18788.8
17500.7
16180.6
14842.3
13496.2
12150.2
10813.8
9502.94
8245.84
7088.99
6103.46
5382.95
4943.82
27322
27240.4
27053.7
26741.5
26305.3
25747.2
25070
24277.6
23374.9
22368.9
21269.1
20087.8
18840.5
17544.3
16216.3
14870.9
13518.9
12168
10827.3
9512.42
8251.18
7090.31
6101.64
5380.06
4942.52
27322
27240.4
27053.7
26741.5
26305.3
25747.2
25070
24277.6
23374.9
22368.9
21269.1
20087.8
18840.5
17544.3
16216.3
14870.9
13518.9
12168
10827.3
9512.42
8251.18
7090.31
6101.64
5380.06
4942.52
27238.8
27157
26969.8
26657.7
26222
25664.9
24989.3
24199.2
23299.6
22297.8
21203.3
20028.6
18788.8
17500.7
16180.6
14842.3
13496.2
12150.2
10813.8
9502.93
8245.83
7088.98
6103.45
5382.94
4943.82
27341.8
27260
27073.5
26761.3
26325.1
25766.8
25089.3
24296.4
23393
22386.1
21285
20102.2
18853
17554.9
16224.9
14877.8
13524.3
12172.2
10830.5
9514.52
8252.23
7090.33
6100.83
5378.96
4942
27252.8
27171.4
26984.3
26672.1
26236.3
25679
25003.2
24212.6
23312.5
22309.9
21214.5
20038.7
18797.6
17508.2
16186.7
14847.3
13500.2
12153.5
10816.4
9504.96
8247.24
7089.82
6103.87
5383.21
4943.97
27322
27240.4
27053.7
26741.5
26305.3
25747.2
25070
24277.6
23374.9
22368.9
21269.1
20087.8
18840.5
17544.3
16216.3
14870.9
13518.9
12168
10827.3
9512.42
8251.18
7090.32
6101.64
5380.06
4942.52
27238.8
27157
26969.8
26657.6
26222
25664.9
24989.3
24199.2
23299.6
22297.8
21203.3
20028.6
18788.8
17500.7
16180.6
14842.3
13496.2
12150.2
10813.8
9502.94
8245.84
7088.99
6103.46
5382.96
4943.83
27238.8
27157
26969.8
26657.7
26222
25664.9
24989.3
24199.2
23299.6
22297.8
21203.3
20028.6
18788.8
17500.7
16180.6
14842.3
13496.2
12150.2
10813.8
9502.93
8245.83
7088.98
6103.45
5382.94
4943.82
27322
27240.4
27053.7
26741.5
26305.3
25747.2
25070
24277.6
23374.9
22368.9
21269.1
20087.8
18840.5
17544.3
16216.3
14870.9
13518.9
12168
10827.3
9512.42
8251.18
7090.31
6101.64
5380.06
4942.52
)
;

boundaryField
{
    outletCentralUnloaded
    {
        type            zeroGradient;
    }
    inletCentralUnloaded
    {
        type            zeroGradient;
    }
    outletFuelElement
    {
        type            zeroGradient;
    }
    inletFuelElement
    {
        type            zeroGradient;
    }
    defaultFaces
    {
        type            zeroGradient;
    }
    baffle_master
    {
        type            zeroGradient;
    }
    baffle_slave
    {
        type            zeroGradient;
    }
}


// ************************************************************************* //
