/*--------------------------------*- C++ -*----------------------------------*\
| =========                 |                                                 |
| \\      /  F ield         | OpenFOAM: The Open Source CFD Toolbox           |
|  \\    /   O peration     | Version:  2212                                  |
|   \\  /    A nd           | Website:  www.openfoam.com                      |
|    \\/     M anipulation  |                                                 |
\*---------------------------------------------------------------------------*/
FoamFile
{
    version     2.0;
    format      ascii;
    arch        "LSB;label=32;scalar=64";
    class       volScalarField;
    location    "57/fluidRegion";
    object      k;
}
// * * * * * * * * * * * * * * * * * * * * * * * * * * * * * * * * * * * * * //

dimensions      [0 2 -2 0 0 0 0];

internalField   nonuniform List<scalar> 
350
(
0.421092
0.421021
0.420951
0.420881
0.420812
0.420742
0.420673
0.420604
0.420536
0.42047
0.420406
0.420346
0.42029
0.420241
0.4202
0.42017
0.420159
0.420177
0.42024
0.420373
0.420614
0.421022
0.421684
0.422734
0.424376
0.421092
0.421021
0.420951
0.420881
0.420812
0.420742
0.420673
0.420604
0.420536
0.42047
0.420406
0.420346
0.42029
0.420241
0.4202
0.42017
0.420159
0.420177
0.42024
0.420373
0.420614
0.421022
0.421684
0.422734
0.424376
406.699
384.117
358.432
330.155
300.071
268.956
237.559
206.58
176.657
148.353
122.145
98.4136
77.4314
59.3548
44.2157
31.9215
22.267
14.9589
9.64809
5.96502
3.54966
2.07258
1.2501
0.853305
0.713277
412.419
389.571
363.583
334.952
304.475
272.942
241.111
209.692
179.335
150.611
124.006
99.9075
78.5957
60.2321
44.8518
32.3632
22.559
15.1411
9.7543
6.02183
3.57685
2.08378
1.25387
0.854334
0.713665
405.752
383.212
357.582
329.366
299.349
268.305
236.981
206.075
176.225
147.99
121.847
98.1748
77.2458
59.2153
44.1146
31.8513
22.2205
14.9297
9.6309
5.95561
3.54495
2.07045
1.24922
0.852967
0.713147
411.163
388.371
362.447
333.891
303.499
272.056
240.319
208.997
178.736
150.105
123.588
99.5708
78.3326
60.0335
44.7075
32.2628
22.4926
15.0996
9.73009
6.00889
3.57067
2.08125
1.25303
0.854118
0.713588
411.163
388.371
362.447
333.891
303.499
272.056
240.319
208.997
178.736
150.105
123.588
99.5708
78.3326
60.0335
44.7075
32.2628
22.4926
15.0996
9.73009
6.00889
3.57067
2.08125
1.25303
0.854119
0.713589
405.753
383.212
357.582
329.366
299.349
268.305
236.981
206.076
176.225
147.99
121.847
98.1749
77.2459
59.2153
44.1146
31.8513
22.2206
14.9297
9.63089
5.9556
3.54494
2.07044
1.24922
0.852962
0.713144
412.419
389.571
363.583
334.952
304.475
272.942
241.111
209.692
179.335
150.611
124.006
99.9075
78.5957
60.2321
44.8518
32.3632
22.559
15.1411
9.7543
6.02183
3.57685
2.08378
1.25387
0.854334
0.713665
406.699
384.117
358.432
330.155
300.071
268.956
237.559
206.58
176.657
148.353
122.145
98.4136
77.4314
59.3548
44.2157
31.9215
22.267
14.9589
9.64809
5.96501
3.54965
2.07257
1.25009
0.853298
0.71327
411.163
388.371
362.447
333.891
303.499
272.056
240.319
208.997
178.736
150.105
123.588
99.5708
78.3326
60.0335
44.7075
32.2628
22.4926
15.0996
9.73009
6.00889
3.57066
2.08125
1.25303
0.854116
0.713586
405.752
383.212
357.582
329.366
299.349
268.305
236.981
206.075
176.225
147.99
121.847
98.1748
77.2458
59.2153
44.1146
31.8513
22.2206
14.9297
9.63091
5.95563
3.54497
2.07046
1.24924
0.852981
0.71316
405.753
383.212
357.582
329.366
299.349
268.305
236.981
206.076
176.225
147.99
121.847
98.1749
77.2458
59.2153
44.1146
31.8513
22.2205
14.9297
9.63088
5.95559
3.54493
2.07044
1.24922
0.852964
0.713147
411.163
388.371
362.447
333.891
303.499
272.056
240.319
208.997
178.736
150.105
123.588
99.5708
78.3326
60.0334
44.7075
32.2628
22.4925
15.0996
9.73008
6.00887
3.57065
2.08123
1.25302
0.854108
0.713578
)
;

boundaryField
{
    outletCentralUnloaded
    {
        type            zeroGradient;
    }
    inletCentralUnloaded
    {
        type            zeroGradient;
    }
    outletFuelElement
    {
        type            zeroGradient;
    }
    inletFuelElement
    {
        type            zeroGradient;
    }
    defaultFaces
    {
        type            zeroGradient;
    }
    baffle_master
    {
        type            zeroGradient;
    }
    baffle_slave
    {
        type            zeroGradient;
    }
}


// ************************************************************************* //
