/*--------------------------------*- C++ -*----------------------------------*\
| =========                 |                                                 |
| \\      /  F ield         | OpenFOAM: The Open Source CFD Toolbox           |
|  \\    /   O peration     | Version:  2212                                  |
|   \\  /    A nd           | Website:  www.openfoam.com                      |
|    \\/     M anipulation  |                                                 |
\*---------------------------------------------------------------------------*/
FoamFile
{
    version     2.0;
    format      ascii;
    arch        "LSB;label=32;scalar=64";
    class       volTensorField;
    location    "57/fluidRegion";
    object      Kd;
}
// * * * * * * * * * * * * * * * * * * * * * * * * * * * * * * * * * * * * * //

dimensions      [1 -3 -1 0 0 0 0];

internalField   nonuniform List<tensor> 
350
(
(84.7436 0 0 0 84.7436 0 0 0 84.7436)
(84.7435 0 0 0 84.7435 0 0 0 84.7435)
(84.7429 0 0 0 84.7429 0 0 0 84.7429)
(84.7419 0 0 0 84.7419 0 0 0 84.7419)
(84.7404 0 0 0 84.7404 0 0 0 84.7404)
(84.7389 0 0 0 84.7389 0 0 0 84.7389)
(84.7374 0 0 0 84.7374 0 0 0 84.7374)
(84.7363 0 0 0 84.7363 0 0 0 84.7363)
(84.7356 0 0 0 84.7356 0 0 0 84.7356)
(84.7356 0 0 0 84.7356 0 0 0 84.7356)
(84.7362 0 0 0 84.7362 0 0 0 84.7362)
(84.7375 0 0 0 84.7375 0 0 0 84.7375)
(84.7394 0 0 0 84.7394 0 0 0 84.7394)
(84.7417 0 0 0 84.7417 0 0 0 84.7417)
(84.7443 0 0 0 84.7443 0 0 0 84.7443)
(84.747 0 0 0 84.747 0 0 0 84.747)
(84.7496 0 0 0 84.7496 0 0 0 84.7496)
(84.7518 0 0 0 84.7518 0 0 0 84.7518)
(84.7534 0 0 0 84.7534 0 0 0 84.7534)
(84.7542 0 0 0 84.7542 0 0 0 84.7542)
(84.754 0 0 0 84.754 0 0 0 84.754)
(84.7527 0 0 0 84.7527 0 0 0 84.7527)
(84.7505 0 0 0 84.7505 0 0 0 84.7505)
(84.7474 0 0 0 84.7474 0 0 0 84.7474)
(84.8757 0 0 0 84.8757 0 0 0 84.8757)
(84.7436 0 0 0 84.7436 0 0 0 84.7436)
(84.7435 0 0 0 84.7435 0 0 0 84.7435)
(84.7429 0 0 0 84.7429 0 0 0 84.7429)
(84.7419 0 0 0 84.7419 0 0 0 84.7419)
(84.7404 0 0 0 84.7404 0 0 0 84.7404)
(84.7389 0 0 0 84.7389 0 0 0 84.7389)
(84.7374 0 0 0 84.7374 0 0 0 84.7374)
(84.7363 0 0 0 84.7363 0 0 0 84.7363)
(84.7356 0 0 0 84.7356 0 0 0 84.7356)
(84.7356 0 0 0 84.7356 0 0 0 84.7356)
(84.7362 0 0 0 84.7362 0 0 0 84.7362)
(84.7375 0 0 0 84.7375 0 0 0 84.7375)
(84.7394 0 0 0 84.7394 0 0 0 84.7394)
(84.7417 0 0 0 84.7417 0 0 0 84.7417)
(84.7443 0 0 0 84.7443 0 0 0 84.7443)
(84.747 0 0 0 84.747 0 0 0 84.747)
(84.7496 0 0 0 84.7496 0 0 0 84.7496)
(84.7518 0 0 0 84.7518 0 0 0 84.7518)
(84.7534 0 0 0 84.7534 0 0 0 84.7534)
(84.7542 0 0 0 84.7542 0 0 0 84.7542)
(84.754 0 0 0 84.754 0 0 0 84.754)
(84.7527 0 0 0 84.7527 0 0 0 84.7527)
(84.7505 0 0 0 84.7505 0 0 0 84.7505)
(84.7474 0 0 0 84.7474 0 0 0 84.7474)
(84.8757 0 0 0 84.8757 0 0 0 84.8757)
(682.632 0 0 0 682.632 0 0 0 682.632)
(682.176 0 0 0 682.176 0 0 0 682.176)
(682.188 0 0 0 682.188 0 0 0 682.188)
(682.19 0 0 0 682.19 0 0 0 682.19)
(682.18 0 0 0 682.18 0 0 0 682.18)
(682.158 0 0 0 682.158 0 0 0 682.158)
(682.123 0 0 0 682.123 0 0 0 682.123)
(682.071 0 0 0 682.071 0 0 0 682.071)
(682.001 0 0 0 682.001 0 0 0 682.001)
(681.912 0 0 0 681.912 0 0 0 681.912)
(681.802 0 0 0 681.802 0 0 0 681.802)
(681.671 0 0 0 681.671 0 0 0 681.671)
(681.518 0 0 0 681.518 0 0 0 681.518)
(681.346 0 0 0 681.346 0 0 0 681.346)
(681.149 0 0 0 681.149 0 0 0 681.149)
(680.92 0 0 0 680.92 0 0 0 680.92)
(680.64 0 0 0 680.64 0 0 0 680.64)
(680.293 0 0 0 680.293 0 0 0 680.293)
(679.871 0 0 0 679.871 0 0 0 679.871)
(679.428 0 0 0 679.428 0 0 0 679.428)
(679.145 0 0 0 679.145 0 0 0 679.145)
(679.571 0 0 0 679.571 0 0 0 679.571)
(682.04 0 0 0 682.04 0 0 0 682.04)
(688.921 0 0 0 688.921 0 0 0 688.921)
(693.433 0 0 0 693.433 0 0 0 693.433)
(678.092 0 0 0 678.092 0 0 0 678.092)
(677.565 0 0 0 677.565 0 0 0 677.565)
(677.538 0 0 0 677.538 0 0 0 677.538)
(677.501 0 0 0 677.501 0 0 0 677.501)
(677.456 0 0 0 677.456 0 0 0 677.456)
(677.401 0 0 0 677.401 0 0 0 677.401)
(677.335 0 0 0 677.335 0 0 0 677.335)
(677.254 0 0 0 677.254 0 0 0 677.254)
(677.158 0 0 0 677.158 0 0 0 677.158)
(677.044 0 0 0 677.044 0 0 0 677.044)
(676.914 0 0 0 676.914 0 0 0 676.914)
(676.771 0 0 0 676.771 0 0 0 676.771)
(676.621 0 0 0 676.621 0 0 0 676.621)
(676.475 0 0 0 676.475 0 0 0 676.475)
(676.338 0 0 0 676.338 0 0 0 676.338)
(676.211 0 0 0 676.211 0 0 0 676.211)
(676.082 0 0 0 676.082 0 0 0 676.082)
(675.935 0 0 0 675.935 0 0 0 675.935)
(675.764 0 0 0 675.764 0 0 0 675.764)
(675.626 0 0 0 675.626 0 0 0 675.626)
(675.714 0 0 0 675.714 0 0 0 675.714)
(676.613 0 0 0 676.613 0 0 0 676.613)
(679.711 0 0 0 679.711 0 0 0 679.711)
(687.431 0 0 0 687.431 0 0 0 687.431)
(692.948 0 0 0 692.948 0 0 0 692.948)
(683.39 0 0 0 683.39 0 0 0 683.39)
(682.931 0 0 0 682.931 0 0 0 682.931)
(682.947 0 0 0 682.947 0 0 0 682.947)
(682.951 0 0 0 682.951 0 0 0 682.951)
(682.944 0 0 0 682.944 0 0 0 682.944)
(682.924 0 0 0 682.924 0 0 0 682.924)
(682.889 0 0 0 682.889 0 0 0 682.889)
(682.838 0 0 0 682.838 0 0 0 682.838)
(682.769 0 0 0 682.769 0 0 0 682.769)
(682.68 0 0 0 682.68 0 0 0 682.68)
(682.568 0 0 0 682.568 0 0 0 682.568)
(682.434 0 0 0 682.434 0 0 0 682.434)
(682.275 0 0 0 682.275 0 0 0 682.275)
(682.092 0 0 0 682.092 0 0 0 682.092)
(681.879 0 0 0 681.879 0 0 0 681.879)
(681.626 0 0 0 681.626 0 0 0 681.626)
(681.315 0 0 0 681.315 0 0 0 681.315)
(680.927 0 0 0 680.927 0 0 0 680.927)
(680.456 0 0 0 680.456 0 0 0 680.456)
(679.953 0 0 0 679.953 0 0 0 679.953)
(679.597 0 0 0 679.597 0 0 0 679.597)
(679.933 0 0 0 679.933 0 0 0 679.933)
(682.288 0 0 0 682.288 0 0 0 682.288)
(689.033 0 0 0 689.033 0 0 0 689.033)
(693.45 0 0 0 693.45 0 0 0 693.45)
(679.108 0 0 0 679.108 0 0 0 679.108)
(678.602 0 0 0 678.602 0 0 0 678.602)
(678.585 0 0 0 678.585 0 0 0 678.585)
(678.559 0 0 0 678.559 0 0 0 678.559)
(678.524 0 0 0 678.524 0 0 0 678.524)
(678.479 0 0 0 678.479 0 0 0 678.479)
(678.421 0 0 0 678.421 0 0 0 678.421)
(678.348 0 0 0 678.348 0 0 0 678.348)
(678.26 0 0 0 678.26 0 0 0 678.26)
(678.154 0 0 0 678.154 0 0 0 678.154)
(678.03 0 0 0 678.03 0 0 0 678.03)
(677.891 0 0 0 677.891 0 0 0 677.891)
(677.743 0 0 0 677.743 0 0 0 677.743)
(677.592 0 0 0 677.592 0 0 0 677.592)
(677.443 0 0 0 677.443 0 0 0 677.443)
(677.295 0 0 0 677.295 0 0 0 677.295)
(677.133 0 0 0 677.133 0 0 0 677.133)
(676.942 0 0 0 676.942 0 0 0 676.942)
(676.715 0 0 0 676.715 0 0 0 676.715)
(676.508 0 0 0 676.508 0 0 0 676.508)
(676.513 0 0 0 676.513 0 0 0 676.513)
(677.306 0 0 0 677.306 0 0 0 677.306)
(680.261 0 0 0 680.261 0 0 0 680.261)
(687.79 0 0 0 687.79 0 0 0 687.79)
(693.068 0 0 0 693.068 0 0 0 693.068)
(679.108 0 0 0 679.108 0 0 0 679.108)
(678.602 0 0 0 678.602 0 0 0 678.602)
(678.585 0 0 0 678.585 0 0 0 678.585)
(678.559 0 0 0 678.559 0 0 0 678.559)
(678.524 0 0 0 678.524 0 0 0 678.524)
(678.479 0 0 0 678.479 0 0 0 678.479)
(678.421 0 0 0 678.421 0 0 0 678.421)
(678.348 0 0 0 678.348 0 0 0 678.348)
(678.26 0 0 0 678.26 0 0 0 678.26)
(678.154 0 0 0 678.154 0 0 0 678.154)
(678.03 0 0 0 678.03 0 0 0 678.03)
(677.891 0 0 0 677.891 0 0 0 677.891)
(677.743 0 0 0 677.743 0 0 0 677.743)
(677.592 0 0 0 677.592 0 0 0 677.592)
(677.443 0 0 0 677.443 0 0 0 677.443)
(677.295 0 0 0 677.295 0 0 0 677.295)
(677.133 0 0 0 677.133 0 0 0 677.133)
(676.942 0 0 0 676.942 0 0 0 676.942)
(676.715 0 0 0 676.715 0 0 0 676.715)
(676.508 0 0 0 676.508 0 0 0 676.508)
(676.513 0 0 0 676.513 0 0 0 676.513)
(677.306 0 0 0 677.306 0 0 0 677.306)
(680.261 0 0 0 680.261 0 0 0 680.261)
(687.79 0 0 0 687.79 0 0 0 687.79)
(693.068 0 0 0 693.068 0 0 0 693.068)
(683.39 0 0 0 683.39 0 0 0 683.39)
(682.931 0 0 0 682.931 0 0 0 682.931)
(682.946 0 0 0 682.946 0 0 0 682.946)
(682.951 0 0 0 682.951 0 0 0 682.951)
(682.944 0 0 0 682.944 0 0 0 682.944)
(682.924 0 0 0 682.924 0 0 0 682.924)
(682.889 0 0 0 682.889 0 0 0 682.889)
(682.838 0 0 0 682.838 0 0 0 682.838)
(682.769 0 0 0 682.769 0 0 0 682.769)
(682.68 0 0 0 682.68 0 0 0 682.68)
(682.568 0 0 0 682.568 0 0 0 682.568)
(682.434 0 0 0 682.434 0 0 0 682.434)
(682.275 0 0 0 682.275 0 0 0 682.275)
(682.092 0 0 0 682.092 0 0 0 682.092)
(681.879 0 0 0 681.879 0 0 0 681.879)
(681.625 0 0 0 681.625 0 0 0 681.625)
(681.314 0 0 0 681.314 0 0 0 681.314)
(680.926 0 0 0 680.926 0 0 0 680.926)
(680.455 0 0 0 680.455 0 0 0 680.455)
(679.952 0 0 0 679.952 0 0 0 679.952)
(679.596 0 0 0 679.596 0 0 0 679.596)
(679.932 0 0 0 679.932 0 0 0 679.932)
(682.286 0 0 0 682.286 0 0 0 682.286)
(689.031 0 0 0 689.031 0 0 0 689.031)
(693.449 0 0 0 693.449 0 0 0 693.449)
(678.092 0 0 0 678.092 0 0 0 678.092)
(677.565 0 0 0 677.565 0 0 0 677.565)
(677.538 0 0 0 677.538 0 0 0 677.538)
(677.501 0 0 0 677.501 0 0 0 677.501)
(677.456 0 0 0 677.456 0 0 0 677.456)
(677.401 0 0 0 677.401 0 0 0 677.401)
(677.335 0 0 0 677.335 0 0 0 677.335)
(677.254 0 0 0 677.254 0 0 0 677.254)
(677.158 0 0 0 677.158 0 0 0 677.158)
(677.044 0 0 0 677.044 0 0 0 677.044)
(676.914 0 0 0 676.914 0 0 0 676.914)
(676.771 0 0 0 676.771 0 0 0 676.771)
(676.621 0 0 0 676.621 0 0 0 676.621)
(676.475 0 0 0 676.475 0 0 0 676.475)
(676.338 0 0 0 676.338 0 0 0 676.338)
(676.211 0 0 0 676.211 0 0 0 676.211)
(676.082 0 0 0 676.082 0 0 0 676.082)
(675.935 0 0 0 675.935 0 0 0 675.935)
(675.764 0 0 0 675.764 0 0 0 675.764)
(675.626 0 0 0 675.626 0 0 0 675.626)
(675.714 0 0 0 675.714 0 0 0 675.714)
(676.613 0 0 0 676.613 0 0 0 676.613)
(679.71 0 0 0 679.71 0 0 0 679.71)
(687.431 0 0 0 687.431 0 0 0 687.431)
(692.948 0 0 0 692.948 0 0 0 692.948)
(682.632 0 0 0 682.632 0 0 0 682.632)
(682.176 0 0 0 682.176 0 0 0 682.176)
(682.188 0 0 0 682.188 0 0 0 682.188)
(682.19 0 0 0 682.19 0 0 0 682.19)
(682.18 0 0 0 682.18 0 0 0 682.18)
(682.158 0 0 0 682.158 0 0 0 682.158)
(682.123 0 0 0 682.123 0 0 0 682.123)
(682.071 0 0 0 682.071 0 0 0 682.071)
(682.001 0 0 0 682.001 0 0 0 682.001)
(681.912 0 0 0 681.912 0 0 0 681.912)
(681.802 0 0 0 681.802 0 0 0 681.802)
(681.671 0 0 0 681.671 0 0 0 681.671)
(681.518 0 0 0 681.518 0 0 0 681.518)
(681.346 0 0 0 681.346 0 0 0 681.346)
(681.149 0 0 0 681.149 0 0 0 681.149)
(680.92 0 0 0 680.92 0 0 0 680.92)
(680.64 0 0 0 680.64 0 0 0 680.64)
(680.293 0 0 0 680.293 0 0 0 680.293)
(679.871 0 0 0 679.871 0 0 0 679.871)
(679.428 0 0 0 679.428 0 0 0 679.428)
(679.144 0 0 0 679.144 0 0 0 679.144)
(679.571 0 0 0 679.571 0 0 0 679.571)
(682.04 0 0 0 682.04 0 0 0 682.04)
(688.921 0 0 0 688.921 0 0 0 688.921)
(693.432 0 0 0 693.432 0 0 0 693.432)
(679.108 0 0 0 679.108 0 0 0 679.108)
(678.602 0 0 0 678.602 0 0 0 678.602)
(678.585 0 0 0 678.585 0 0 0 678.585)
(678.559 0 0 0 678.559 0 0 0 678.559)
(678.524 0 0 0 678.524 0 0 0 678.524)
(678.479 0 0 0 678.479 0 0 0 678.479)
(678.421 0 0 0 678.421 0 0 0 678.421)
(678.348 0 0 0 678.348 0 0 0 678.348)
(678.26 0 0 0 678.26 0 0 0 678.26)
(678.154 0 0 0 678.154 0 0 0 678.154)
(678.03 0 0 0 678.03 0 0 0 678.03)
(677.891 0 0 0 677.891 0 0 0 677.891)
(677.743 0 0 0 677.743 0 0 0 677.743)
(677.592 0 0 0 677.592 0 0 0 677.592)
(677.443 0 0 0 677.443 0 0 0 677.443)
(677.295 0 0 0 677.295 0 0 0 677.295)
(677.133 0 0 0 677.133 0 0 0 677.133)
(676.942 0 0 0 676.942 0 0 0 676.942)
(676.715 0 0 0 676.715 0 0 0 676.715)
(676.508 0 0 0 676.508 0 0 0 676.508)
(676.513 0 0 0 676.513 0 0 0 676.513)
(677.306 0 0 0 677.306 0 0 0 677.306)
(680.261 0 0 0 680.261 0 0 0 680.261)
(687.79 0 0 0 687.79 0 0 0 687.79)
(693.068 0 0 0 693.068 0 0 0 693.068)
(683.39 0 0 0 683.39 0 0 0 683.39)
(682.931 0 0 0 682.931 0 0 0 682.931)
(682.947 0 0 0 682.947 0 0 0 682.947)
(682.951 0 0 0 682.951 0 0 0 682.951)
(682.944 0 0 0 682.944 0 0 0 682.944)
(682.924 0 0 0 682.924 0 0 0 682.924)
(682.889 0 0 0 682.889 0 0 0 682.889)
(682.838 0 0 0 682.838 0 0 0 682.838)
(682.769 0 0 0 682.769 0 0 0 682.769)
(682.68 0 0 0 682.68 0 0 0 682.68)
(682.568 0 0 0 682.568 0 0 0 682.568)
(682.434 0 0 0 682.434 0 0 0 682.434)
(682.275 0 0 0 682.275 0 0 0 682.275)
(682.092 0 0 0 682.092 0 0 0 682.092)
(681.879 0 0 0 681.879 0 0 0 681.879)
(681.626 0 0 0 681.626 0 0 0 681.626)
(681.315 0 0 0 681.315 0 0 0 681.315)
(680.927 0 0 0 680.927 0 0 0 680.927)
(680.456 0 0 0 680.456 0 0 0 680.456)
(679.953 0 0 0 679.953 0 0 0 679.953)
(679.597 0 0 0 679.597 0 0 0 679.597)
(679.933 0 0 0 679.933 0 0 0 679.933)
(682.288 0 0 0 682.288 0 0 0 682.288)
(689.034 0 0 0 689.034 0 0 0 689.034)
(693.45 0 0 0 693.45 0 0 0 693.45)
(683.39 0 0 0 683.39 0 0 0 683.39)
(682.931 0 0 0 682.931 0 0 0 682.931)
(682.946 0 0 0 682.946 0 0 0 682.946)
(682.951 0 0 0 682.951 0 0 0 682.951)
(682.944 0 0 0 682.944 0 0 0 682.944)
(682.924 0 0 0 682.924 0 0 0 682.924)
(682.889 0 0 0 682.889 0 0 0 682.889)
(682.838 0 0 0 682.838 0 0 0 682.838)
(682.769 0 0 0 682.769 0 0 0 682.769)
(682.68 0 0 0 682.68 0 0 0 682.68)
(682.568 0 0 0 682.568 0 0 0 682.568)
(682.434 0 0 0 682.434 0 0 0 682.434)
(682.275 0 0 0 682.275 0 0 0 682.275)
(682.092 0 0 0 682.092 0 0 0 682.092)
(681.879 0 0 0 681.879 0 0 0 681.879)
(681.625 0 0 0 681.625 0 0 0 681.625)
(681.314 0 0 0 681.314 0 0 0 681.314)
(680.926 0 0 0 680.926 0 0 0 680.926)
(680.455 0 0 0 680.455 0 0 0 680.455)
(679.952 0 0 0 679.952 0 0 0 679.952)
(679.596 0 0 0 679.596 0 0 0 679.596)
(679.932 0 0 0 679.932 0 0 0 679.932)
(682.286 0 0 0 682.286 0 0 0 682.286)
(689.031 0 0 0 689.031 0 0 0 689.031)
(693.449 0 0 0 693.449 0 0 0 693.449)
(679.108 0 0 0 679.108 0 0 0 679.108)
(678.602 0 0 0 678.602 0 0 0 678.602)
(678.585 0 0 0 678.585 0 0 0 678.585)
(678.559 0 0 0 678.559 0 0 0 678.559)
(678.524 0 0 0 678.524 0 0 0 678.524)
(678.479 0 0 0 678.479 0 0 0 678.479)
(678.421 0 0 0 678.421 0 0 0 678.421)
(678.348 0 0 0 678.348 0 0 0 678.348)
(678.26 0 0 0 678.26 0 0 0 678.26)
(678.154 0 0 0 678.154 0 0 0 678.154)
(678.03 0 0 0 678.03 0 0 0 678.03)
(677.891 0 0 0 677.891 0 0 0 677.891)
(677.743 0 0 0 677.743 0 0 0 677.743)
(677.592 0 0 0 677.592 0 0 0 677.592)
(677.443 0 0 0 677.443 0 0 0 677.443)
(677.295 0 0 0 677.295 0 0 0 677.295)
(677.133 0 0 0 677.133 0 0 0 677.133)
(676.942 0 0 0 676.942 0 0 0 676.942)
(676.715 0 0 0 676.715 0 0 0 676.715)
(676.508 0 0 0 676.508 0 0 0 676.508)
(676.513 0 0 0 676.513 0 0 0 676.513)
(677.305 0 0 0 677.305 0 0 0 677.305)
(680.26 0 0 0 680.26 0 0 0 680.26)
(687.79 0 0 0 687.79 0 0 0 687.79)
(693.068 0 0 0 693.068 0 0 0 693.068)
)
;

boundaryField
{
    outletCentralUnloaded
    {
        type            zeroGradient;
    }
    inletCentralUnloaded
    {
        type            zeroGradient;
    }
    outletFuelElement
    {
        type            zeroGradient;
    }
    inletFuelElement
    {
        type            zeroGradient;
    }
    defaultFaces
    {
        type            zeroGradient;
    }
    baffle_master
    {
        type            zeroGradient;
    }
    baffle_slave
    {
        type            zeroGradient;
    }
}


// ************************************************************************* //
