/*--------------------------------*- C++ -*----------------------------------*\
| =========                 |                                                 |
| \\      /  F ield         | OpenFOAM: The Open Source CFD Toolbox           |
|  \\    /   O peration     | Version:  2212                                  |
|   \\  /    A nd           | Website:  www.openfoam.com                      |
|    \\/     M anipulation  |                                                 |
\*---------------------------------------------------------------------------*/
FoamFile
{
    version     2.0;
    format      ascii;
    arch        "LSB;label=32;scalar=64";
    class       volScalarField;
    location    "57/fluidRegion";
    object      Re;
}
// * * * * * * * * * * * * * * * * * * * * * * * * * * * * * * * * * * * * * //

dimensions      [0 0 0 0 0 0 0];

internalField   nonuniform List<scalar> 
350
(
174037
174036
174035
174032
174028
174024
174020
174017
174015
174015
174016
174020
174025
174031
174039
174046
174053
174059
174063
174066
174065
174062
174056
174047
174399
174037
174036
174035
174032
174028
174024
174020
174017
174015
174015
174016
174020
174025
174031
174039
174046
174053
174059
174063
174066
174065
174062
174056
174047
174399
55429.6
55380.4
55381.6
55381.8
55380.8
55378.4
55374.5
55368.9
55361.4
55351.8
55339.9
55325.6
55309.1
55290.4
55269.2
55244.3
55214.1
55176.6
55130.9
55083.1
55052.4
55098.5
55365.6
56111.6
56602.1
54938.7
54881.8
54878.9
54874.9
54870
54864.1
54856.9
54848.2
54837.8
54825.5
54811.5
54796
54779.9
54764
54749.3
54735.5
54721.7
54705.8
54687.3
54672.4
54682
54779
55113.6
55949.9
56549.3
55511.7
55462.1
55463.7
55464.2
55463.5
55461.3
55457.5
55452
55444.5
55434.9
55422.8
55408.2
55391.1
55371.2
55348.2
55320.8
55287.1
55245.1
55194.2
55139.9
55101.4
55137.7
55392.4
56123.7
56603.9
55048.4
54993.7
54991.9
54989.2
54985.4
54980.4
54974.2
54966.4
54956.8
54945.4
54932
54917
54901
54884.7
54868.6
54852.6
54835.1
54814.5
54790
54767.7
54768.2
54853.8
55173.1
55988.8
56562.4
55048.4
54993.7
54991.9
54989.2
54985.4
54980.4
54974.2
54966.4
54956.8
54945.4
54932
54917
54901
54884.7
54868.6
54852.6
54835.1
54814.5
54790
54767.7
54768.2
54853.8
55173.1
55988.8
56562.4
55511.7
55462
55463.7
55464.2
55463.4
55461.3
55457.5
55452
55444.5
55434.8
55422.8
55408.2
55391
55371.2
55348.1
55320.7
55287
55245.1
55194.1
55139.8
55101.2
55137.5
55392.3
56123.6
56603.9
54938.7
54881.8
54878.9
54874.9
54870
54864.1
54856.9
54848.2
54837.8
54825.5
54811.5
54796
54779.9
54764
54749.3
54735.5
54721.7
54705.8
54687.3
54672.4
54682
54779
55113.6
55949.9
56549.3
55429.6
55380.4
55381.6
55381.8
55380.8
55378.4
55374.5
55368.9
55361.4
55351.8
55339.9
55325.6
55309.1
55290.4
55269.2
55244.3
55214.1
55176.6
55130.9
55083.1
55052.4
55098.5
55365.6
56111.6
56602.1
55048.4
54993.7
54991.9
54989.2
54985.4
54980.4
54974.2
54966.4
54956.8
54945.4
54932
54917
54901
54884.7
54868.6
54852.6
54835.1
54814.5
54790
54767.7
54768.2
54853.8
55173.1
55988.8
56562.4
55511.7
55462.1
55463.7
55464.2
55463.5
55461.3
55457.5
55452
55444.5
55434.9
55422.8
55408.2
55391.1
55371.2
55348.2
55320.8
55287.1
55245.1
55194.2
55139.9
55101.4
55137.7
55392.4
56123.8
56604
55511.7
55462
55463.7
55464.2
55463.4
55461.3
55457.5
55452
55444.5
55434.8
55422.8
55408.2
55391
55371.2
55348.1
55320.7
55287
55245.1
55194.1
55139.8
55101.2
55137.5
55392.3
56123.6
56603.9
55048.4
54993.7
54992
54989.2
54985.4
54980.5
54974.2
54966.4
54956.8
54945.4
54932
54917
54901
54884.7
54868.6
54852.6
54835.1
54814.5
54790
54767.7
54768.2
54853.7
55173.1
55988.8
56562.4
)
;

boundaryField
{
    outletCentralUnloaded
    {
        type            zeroGradient;
    }
    inletCentralUnloaded
    {
        type            zeroGradient;
    }
    outletFuelElement
    {
        type            zeroGradient;
    }
    inletFuelElement
    {
        type            zeroGradient;
    }
    defaultFaces
    {
        type            zeroGradient;
    }
    baffle_master
    {
        type            zeroGradient;
    }
    baffle_slave
    {
        type            zeroGradient;
    }
}


// ************************************************************************* //
