/*--------------------------------*- C++ -*----------------------------------*\
| =========                 |                                                 |
| \\      /  F ield         | OpenFOAM: The Open Source CFD Toolbox           |
|  \\    /   O peration     | Version:  2212                                  |
|   \\  /    A nd           | Website:  www.openfoam.com                      |
|    \\/     M anipulation  |                                                 |
\*---------------------------------------------------------------------------*/
FoamFile
{
    version     2.0;
    format      ascii;
    arch        "LSB;label=32;scalar=64";
    class       volScalarField;
    location    "57/fluidRegion";
    object      T.cladAvForNeutronics;
}
// * * * * * * * * * * * * * * * * * * * * * * * * * * * * * * * * * * * * * //

dimensions      [0 0 0 1 0 0 0];

internalField   nonuniform List<scalar> 
350
(
0
0
0
0
0
0
0
0
0
0
0
0
0
0
0
0
0
0
0
0
0
0
0
0
0
0
0
0
0
0
0
0
0
0
0
0
0
0
0
0
0
0
0
0
0
0
0
0
0
0
1845.32
1883.43
1908.61
1920.83
1920.23
1907.09
1881.82
1844.99
1797.31
1739.64
1672.94
1598.32
1516.99
1430.31
1339.69
1246.62
1152.47
1058.31
964.542
870.336
772.778
665.574
537.977
377.889
186.923
1873.76
1912.49
1938.05
1950.43
1949.77
1936.33
1910.55
1873.01
1824.42
1765.65
1697.69
1621.66
1538.79
1450.45
1358.08
1263.2
1167.23
1071.29
975.848
880.111
781.164
672.629
543.543
381.506
188.146
1840.7
1878.74
1903.87
1916.09
1915.52
1902.44
1877.26
1840.56
1793.05
1735.56
1669.07
1594.68
1513.61
1427.19
1336.86
1244.07
1150.21
1056.33
962.82
868.853
771.513
664.521
537.158
377.361
186.737
1867.36
1905.94
1931.39
1943.73
1943.06
1929.68
1904
1866.61
1818.22
1759.69
1692.01
1616.3
1533.78
1445.81
1353.84
1259.37
1163.82
1068.29
973.234
877.85
779.224
670.995
542.253
380.666
187.863
1867.36
1905.94
1931.39
1943.73
1943.06
1929.68
1904
1866.61
1818.22
1759.69
1692.01
1616.3
1533.78
1445.81
1353.84
1259.37
1163.82
1068.29
973.234
877.85
779.224
670.995
542.253
380.666
187.863
1840.7
1878.74
1903.87
1916.09
1915.52
1902.44
1877.26
1840.56
1793.05
1735.56
1669.07
1594.68
1513.61
1427.19
1336.86
1244.07
1150.21
1056.33
962.82
868.853
771.514
664.522
537.159
377.362
186.737
1873.76
1912.49
1938.05
1950.43
1949.77
1936.33
1910.55
1873.01
1824.42
1765.65
1697.69
1621.66
1538.79
1450.45
1358.08
1263.2
1167.23
1071.29
975.848
880.111
781.164
672.629
543.543
381.506
188.146
1845.32
1883.43
1908.61
1920.83
1920.23
1907.09
1881.82
1844.99
1797.31
1739.64
1672.94
1598.32
1516.99
1430.31
1339.69
1246.62
1152.47
1058.31
964.542
870.336
772.778
665.574
537.977
377.889
186.923
1867.36
1905.94
1931.39
1943.73
1943.06
1929.68
1904
1866.61
1818.22
1759.69
1692.01
1616.3
1533.78
1445.81
1353.84
1259.37
1163.82
1068.29
973.234
877.85
779.224
670.995
542.253
380.666
187.863
1840.7
1878.74
1903.87
1916.09
1915.52
1902.44
1877.26
1840.56
1793.05
1735.56
1669.07
1594.68
1513.61
1427.19
1336.86
1244.07
1150.21
1056.33
962.82
868.853
771.513
664.521
537.158
377.361
186.737
1840.7
1878.74
1903.87
1916.09
1915.52
1902.44
1877.26
1840.56
1793.05
1735.56
1669.07
1594.68
1513.61
1427.19
1336.86
1244.07
1150.21
1056.33
962.82
868.853
771.514
664.522
537.159
377.362
186.737
1867.36
1905.94
1931.39
1943.73
1943.06
1929.68
1904
1866.61
1818.22
1759.69
1692.01
1616.29
1533.78
1445.81
1353.84
1259.37
1163.82
1068.29
973.234
877.85
779.224
670.995
542.253
380.666
187.863
)
;

boundaryField
{
    outletCentralUnloaded
    {
        type            zeroGradient;
    }
    inletCentralUnloaded
    {
        type            zeroGradient;
    }
    outletFuelElement
    {
        type            zeroGradient;
    }
    inletFuelElement
    {
        type            zeroGradient;
    }
    defaultFaces
    {
        type            zeroGradient;
    }
    baffle_master
    {
        type            zeroGradient;
    }
    baffle_slave
    {
        type            zeroGradient;
    }
}


// ************************************************************************* //
