/*--------------------------------*- C++ -*----------------------------------*\
| =========                 |                                                 |
| \\      /  F ield         | OpenFOAM: The Open Source CFD Toolbox           |
|  \\    /   O peration     | Version:  2212                                  |
|   \\  /    A nd           | Website:  www.openfoam.com                      |
|    \\/     M anipulation  |                                                 |
\*---------------------------------------------------------------------------*/
FoamFile
{
    version     2.0;
    format      ascii;
    arch        "LSB;label=32;scalar=64";
    class       volScalarField;
    location    "57/fluidRegion";
    object      T.fuelAvForNeutronics;
}
// * * * * * * * * * * * * * * * * * * * * * * * * * * * * * * * * * * * * * //

dimensions      [0 0 0 1 0 0 0];

internalField   nonuniform List<scalar> 
350
(
0
0
0
0
0
0
0
0
0
0
0
0
0
0
0
0
0
0
0
0
0
0
0
0
0
0
0
0
0
0
0
0
0
0
0
0
0
0
0
0
0
0
0
0
0
0
0
0
0
0
2220.63
3007.7
3764.07
4478.2
5139.14
5736.75
6261.81
6706.22
7063.09
7326.9
7493.54
7560.46
7526.62
7392.64
7160.68
6834.44
6419
5920.46
5345.61
4701.24
3993.07
3224.48
2395.12
1504.03
564.459
2253.34
3049.61
3814.74
4537.07
5205.53
5809.84
6340.7
6789.9
7150.5
7416.89
7584.95
7652.08
7617.25
7481.06
7245.73
6915.02
6494.07
5989.13
5407.09
4754.89
4038.34
3260.85
2421.95
1520.55
570.003
2215.33
3000.96
3755.95
4468.79
5128.56
5725.12
6249.27
6692.93
7049.22
7312.63
7479.06
7545.95
7512.28
7378.65
7147.23
6821.71
6407.13
5909.61
5335.89
4692.77
3985.93
3218.76
2390.91
1501.45
563.584
2245.96
3040.1
3803.2
4523.62
5190.34
5793.09
6322.6
6770.69
7130.41
7396.2
7563.93
7631
7596.39
7460.7
7226.15
6896.46
6476.78
5973.31
5392.93
4742.53
4027.91
3252.47
2415.77
1516.74
568.725
2245.96
3040.1
3803.2
4523.62
5190.34
5793.09
6322.6
6770.69
7130.41
7396.2
7563.93
7631
7596.39
7460.7
7226.15
6896.46
6476.78
5973.31
5392.93
4742.53
4027.91
3252.47
2415.77
1516.74
568.725
2215.33
3000.96
3755.95
4468.79
5128.56
5725.12
6249.27
6692.93
7049.22
7312.63
7479.06
7545.95
7512.28
7378.65
7147.23
6821.71
6407.13
5909.61
5335.89
4692.77
3985.93
3218.77
2390.91
1501.45
563.585
2253.34
3049.61
3814.74
4537.07
5205.53
5809.84
6340.7
6789.9
7150.5
7416.89
7584.95
7652.08
7617.25
7481.06
7245.73
6915.02
6494.07
5989.13
5407.09
4754.89
4038.34
3260.85
2421.95
1520.55
570.003
2220.63
3007.7
3764.07
4478.2
5139.14
5736.75
6261.81
6706.22
7063.09
7326.9
7493.54
7560.45
7526.62
7392.64
7160.68
6834.44
6419
5920.46
5345.61
4701.24
3993.07
3224.48
2395.12
1504.03
564.459
2245.96
3040.1
3803.2
4523.62
5190.34
5793.09
6322.6
6770.69
7130.41
7396.2
7563.93
7631
7596.39
7460.7
7226.15
6896.46
6476.78
5973.31
5392.93
4742.53
4027.91
3252.47
2415.77
1516.74
568.725
2215.33
3000.96
3755.95
4468.79
5128.56
5725.12
6249.27
6692.93
7049.22
7312.63
7479.06
7545.95
7512.28
7378.65
7147.23
6821.71
6407.13
5909.61
5335.89
4692.77
3985.93
3218.76
2390.91
1501.45
563.584
2215.33
3000.96
3755.95
4468.79
5128.56
5725.12
6249.27
6692.93
7049.22
7312.63
7479.06
7545.95
7512.28
7378.65
7147.23
6821.71
6407.13
5909.61
5335.89
4692.77
3985.93
3218.76
2390.91
1501.45
563.584
2245.96
3040.1
3803.2
4523.62
5190.34
5793.09
6322.6
6770.69
7130.41
7396.2
7563.93
7631
7596.39
7460.7
7226.15
6896.46
6476.78
5973.31
5392.93
4742.53
4027.91
3252.47
2415.77
1516.74
568.725
)
;

boundaryField
{
    outletCentralUnloaded
    {
        type            zeroGradient;
    }
    inletCentralUnloaded
    {
        type            zeroGradient;
    }
    outletFuelElement
    {
        type            zeroGradient;
    }
    inletFuelElement
    {
        type            zeroGradient;
    }
    defaultFaces
    {
        type            zeroGradient;
    }
    baffle_master
    {
        type            zeroGradient;
    }
    baffle_slave
    {
        type            zeroGradient;
    }
}


// ************************************************************************* //
