/*--------------------------------*- C++ -*----------------------------------*\
| =========                 |                                                 |
| \\      /  F ield         | OpenFOAM: The Open Source CFD Toolbox           |
|  \\    /   O peration     | Version:  2212                                  |
|   \\  /    A nd           | Website:  www.openfoam.com                      |
|    \\/     M anipulation  |                                                 |
\*---------------------------------------------------------------------------*/
FoamFile
{
    version     2.0;
    format      ascii;
    arch        "LSB;label=32;scalar=64";
    class       volScalarField;
    location    "57/fluidRegion";
    object      Tco.nuclearFuelPin;
}
// * * * * * * * * * * * * * * * * * * * * * * * * * * * * * * * * * * * * * //

dimensions      [0 0 0 1 0 0 0];

internalField   nonuniform List<scalar> 
350
(
0
0
0
0
0
0
0
0
0
0
0
0
0
0
0
0
0
0
0
0
0
0
0
0
0
0
0
0
0
0
0
0
0
0
0
0
0
0
0
0
0
0
0
0
0
0
0
0
0
0
1839.64
1866.43
1880.55
1882.17
1871.57
1849.19
1815.59
1771.49
1717.7
1655.16
1584.94
1508.17
1426.13
1340.16
1251.69
1162.14
1072.85
984.801
898.304
812.416
724.09
626.885
509.898
360.862
181.216
1868.02
1895.29
1909.67
1911.33
1900.54
1877.77
1843.57
1798.67
1743.89
1680.21
1608.68
1530.48
1446.89
1359.27
1269.06
1177.75
1086.69
996.938
908.851
821.528
731.918
633.497
515.143
364.285
182.373
1835.03
1861.77
1875.86
1877.49
1866.94
1844.64
1811.16
1767.2
1713.58
1651.24
1581.23
1504.7
1422.91
1337.21
1249.01
1159.74
1070.73
982.951
896.702
811.038
722.914
625.903
509.131
360.366
181.04
1861.64
1888.79
1903.09
1904.72
1893.96
1871.26
1837.19
1792.46
1737.9
1674.47
1603.23
1525.36
1442.11
1354.87
1265.06
1174.14
1083.49
994.132
906.412
819.419
730.106
631.965
513.927
363.49
182.105
1861.64
1888.79
1903.09
1904.72
1893.96
1871.26
1837.19
1792.46
1737.9
1674.47
1603.23
1525.36
1442.11
1354.87
1265.06
1174.14
1083.49
994.132
906.412
819.419
730.106
631.965
513.927
363.49
182.105
1835.03
1861.77
1875.86
1877.49
1866.94
1844.64
1811.16
1767.2
1713.58
1651.24
1581.23
1504.7
1422.91
1337.21
1249.01
1159.74
1070.73
982.952
896.703
811.039
722.915
625.904
509.131
360.367
181.04
1868.02
1895.29
1909.67
1911.33
1900.54
1877.77
1843.57
1798.67
1743.89
1680.21
1608.68
1530.48
1446.89
1359.27
1269.06
1177.75
1086.69
996.938
908.851
821.528
731.918
633.497
515.143
364.285
182.373
1839.64
1866.43
1880.55
1882.17
1871.57
1849.19
1815.59
1771.49
1717.7
1655.16
1584.94
1508.17
1426.13
1340.16
1251.69
1162.14
1072.85
984.801
898.304
812.416
724.09
626.885
509.898
360.862
181.216
1861.64
1888.79
1903.09
1904.72
1893.96
1871.26
1837.19
1792.46
1737.9
1674.47
1603.23
1525.36
1442.11
1354.87
1265.06
1174.14
1083.49
994.132
906.412
819.419
730.106
631.965
513.927
363.49
182.105
1835.03
1861.77
1875.86
1877.49
1866.94
1844.64
1811.16
1767.2
1713.58
1651.24
1581.23
1504.7
1422.91
1337.21
1249.01
1159.74
1070.73
982.951
896.703
811.038
722.914
625.903
509.131
360.366
181.04
1835.03
1861.77
1875.86
1877.49
1866.94
1844.64
1811.16
1767.2
1713.58
1651.24
1581.23
1504.7
1422.91
1337.21
1249.01
1159.74
1070.73
982.952
896.703
811.039
722.915
625.904
509.131
360.367
181.04
1861.63
1888.79
1903.09
1904.72
1893.96
1871.26
1837.19
1792.46
1737.9
1674.47
1603.23
1525.36
1442.11
1354.87
1265.06
1174.14
1083.49
994.132
906.412
819.419
730.106
631.965
513.927
363.49
182.105
)
;

boundaryField
{
    outletCentralUnloaded
    {
        type            zeroGradient;
    }
    inletCentralUnloaded
    {
        type            zeroGradient;
    }
    outletFuelElement
    {
        type            zeroGradient;
    }
    inletFuelElement
    {
        type            zeroGradient;
    }
    defaultFaces
    {
        type            zeroGradient;
    }
    baffle_master
    {
        type            zeroGradient;
    }
    baffle_slave
    {
        type            zeroGradient;
    }
}


// ************************************************************************* //
