/*--------------------------------*- C++ -*----------------------------------*\
| =========                 |                                                 |
| \\      /  F ield         | OpenFOAM: The Open Source CFD Toolbox           |
|  \\    /   O peration     | Version:  2212                                  |
|   \\  /    A nd           | Website:  www.openfoam.com                      |
|    \\/     M anipulation  |                                                 |
\*---------------------------------------------------------------------------*/
FoamFile
{
    version     2.0;
    format      ascii;
    arch        "LSB;label=32;scalar=64";
    class       volScalarField;
    location    "57/fluidRegion";
    object      Tfi.nuclearFuelPin;
}
// * * * * * * * * * * * * * * * * * * * * * * * * * * * * * * * * * * * * * //

dimensions      [0 0 0 1 0 0 0];

internalField   nonuniform List<scalar> 
350
(
0
0
0
0
0
0
0
0
0
0
0
0
0
0
0
0
0
0
0
0
0
0
0
0
0
0
0
0
0
0
0
0
0
0
0
0
0
0
0
0
0
0
0
0
0
0
0
0
0
0
2421.52
3609.96
4758.18
5848.46
6863.94
7788.86
8608.85
9311.15
9884.83
10320.9
10612.6
10755.4
10747
10587.7
10280
9828.85
9241.23
8526.01
7693.34
6754.16
5718.77
4595.76
3390.32
2107.52
766.794
2456.51
3658.75
4820.22
5923.01
6950.06
7885.44
8714.6
9424.66
10004.5
10445.2
10739.8
10883.6
10874.5
10712.7
10400.8
9943.72
9348.63
8624.52
7781.72
6831.32
5783.8
4647.83
3428.55
2130.95
774.655
2415.85
3602.12
4748.24
5836.56
6850.21
7773.48
8592.03
9293.11
9865.82
10301.2
10592.5
10735.1
10726.8
10567.9
10260.9
9810.65
9224.21
8510.4
7679.35
6741.94
5708.48
4587.53
3384.3
2103.84
765.551
2448.61
3647.65
4806.06
5905.96
6930.33
7863.28
8690.32
9398.58
9977.03
10416.6
10710.5
10854.1
10845.2
10684
10373
9917.27
9323.89
8601.83
7761.36
6813.55
5768.82
4635.83
3419.74
2125.55
772.844
2448.61
3647.65
4806.06
5905.96
6930.33
7863.28
8690.32
9398.58
9977.03
10416.6
10710.5
10854.1
10845.2
10684
10373
9917.27
9323.89
8601.83
7761.36
6813.55
5768.82
4635.83
3419.74
2125.55
772.844
2415.86
3602.12
4748.25
5836.56
6850.21
7773.48
8592.03
9293.11
9865.82
10301.2
10592.5
10735.1
10726.8
10567.9
10260.9
9810.65
9224.22
8510.4
7679.35
6741.94
5708.48
4587.54
3384.3
2103.84
765.552
2456.51
3658.75
4820.22
5923.01
6950.06
7885.44
8714.6
9424.66
10004.5
10445.2
10739.8
10883.6
10874.5
10712.7
10400.8
9943.72
9348.63
8624.52
7781.72
6831.32
5783.8
4647.83
3428.56
2130.95
774.655
2421.52
3609.96
4758.18
5848.46
6863.94
7788.86
8608.85
9311.15
9884.83
10320.9
10612.6
10755.4
10747
10587.7
10280
9828.85
9241.23
8526.01
7693.34
6754.16
5718.77
4595.76
3390.32
2107.52
766.795
2448.61
3647.65
4806.06
5905.96
6930.33
7863.28
8690.32
9398.58
9977.03
10416.6
10710.5
10854.1
10845.2
10684
10373
9917.27
9323.89
8601.83
7761.36
6813.55
5768.82
4635.83
3419.74
2125.55
772.844
2415.85
3602.12
4748.25
5836.56
6850.21
7773.48
8592.03
9293.11
9865.82
10301.2
10592.5
10735.1
10726.8
10567.9
10260.9
9810.65
9224.21
8510.4
7679.35
6741.94
5708.48
4587.54
3384.3
2103.84
765.551
2415.86
3602.12
4748.25
5836.56
6850.21
7773.48
8592.03
9293.11
9865.82
10301.2
10592.5
10735.1
10726.8
10567.9
10260.9
9810.65
9224.22
8510.4
7679.35
6741.94
5708.48
4587.54
3384.3
2103.84
765.552
2448.61
3647.65
4806.06
5905.96
6930.33
7863.28
8690.32
9398.58
9977.03
10416.6
10710.5
10854.1
10845.2
10684
10373
9917.27
9323.89
8601.83
7761.36
6813.55
5768.82
4635.83
3419.74
2125.55
772.844
)
;

boundaryField
{
    outletCentralUnloaded
    {
        type            zeroGradient;
    }
    inletCentralUnloaded
    {
        type            zeroGradient;
    }
    outletFuelElement
    {
        type            zeroGradient;
    }
    inletFuelElement
    {
        type            zeroGradient;
    }
    defaultFaces
    {
        type            zeroGradient;
    }
    baffle_master
    {
        type            zeroGradient;
    }
    baffle_slave
    {
        type            zeroGradient;
    }
}


// ************************************************************************* //
