/*--------------------------------*- C++ -*----------------------------------*\
| =========                 |                                                 |
| \\      /  F ield         | OpenFOAM: The Open Source CFD Toolbox           |
|  \\    /   O peration     | Version:  2212                                  |
|   \\  /    A nd           | Website:  www.openfoam.com                      |
|    \\/     M anipulation  |                                                 |
\*---------------------------------------------------------------------------*/
FoamFile
{
    version     2.0;
    format      ascii;
    arch        "LSB;label=32;scalar=64";
    class       volScalarField;
    location    "57/fluidRegion";
    object      Tfo.nuclearFuelPin;
}
// * * * * * * * * * * * * * * * * * * * * * * * * * * * * * * * * * * * * * //

dimensions      [0 0 0 1 0 0 0];

internalField   nonuniform List<scalar> 
350
(
0
0
0
0
0
0
0
0
0
0
0
0
0
0
0
0
0
0
0
0
0
0
0
0
0
0
0
0
0
0
0
0
0
0
0
0
0
0
0
0
0
0
0
0
0
0
0
0
0
0
2021.35
2410.6
2778.58
3119.88
3429.44
3702.63
3935.37
4124.16
4266.14
4359.19
4401.88
4393.61
4334.55
4225.69
4068.8
3866.41
3621.62
3337.88
3018.55
2666.41
2282.58
1865.29
1408.68
905.868
363.92
2051.8
2445.68
2817.98
3163.21
3476.25
3752.43
3987.62
4178.27
4321.52
4415.2
4457.89
4448.97
4388.62
4277.84
4118.45
3912.99
3664.66
3376.97
3053.39
2696.76
2308.26
1886.09
1424.22
915.532
367.169
2016.41
2404.94
2772.26
3112.95
3421.97
3694.7
3927.07
4115.57
4257.37
4350.33
4393.04
4384.88
4326.03
4217.47
4060.99
3859.09
3614.86
3331.74
3013.09
2661.65
2278.56
1862.05
1406.27
904.378
363.411
2044.94
2437.74
2809.03
3153.34
3465.56
3741.04
3975.65
4165.87
4308.81
4402.33
4445.02
4436.24
4376.18
4265.83
4107.01
3902.26
3654.74
3367.96
3045.36
2689.76
2302.33
1881.29
1420.63
913.301
366.42
2044.94
2437.74
2809.03
3153.34
3465.56
3741.04
3975.65
4165.87
4308.81
4402.33
4445.02
4436.24
4376.18
4265.83
4107.01
3902.26
3654.74
3367.96
3045.36
2689.76
2302.33
1881.29
1420.63
913.301
366.42
2016.42
2404.95
2772.26
3112.95
3421.97
3694.7
3927.07
4115.58
4257.38
4350.33
4393.04
4384.88
4326.03
4217.48
4060.99
3859.09
3614.86
3331.74
3013.09
2661.65
2278.56
1862.05
1406.27
904.379
363.411
2051.8
2445.68
2817.98
3163.21
3476.25
3752.43
3987.62
4178.27
4321.52
4415.2
4457.89
4448.97
4388.62
4277.84
4118.45
3913
3664.66
3376.97
3053.39
2696.76
2308.26
1886.09
1424.22
915.532
367.169
2021.35
2410.6
2778.58
3119.88
3429.44
3702.63
3935.37
4124.16
4266.14
4359.19
4401.88
4393.61
4334.55
4225.69
4068.8
3866.41
3621.62
3337.88
3018.55
2666.41
2282.58
1865.29
1408.68
905.868
363.92
2044.94
2437.74
2809.03
3153.34
3465.56
3741.04
3975.65
4165.87
4308.81
4402.33
4445.02
4436.24
4376.18
4265.83
4107.01
3902.26
3654.74
3367.96
3045.36
2689.76
2302.33
1881.29
1420.63
913.301
366.42
2016.41
2404.94
2772.26
3112.95
3421.97
3694.7
3927.07
4115.57
4257.37
4350.33
4393.04
4384.88
4326.03
4217.47
4060.99
3859.09
3614.86
3331.74
3013.09
2661.65
2278.56
1862.05
1406.27
904.378
363.411
2016.42
2404.95
2772.26
3112.95
3421.97
3694.7
3927.07
4115.58
4257.38
4350.33
4393.04
4384.88
4326.03
4217.48
4060.99
3859.09
3614.86
3331.74
3013.09
2661.65
2278.56
1862.05
1406.27
904.379
363.411
2044.94
2437.74
2809.03
3153.34
3465.56
3741.04
3975.65
4165.87
4308.81
4402.33
4445.02
4436.24
4376.18
4265.83
4107.01
3902.26
3654.74
3367.96
3045.36
2689.76
2302.33
1881.29
1420.63
913.301
366.42
)
;

boundaryField
{
    outletCentralUnloaded
    {
        type            zeroGradient;
    }
    inletCentralUnloaded
    {
        type            zeroGradient;
    }
    outletFuelElement
    {
        type            zeroGradient;
    }
    inletFuelElement
    {
        type            zeroGradient;
    }
    defaultFaces
    {
        type            zeroGradient;
    }
    baffle_master
    {
        type            zeroGradient;
    }
    baffle_slave
    {
        type            zeroGradient;
    }
}


// ************************************************************************* //
