/*--------------------------------*- C++ -*----------------------------------*\
| =========                 |                                                 |
| \\      /  F ield         | OpenFOAM: The Open Source CFD Toolbox           |
|  \\    /   O peration     | Version:  2212                                  |
|   \\  /    A nd           | Website:  www.openfoam.com                      |
|    \\/     M anipulation  |                                                 |
\*---------------------------------------------------------------------------*/
FoamFile
{
    version     2.0;
    format      ascii;
    arch        "LSB;label=32;scalar=64";
    class       scalarFieldField;
    location    "57/fluidRegion";
    object      Trad.nuclearFuelPin;
}
// * * * * * * * * * * * * * * * * * * * * * * * * * * * * * * * * * * * * * //


350
(
0()
0()
0()
0()
0()
0()
0()
0()
0()
0()
0()
0()
0()
0()
0()
0()
0()
0()
0()
0()
0()
0()
0()
0()
0()
0()
0()
0()
0()
0()
0()
0()
0()
0()
0()
0()
0()
0()
0()
0()
0()
0()
0()
0()
0()
0()
0()
0()
0()
0()

20
(
2421.52
2419.74
2414.41
2405.53
2393.1
2377.11
2357.56
2334.46
2307.8
2277.58
2243.8
2206.45
2165.53
2121.04
2072.99
2021.35
1851.4
1847.35
1843.43
1839.64
)


20
(
3609.96
3604.63
3588.65
3562
3524.71
3476.75
3418.13
3348.86
3268.92
3178.31
3077.04
2965.1
2842.49
2709.21
2565.24
2410.6
1901.64
1889.52
1877.79
1866.43
)


20
(
4758.18
4749.38
4722.99
4679.01
4617.44
4538.28
4441.52
4327.16
4195.2
4045.65
3878.49
3693.73
3491.36
3271.38
3033.79
2778.58
1938.66
1918.65
1899.3
1880.55
)


20
(
5848.46
5836.34
5799.96
5739.34
5654.47
5545.34
5411.96
5254.33
5072.44
4866.3
4635.89
4381.23
4102.29
3799.09
3471.62
3119.88
1962.25
1934.68
1908
1882.17
)


20
(
6863.94
6848.67
6802.89
6726.58
6619.74
6482.38
6314.49
6116.07
5887.13
5627.64
5337.63
5017.07
4665.98
4284.35
3872.16
3429.44
1972.37
1937.66
1904.08
1871.57
)


20
(
7788.86
7770.7
7716.22
7625.43
7498.32
7334.89
7135.14
6899.06
6626.67
6317.94
5972.89
5591.51
5173.8
4719.75
4229.36
3702.63
1969.12
1927.82
1887.87
1849.19
)


20
(
8608.85
8588.08
8525.77
8421.93
8276.55
8089.63
7861.17
7591.16
7279.62
6926.52
6531.88
6095.69
5617.95
5098.65
4537.79
3935.37
1952.76
1905.53
1859.84
1815.59
)


20
(
9311.15
9288.1
9218.95
9103.7
8942.34
8734.88
8481.31
8181.64
7835.85
7443.96
7005.96
6521.84
5991.6
5415.24
4792.76
4124.16
1923.72
1871.31
1820.6
1771.49
)


20
(
9884.83
9859.86
9784.95
9660.11
9485.32
9260.59
8985.92
8661.3
8286.74
7862.23
7387.77
6863.36
6288.99
5664.67
4990.39
4266.14
1882.6
1825.82
1770.89
1717.7
)


20
(
10320.9
10294.4
10215
10082.5
9897.02
9658.57
9367.12
9022.69
8625.25
8174.82
7671.4
7114.97
6505.53
5843.09
5127.65
4359.19
1830.13
1769.89
1711.61
1655.16
)


20
(
10612.6
10585
10502.2
10364.2
10171
9922.61
9618.99
9260.16
8846.13
8376.89
7852.43
7272.76
6637.87
5947.76
5202.44
4401.88
1767.21
1704.45
1643.74
1584.94
)


20
(
10755.4
10727.1
10642.3
10501
10303
10048.6
9737.59
9370.04
8945.93
8465.28
7928.07
7334.3
6683.97
5977.08
5213.63
4393.61
1694.88
1630.59
1568.4
1508.17
)


20
(
10747
10718.5
10633
10490.6
10291.1
10034.6
9721.11
9350.63
8923.14
8438.65
7897.16
7298.66
6643.15
5930.64
5161.1
4334.55
1614.33
1549.53
1486.84
1426.13
)


20
(
10587.7
10559.4
10474.6
10333.3
10135.3
9880.87
9569.86
9202.29
8778.17
8297.49
7760.26
7166.47
6516.12
5809.21
5045.73
4225.69
1526.88
1462.59
1400.39
1340.16
)


20
(
10280
10252.4
10169.6
10031.6
9838.37
9589.93
9286.29
8927.43
8513.36
8044.08
7519.58
6939.87
6304.94
5614.78
4869.41
4068.8
1433.97
1371.21
1310.49
1251.69
)


20
(
9828.85
9802.35
9722.86
9590.37
9404.88
9166.4
8874.91
8530.43
8132.95
7682.46
7178.97
6622.48
6012.98
5350.47
4634.95
3866.41
1337.12
1276.87
1218.59
1162.14
)


20
(
9241.23
9216.25
9141.33
9016.46
8841.64
8616.86
8342.14
8017.46
7642.84
7218.25
6743.71
6219.22
5644.76
5020.34
4345.97
3621.62
1237.77
1180.98
1126.05
1072.85
)


20
(
8526.01
8502.95
8433.78
8318.49
8157.09
7949.58
7695.95
7396.2
7050.34
6658.35
6220.25
5736.02
5205.68
4629.2
4006.6
3337.88
1137.06
1084.64
1033.92
984.801
)


20
(
7693.34
7672.57
7610.24
7506.36
7360.93
7173.95
6945.41
6675.33
6363.68
6010.48
5615.73
5179.41
4701.54
4182.11
3621.11
3018.55
1035.5
988.261
942.561
898.304
)


20
(
6754.16
6735.99
6681.49
6590.66
6463.49
6299.99
6100.15
5863.98
5591.47
5282.63
4937.44
4555.92
4138.06
3683.85
3193.3
2666.41
932.383
891.076
851.115
812.416
)


20
(
5718.77
5703.5
5657.68
5581.33
5474.43
5336.99
5169.01
4970.48
4741.41
4481.79
4191.62
3870.91
3519.65
3137.84
2725.49
2282.58
824.935
790.212
756.621
724.09
)


20
(
4595.76
4583.62
4547.22
4486.54
4401.6
4292.39
4158.91
4001.15
3819.13
3612.83
3382.26
3127.41
2848.3
2544.9
2217.24
1865.29
707.018
679.427
652.735
626.885
)


20
(
3390.32
3381.51
3355.09
3311.06
3249.41
3170.15
3073.27
2958.78
2826.68
2676.96
2509.62
2324.67
2122.1
1901.91
1664.1
1408.68
568.055
548.031
528.659
509.898
)


20
(
2107.52
2102.18
2086.16
2059.46
2022.07
1974.01
1915.27
1845.84
1765.73
1674.94
1573.47
1461.31
1338.48
1204.96
1060.75
905.868
396.128
383.985
372.239
360.862
)


20
(
766.794
765.004
759.632
750.679
738.144
722.029
702.332
679.054
652.195
621.755
587.734
550.133
508.95
464.187
415.844
363.92
193.038
188.967
185.029
181.216
)


20
(
2456.51
2454.71
2449.33
2440.34
2427.77
2411.6
2391.83
2368.47
2341.5
2310.94
2276.77
2239
2197.62
2152.62
2104.02
2051.8
1879.91
1875.81
1871.85
1868.02
)


20
(
3658.75
3653.36
3637.19
3610.25
3572.52
3524.02
3464.73
3394.66
3313.81
3222.17
3119.74
3006.52
2882.51
2747.7
2602.09
2445.68
1930.91
1918.65
1906.78
1895.29
)


20
(
4820.22
4811.32
4784.63
4740.15
4677.87
4597.8
4499.94
4384.27
4250.81
4099.54
3930.47
3743.6
3538.91
3316.41
3076.1
2817.98
1968.45
1948.21
1928.63
1909.67
)


20
(
5923.01
5910.75
5873.96
5812.64
5726.8
5616.42
5481.52
5322.09
5138.12
4929.61
4696.57
4438.99
4156.86
3850.19
3518.98
3163.21
1992.33
1964.44
1937.46
1911.33
)


20
(
6950.06
6934.63
6888.32
6811.13
6703.07
6564.14
6394.33
6193.64
5962.07
5699.62
5406.28
5082.06
4726.95
4340.94
3924.05
3476.25
2002.5
1967.4
1933.43
1900.54
)


20
(
7885.44
7867.07
7811.97
7720.14
7591.57
7426.27
7224.23
6985.46
6709.94
6397.69
6048.69
5662.94
5240.44
4781.19
4285.19
3752.43
1999.07
1957.3
1916.9
1877.77
)


20
(
8714.6
8693.6
8630.58
8525.55
8378.5
8189.44
7958.36
7685.27
7370.16
7013.02
6613.86
6172.67
5689.46
5164.21
4596.93
3987.62
1982.31
1934.54
1888.32
1843.57
)


20
(
9424.66
9401.35
9331.4
9214.83
9051.62
8841.79
8585.32
8282.21
7932.47
7536.09
7093.07
6603.41
6067.1
5484.14
4854.53
4178.27
1952.64
1899.63
1848.34
1798.67
)


20
(
10004.5
9979.29
9903.53
9777.25
9600.46
9373.16
9095.34
8767.01
8388.16
7958.79
7478.89
6948.48
6367.53
5736.06
5054.06
4321.52
1910.68
1853.25
1797.7
1743.89
)


20
(
10445.2
10418.4
10338
10204
10016.4
9775.26
9480.48
9132.1
8730.12
8274.53
7765.34
7202.53
6586.12
5916.1
5192.46
4415.2
1857.18
1796.25
1737.3
1680.21
)


20
(
10739.8
10711.9
10628.1
10488.5
10293.1
10041.8
9734.74
9371.8
8953.03
8478.41
7947.95
7361.64
6719.48
6021.47
5267.61
4457.89
1793.04
1729.56
1668.15
1608.68
)


20
(
10883.6
10855
10769.2
10626.3
10426.1
10168.7
9854.15
9482.38
9053.42
8567.26
8023.9
7423.33
6765.56
6050.57
5278.38
4448.97
1719.33
1654.31
1591.4
1530.48
)


20
(
10874.5
10845.7
10759.2
10615.1
10413.4
10153.9
9836.86
9462.14
9029.76
8539.72
7992.03
7386.68
6723.66
6002.98
5224.63
4388.62
1637.24
1571.7
1508.29
1446.89
)


20
(
10712.7
10684.1
10598.3
10455.4
10255.2
9997.79
9683.21
9311.44
8882.46
8396.28
7852.89
7252.3
6594.5
5879.5
5107.28
4277.84
1548.12
1483.09
1420.19
1359.27
)


20
(
10400.8
10372.9
10289.1
10149.5
9954.09
9702.81
9395.68
9032.72
8613.91
8139.25
7608.75
7022.39
6380.19
5682.13
4928.22
4118.45
1453.44
1389.96
1328.54
1269.06
)


20
(
9943.72
9916.92
9836.51
9702.51
9514.9
9273.68
8978.86
8630.43
8228.39
7772.75
7263.49
6700.63
6084.14
5414.05
4690.33
3912.99
1354.74
1293.8
1234.84
1177.75
)


20
(
9348.63
9323.37
9247.58
9121.28
8944.46
8717.11
8439.24
8110.85
7731.93
7302.48
6822.51
6292
5710.97
5079.4
4397.3
3664.66
1253.5
1196.06
1140.5
1086.69
)


20
(
8624.52
8601.2
8531.23
8414.63
8251.38
8041.49
7784.95
7481.77
7131.95
6735.47
6292.35
5802.58
5266.16
4683.08
4053.35
3376.97
1150.94
1097.92
1046.62
996.938
)


20
(
7781.72
7760.7
7697.66
7592.59
7445.5
7256.38
7025.22
6752.04
6436.83
6079.58
5680.31
5239
4755.65
4230.27
3662.85
3053.39
1047.62
999.838
953.615
908.851
)


20
(
6831.32
6812.95
6757.83
6665.95
6537.33
6371.95
6169.83
5930.95
5655.32
5342.94
4993.8
4607.91
4185.26
3725.85
3229.69
2696.76
942.868
901.089
860.67
821.528
)


20
(
5783.8
5768.36
5722.02
5644.79
5536.67
5397.65
5227.75
5026.94
4795.25
4532.66
4239.17
3914.78
3559.5
3173.32
2756.24
2308.26
833.918
798.798
764.822
731.918
)


20
(
4647.83
4635.55
4598.73
4537.36
4451.45
4340.98
4205.97
4046.41
3862.3
3653.64
3420.43
3162.67
2880.35
2573.48
2242.06
1886.09
714.548
686.641
659.643
633.497
)


20
(
3428.55
3419.65
3392.92
3348.39
3286.03
3205.86
3107.88
2992.08
2858.46
2707.02
2537.77
2350.7
2145.81
1923.1
1682.57
1424.22
573.966
553.713
534.119
515.143
)


20
(
2130.95
2125.54
2109.34
2082.33
2044.52
1995.91
1936.49
1866.27
1785.24
1693.41
1590.78
1477.34
1353.1
1218.05
1072.19
915.532
399.954
387.673
375.791
364.285
)


20
(
774.655
772.843
767.41
758.354
745.676
729.376
709.454
685.91
658.743
627.955
593.545
555.513
513.859
468.584
419.687
367.169
194.331
190.213
186.23
182.373
)


20
(
2415.85
2414.08
2408.76
2399.9
2387.49
2371.53
2352.02
2328.96
2302.34
2272.18
2238.45
2201.17
2160.33
2115.93
2067.95
2016.41
1846.77
1842.73
1838.82
1835.03
)


20
(
3602.12
3596.8
3580.84
3554.25
3517.02
3469.15
3410.64
3341.49
3261.7
3171.26
3070.17
2958.44
2836.05
2703
2559.3
2404.94
1896.91
1884.81
1873.1
1861.77
)


20
(
4748.24
4739.46
4713.13
4669.23
4607.77
4528.75
4432.16
4318.01
4186.3
4037.01
3870.16
3685.74
3483.73
3264.16
3027
2772.26
1933.86
1913.89
1894.57
1875.86
)


20
(
5836.56
5824.45
5788.15
5727.63
5642.91
5533.99
5400.85
5243.51
5061.95
4856.18
4626.2
4372
4093.57
3790.92
3464.05
3112.95
1957.43
1929.91
1903.28
1877.49
)


20
(
6850.21
6834.97
6789.27
6713.1
6606.46
6469.35
6301.77
6103.71
5875.18
5616.17
5326.68
5006.71
4656.26
4275.32
3863.89
3421.97
1967.56
1932.91
1899.4
1866.94
)


20
(
7773.48
7755.35
7700.98
7610.35
7483.47
7320.34
7120.95
6885.31
6613.41
6305.25
5960.83
5580.14
5163.19
4709.96
4220.47
3694.7
1964.35
1923.13
1883.26
1844.64
)


20
(
8592.03
8571.3
8509.1
8405.45
8260.33
8073.75
7845.71
7576.2
7265.22
6912.77
6518.85
6083.45
5606.58
5088.22
4528.39
3927.07
1948.07
1900.93
1855.33
1811.16
)


20
(
9293.11
9270.1
9201.08
9086.03
8924.97
8717.89
8464.78
8165.66
7820.5
7429.33
6992.12
6508.88
5979.61
5404.3
4782.96
4115.57
1919.15
1866.83
1816.22
1767.2
)


20
(
9865.82
9840.89
9766.12
9641.5
9467.03
9242.71
8968.54
8644.52
8270.64
7846.9
7373.31
6849.85
6276.53
5653.35
4980.3
4257.37
1878.18
1821.5
1766.68
1713.58
)


20
(
10301.2
10274.8
10195.4
10063.2
9878.06
9640.05
9349.13
9005.32
8608.62
8159.01
7656.5
7101.08
6492.76
5831.53
5117.39
4350.33
1825.89
1765.75
1707.58
1651.24
)


20
(
10592.5
10564.9
10482.3
10344.5
10151.7
9903.69
9600.63
9242.46
8829.18
8360.79
7837.29
7258.68
6624.95
5936.1
5192.13
4393.04
1763.17
1700.52
1639.92
1581.23
)


20
(
10735.1
10706.9
10622.2
10481.1
10283.5
10029.5
9719.11
9352.23
8928.9
8449.12
7912.89
7320.2
6671.06
5965.46
5203.4
4384.88
1691.07
1626.9
1564.82
1504.7
)


20
(
10726.8
10698.4
10613
10470.8
10271.7
10015.7
9702.76
9332.95
8906.25
8422.65
7882.14
7284.73
6630.42
5919.2
5151.07
4326.03
1610.77
1546.09
1483.51
1422.91
)


20
(
10567.9
10539.7
10455
10313.9
10116.3
9862.34
9551.89
9185
8761.65
8281.85
7745.6
7152.89
6503.73
5798.11
5036.02
4217.47
1523.58
1459.41
1397.33
1337.21
)


20
(
10260.9
10233.3
10150.7
10012.9
9820.03
9572.05
9268.96
8910.76
8497.44
8029.02
7505.48
6926.82
6293.04
5604.15
4860.13
4060.99
1430.97
1368.32
1307.71
1249.01
)


20
(
9810.65
9784.2
9704.85
9572.6
9387.45
9149.4
8858.45
8514.6
8117.84
7668.18
7165.6
6610.12
6001.74
5340.43
4626.22
3859.09
1334.41
1274.27
1216.09
1159.74
)


20
(
9224.21
9199.29
9124.5
8999.85
8825.35
8600.99
8326.77
8002.68
7628.74
7204.93
6731.25
6207.71
5634.3
5011.03
4337.88
3614.86
1235.35
1178.67
1123.83
1070.73
)


20
(
8510.4
8487.39
8418.34
8303.27
8142.16
7935.03
7681.86
7382.66
7037.42
6646.16
6208.85
5725.51
5196.13
4620.71
3999.24
3331.74
1134.93
1082.6
1031.98
982.951
)


20
(
7679.35
7658.61
7596.4
7492.71
7347.54
7160.9
6932.78
6663.19
6352.11
5999.56
5605.52
5170
4693
4174.52
3614.54
3013.09
1033.65
986.495
940.879
896.702
)


20
(
6741.94
6723.81
6669.41
6578.74
6451.8
6288.6
6089.13
5853.39
5581.38
5273.09
4928.54
4547.71
4130.61
3677.24
3187.58
2661.65
930.786
889.555
849.667
811.038
)


20
(
5708.48
5693.24
5647.51
5571.29
5464.59
5327.4
5159.72
4961.56
4732.9
4473.76
4184.12
3864
3513.38
3132.27
2720.66
2278.56
823.575
788.916
755.386
722.914
)


20
(
4587.53
4575.42
4539.08
4478.52
4393.73
4284.72
4151.48
3994.01
3812.32
3606.4
3376.25
3121.87
2843.26
2540.42
2213.35
1862.05
705.89
678.349
651.706
625.903
)


20
(
3384.3
3375.51
3349.14
3305.18
3243.65
3164.53
3067.83
2953.55
2821.69
2672.24
2505.21
2320.59
2118.39
1898.6
1661.23
1406.27
567.182
547.194
527.857
509.131
)


20
(
2103.84
2098.51
2082.52
2055.86
2018.55
1970.57
1911.93
1842.63
1762.67
1672.05
1570.76
1458.81
1336.2
1202.92
1058.98
904.378
395.567
383.447
371.722
360.366
)


20
(
765.551
763.764
758.402
749.465
736.953
720.867
701.206
677.971
651.161
620.776
586.817
549.284
508.177
463.496
415.24
363.411
192.841
188.777
184.847
181.04
)


20
(
2448.61
2446.81
2441.44
2432.48
2419.94
2403.81
2384.09
2360.79
2333.9
2303.41
2269.33
2231.66
2190.38
2145.51
2097.03
2044.94
1873.49
1869.41
1865.46
1861.64
)


20
(
3647.65
3642.28
3626.15
3599.28
3561.65
3513.27
3454.14
3384.25
3303.61
3212.21
3110.05
2997.12
2873.43
2738.98
2593.75
2437.74
1924.31
1912.08
1900.24
1888.79
)


20
(
4806.06
4797.18
4770.56
4726.2
4664.08
4584.22
4486.61
4371.24
4238.13
4087.26
3918.63
3732.24
3528.08
3306.17
3066.48
2809.03
1961.71
1941.53
1922
1903.09
)


20
(
5905.96
5893.72
5857.03
5795.87
5710.25
5600.17
5465.61
5306.59
5123.11
4915.14
4682.71
4425.8
4144.41
3838.54
3508.18
3153.34
1985.51
1957.69
1930.78
1904.72
)


20
(
6930.33
6914.93
6868.74
6791.76
6683.98
6545.41
6376.04
6175.88
5944.91
5683.14
5390.57
5067.19
4713.01
4328.01
3912.19
3465.56
1995.66
1960.64
1926.77
1893.96
)


20
(
7863.28
7844.96
7790.01
7698.41
7570.18
7405.31
7203.8
6965.65
6690.85
6379.41
6031.31
5646.57
5225.18
4767.12
4272.41
3741.04
1992.25
1950.59
1910.29
1871.26
)


20
(
8690.32
8669.37
8606.52
8501.76
8355.1
8166.53
7936.05
7663.67
7349.38
6993.17
6595.05
6155.02
5673.06
5149.18
4583.38
3975.65
1975.57
1927.92
1881.83
1837.19
)


20
(
9398.58
9375.33
9305.57
9189.3
9026.52
8817.23
8561.43
8259.11
7910.28
7514.93
7073.07
6584.68
6049.77
5468.33
4840.37
4165.87
1946.04
1893.16
1842
1792.46
)


20
(
9977.03
9951.84
9876.27
9750.32
9573.99
9347.28
9070.19
8742.71
8364.85
7936.6
7457.96
6928.92
6349.49
5719.67
5039.44
4308.81
1904.26
1846.98
1791.57
1737.9
)


20
(
10416.6
10389.9
10309.7
10176.1
9988.98
9748.43
9454.42
9106.94
8706.01
8251.61
7743.74
7182.41
6567.6
5899.32
5177.57
4402.33
1850.98
1790.21
1731.41
1674.47
)


20
(
10710.5
10682.7
10599.1
10459.9
10265
10014.4
9708.11
9346.12
8928.44
8455.06
7925.98
7341.2
6700.71
6004.52
5252.63
4445.02
1787.12
1723.8
1662.55
1603.23
)


20
(
10854.1
10825.6
10740
10597.4
10397.8
10141.1
9827.33
9456.53
9028.69
8543.8
8001.85
7402.85
6746.79
6033.67
5263.48
4436.24
1713.71
1648.86
1586.12
1525.36
)


20
(
10845.2
10816.4
10730.2
10586.5
10385.2
10126.5
9810.22
9436.47
9005.22
8516.46
7970.19
7366.42
6705.13
5986.33
5210.01
4376.18
1631.97
1566.6
1503.36
1442.11
)


20
(
10684
10655.4
10569.9
10427.2
10227.6
9970.88
9657.12
9286.31
8858.45
8373.53
7831.57
7232.54
6576.46
5863.31
5093.11
4265.83
1543.23
1478.37
1415.63
1354.87
)


20
(
10373
10345.1
10261.6
10122.4
9927.44
9676.82
9370.49
9008.47
8590.76
8117.34
7588.22
7003.39
6362.86
5666.62
4914.67
4107.01
1448.95
1385.63
1324.38
1265.06
)


20
(
9917.27
9890.54
9810.34
9676.68
9489.56
9248.97
8954.92
8607.4
8206.41
7751.96
7244.03
6682.63
6067.75
5399.4
4677.57
3902.26
1350.67
1289.89
1231.09
1174.14
)


20
(
9323.89
9298.7
9223.11
9097.14
8920.78
8694.02
8416.88
8089.34
7711.41
7283.08
6804.36
6275.24
5695.71
5065.79
4385.47
3654.74
1249.87
1192.58
1137.16
1083.49
)


20
(
8601.83
8578.57
8508.79
8392.49
8229.66
8020.32
7764.45
7462.06
7113.15
6717.71
6275.74
5787.25
5252.22
4670.67
4042.58
3367.96
1147.73
1094.85
1043.68
994.132
)


20
(
7761.36
7740.4
7677.53
7572.73
7426.02
7237.39
7006.84
6734.37
6419.98
6063.67
5665.43
5225.27
4743.18
4219.17
3653.23
3045.36
1044.82
997.161
951.059
906.412
)


20
(
6813.55
6795.22
6740.24
6648.61
6520.32
6355.38
6153.78
5915.52
5640.61
5329.04
4980.82
4595.93
4174.38
3716.17
3221.3
2689.76
940.444
898.773
858.46
819.419
)


20
(
5768.82
5753.42
5707.2
5630.17
5522.33
5383.68
5214.21
5013.94
4782.84
4520.94
4228.21
3904.67
3550.32
3165.14
2749.15
2302.33
831.84
796.812
762.924
730.106
)


20
(
4635.83
4623.59
4586.86
4525.66
4439.96
4329.79
4195.13
4035.98
3852.35
3644.24
3411.63
3154.54
2872.96
2566.9
2236.34
1881.29
712.805
684.971
658.043
631.965
)


20
(
3419.74
3410.86
3384.21
3339.78
3277.59
3197.63
3099.9
2984.4
2851.13
2700.09
2531.28
2344.7
2140.34
1918.21
1678.31
1420.63
572.597
552.396
532.853
513.927
)


20
(
2125.55
2120.16
2104
2077.06
2039.35
1990.86
1931.6
1861.56
1780.74
1689.15
1586.79
1473.64
1349.72
1215.03
1069.55
913.301
399.067
386.817
374.966
363.49
)


20
(
772.844
771.037
765.618
756.586
743.941
727.684
707.813
684.33
657.235
626.527
592.206
554.273
512.728
467.571
418.801
366.42
194.032
189.925
185.952
182.105
)


20
(
2448.61
2446.81
2441.44
2432.48
2419.94
2403.81
2384.09
2360.79
2333.9
2303.41
2269.33
2231.66
2190.38
2145.51
2097.03
2044.94
1873.5
1869.41
1865.46
1861.64
)


20
(
3647.65
3642.28
3626.15
3599.28
3561.65
3513.27
3454.14
3384.25
3303.61
3212.21
3110.05
2997.12
2873.43
2738.98
2593.75
2437.74
1924.31
1912.08
1900.24
1888.79
)


20
(
4806.06
4797.18
4770.56
4726.2
4664.08
4584.22
4486.61
4371.25
4238.13
4087.26
3918.63
3732.24
3528.09
3306.17
3066.48
2809.03
1961.71
1941.53
1922
1903.09
)


20
(
5905.96
5893.73
5857.03
5795.87
5710.25
5600.17
5465.62
5306.6
5123.11
4915.14
4682.71
4425.8
4144.41
3838.54
3508.18
3153.34
1985.51
1957.69
1930.78
1904.72
)


20
(
6930.33
6914.93
6868.74
6791.76
6683.98
6545.41
6376.04
6175.88
5944.91
5683.14
5390.57
5067.19
4713.01
4328.01
3912.19
3465.56
1995.66
1960.64
1926.77
1893.96
)


20
(
7863.28
7844.96
7790.01
7698.41
7570.18
7405.31
7203.8
6965.65
6690.85
6379.41
6031.31
5646.57
5225.18
4767.12
4272.41
3741.04
1992.25
1950.59
1910.29
1871.26
)


20
(
8690.32
8669.37
8606.52
8501.76
8355.1
8166.53
7936.05
7663.67
7349.38
6993.17
6595.05
6155.02
5673.06
5149.18
4583.38
3975.65
1975.57
1927.92
1881.83
1837.19
)


20
(
9398.58
9375.33
9305.57
9189.3
9026.52
8817.23
8561.43
8259.11
7910.28
7514.93
7073.07
6584.68
6049.77
5468.33
4840.37
4165.87
1946.04
1893.16
1842
1792.46
)


20
(
9977.03
9951.84
9876.27
9750.32
9573.99
9347.28
9070.19
8742.71
8364.85
7936.6
7457.96
6928.92
6349.49
5719.67
5039.44
4308.81
1904.26
1846.98
1791.57
1737.9
)


20
(
10416.6
10389.9
10309.7
10176.1
9988.98
9748.43
9454.42
9106.94
8706.01
8251.61
7743.74
7182.41
6567.6
5899.32
5177.57
4402.33
1850.98
1790.21
1731.41
1674.47
)


20
(
10710.5
10682.7
10599.1
10459.9
10265
10014.4
9708.11
9346.12
8928.44
8455.06
7925.98
7341.2
6700.71
6004.52
5252.62
4445.02
1787.12
1723.8
1662.55
1603.23
)


20
(
10854.1
10825.6
10740
10597.4
10397.8
10141.1
9827.33
9456.53
9028.69
8543.8
8001.85
7402.85
6746.79
6033.67
5263.48
4436.24
1713.71
1648.86
1586.12
1525.36
)


20
(
10845.2
10816.4
10730.2
10586.5
10385.2
10126.5
9810.22
9436.47
9005.22
8516.46
7970.19
7366.42
6705.13
5986.33
5210.01
4376.18
1631.97
1566.6
1503.36
1442.11
)


20
(
10684
10655.4
10569.9
10427.2
10227.6
9970.87
9657.12
9286.31
8858.45
8373.53
7831.57
7232.54
6576.46
5863.31
5093.11
4265.83
1543.23
1478.37
1415.63
1354.87
)


20
(
10373
10345.1
10261.6
10122.4
9927.44
9676.82
9370.49
9008.47
8590.76
8117.34
7588.22
7003.39
6362.86
5666.62
4914.67
4107.01
1448.95
1385.63
1324.38
1265.06
)


20
(
9917.27
9890.54
9810.34
9676.68
9489.56
9248.97
8954.92
8607.4
8206.41
7751.96
7244.03
6682.63
6067.75
5399.4
4677.57
3902.26
1350.67
1289.89
1231.09
1174.14
)


20
(
9323.89
9298.7
9223.11
9097.14
8920.78
8694.02
8416.88
8089.34
7711.41
7283.08
6804.36
6275.24
5695.71
5065.79
4385.47
3654.74
1249.87
1192.58
1137.16
1083.49
)


20
(
8601.83
8578.57
8508.79
8392.48
8229.66
8020.32
7764.45
7462.06
7113.15
6717.71
6275.74
5787.25
5252.22
4670.67
4042.58
3367.96
1147.73
1094.85
1043.68
994.132
)


20
(
7761.36
7740.4
7677.53
7572.73
7426.02
7237.39
7006.84
6734.37
6419.98
6063.66
5665.43
5225.27
4743.18
4219.17
3653.23
3045.36
1044.82
997.161
951.059
906.412
)


20
(
6813.55
6795.22
6740.24
6648.61
6520.32
6355.38
6153.78
5915.52
5640.61
5329.04
4980.82
4595.93
4174.38
3716.17
3221.3
2689.76
940.444
898.773
858.46
819.419
)


20
(
5768.82
5753.42
5707.2
5630.17
5522.33
5383.68
5214.21
5013.94
4782.84
4520.94
4228.21
3904.67
3550.32
3165.14
2749.15
2302.33
831.84
796.812
762.924
730.106
)


20
(
4635.83
4623.59
4586.86
4525.66
4439.96
4329.79
4195.13
4035.98
3852.35
3644.24
3411.63
3154.54
2872.96
2566.9
2236.34
1881.29
712.806
684.971
658.043
631.965
)


20
(
3419.74
3410.86
3384.21
3339.79
3277.59
3197.63
3099.9
2984.4
2851.13
2700.09
2531.28
2344.7
2140.34
1918.21
1678.31
1420.63
572.597
552.396
532.853
513.927
)


20
(
2125.55
2120.16
2104
2077.06
2039.35
1990.86
1931.6
1861.56
1780.74
1689.15
1586.79
1473.64
1349.72
1215.03
1069.55
913.301
399.067
386.817
374.966
363.49
)


20
(
772.844
771.038
765.618
756.586
743.941
727.684
707.813
684.33
657.235
626.527
592.206
554.273
512.728
467.571
418.801
366.42
194.032
189.925
185.952
182.105
)


20
(
2415.86
2414.08
2408.76
2399.9
2387.49
2371.53
2352.02
2328.96
2302.35
2272.18
2238.46
2201.17
2160.33
2115.93
2067.96
2016.42
1846.77
1842.73
1838.82
1835.03
)


20
(
3602.12
3596.8
3580.85
3554.25
3517.02
3469.15
3410.64
3341.49
3261.7
3171.26
3070.17
2958.44
2836.05
2703.01
2559.31
2404.95
1896.91
1884.81
1873.11
1861.77
)


20
(
4748.25
4739.47
4713.13
4669.23
4607.77
4528.75
4432.16
4318.01
4186.3
4037.02
3870.16
3685.74
3483.74
3264.16
3027
2772.26
1933.87
1913.89
1894.57
1875.86
)


20
(
5836.56
5824.46
5788.15
5727.64
5642.92
5533.99
5400.86
5243.51
5061.96
4856.19
4626.2
4372
4093.57
3790.93
3464.05
3112.95
1957.43
1929.91
1903.28
1877.49
)


20
(
6850.21
6834.97
6789.27
6713.1
6606.46
6469.35
6301.77
6103.71
5875.18
5616.17
5326.68
5006.71
4656.26
4275.32
3863.89
3421.97
1967.56
1932.91
1899.4
1866.94
)


20
(
7773.48
7755.35
7700.98
7610.35
7483.47
7320.34
7120.95
6885.31
6613.41
6305.25
5960.83
5580.14
5163.19
4709.97
4220.47
3694.7
1964.35
1923.13
1883.26
1844.64
)


20
(
8592.03
8571.3
8509.11
8405.45
8260.34
8073.76
7845.71
7576.2
7265.22
6912.77
6518.85
6083.45
5606.58
5088.23
4528.39
3927.07
1948.07
1900.93
1855.33
1811.16
)


20
(
9293.11
9270.11
9201.08
9086.03
8924.97
8717.89
8464.78
8165.66
7820.5
7429.33
6992.12
6508.88
5979.61
5404.31
4782.96
4115.58
1919.16
1866.83
1816.22
1767.2
)


20
(
9865.82
9840.89
9766.12
9641.5
9467.03
9242.71
8968.54
8644.52
8270.64
7846.9
7373.31
6849.85
6276.54
5653.35
4980.3
4257.38
1878.18
1821.51
1766.68
1713.58
)


20
(
10301.2
10274.8
10195.4
10063.2
9878.06
9640.05
9349.13
9005.33
8608.62
8159.01
7656.5
7101.08
6492.76
5831.53
5117.39
4350.33
1825.89
1765.75
1707.58
1651.24
)


20
(
10592.5
10564.9
10482.3
10344.5
10151.7
9903.69
9600.63
9242.46
8829.18
8360.79
7837.29
7258.68
6624.95
5936.1
5192.13
4393.04
1763.17
1700.53
1639.92
1581.23
)


20
(
10735.1
10706.9
10622.2
10481.1
10283.5
10029.5
9719.11
9352.23
8928.9
8449.12
7912.89
7320.2
6671.06
5965.46
5203.4
4384.88
1691.07
1626.9
1564.82
1504.7
)


20
(
10726.8
10698.4
10613
10470.8
10271.7
10015.7
9702.76
9332.95
8906.25
8422.65
7882.14
7284.73
6630.42
5919.2
5151.07
4326.03
1610.77
1546.09
1483.51
1422.91
)


20
(
10567.9
10539.7
10455
10313.9
10116.3
9862.34
9551.9
9185
8761.65
8281.85
7745.6
7152.89
6503.73
5798.11
5036.02
4217.48
1523.59
1459.41
1397.33
1337.21
)


20
(
10260.9
10233.3
10150.7
10012.9
9820.03
9572.05
9268.96
8910.76
8497.44
8029.02
7505.48
6926.82
6293.05
5604.15
4860.13
4060.99
1430.97
1368.32
1307.71
1249.01
)


20
(
9810.65
9784.2
9704.85
9572.6
9387.46
9149.41
8858.45
8514.6
8117.84
7668.18
7165.61
6610.13
6001.74
5340.43
4626.22
3859.09
1334.41
1274.27
1216.09
1159.74
)


20
(
9224.22
9199.29
9124.5
8999.86
8825.35
8600.99
8326.77
8002.68
7628.74
7204.93
6731.25
6207.71
5634.31
5011.03
4337.88
3614.86
1235.35
1178.67
1123.83
1070.73
)


20
(
8510.4
8487.39
8418.34
8303.27
8142.16
7935.03
7681.86
7382.66
7037.43
6646.16
6208.85
5725.51
5196.13
4620.71
3999.24
3331.74
1134.94
1082.6
1031.98
982.952
)


20
(
7679.35
7658.61
7596.4
7492.71
7347.54
7160.9
6932.78
6663.19
6352.11
5999.56
5605.52
5170
4693
4174.52
3614.55
3013.09
1033.65
986.496
940.88
896.703
)


20
(
6741.94
6723.81
6669.41
6578.74
6451.81
6288.6
6089.13
5853.39
5581.38
5273.09
4928.54
4547.71
4130.61
3677.24
3187.58
2661.65
930.787
889.555
849.668
811.039
)


20
(
5708.48
5693.24
5647.51
5571.29
5464.59
5327.4
5159.72
4961.56
4732.9
4473.76
4184.12
3864
3513.38
3132.27
2720.66
2278.56
823.576
788.917
755.387
722.915
)


20
(
4587.54
4575.42
4539.09
4478.52
4393.74
4284.72
4151.48
3994.02
3812.32
3606.4
3376.25
3121.87
2843.26
2540.43
2213.35
1862.05
705.891
678.35
651.706
625.904
)


20
(
3384.3
3375.51
3349.14
3305.18
3243.65
3164.53
3067.83
2953.55
2821.69
2672.24
2505.21
2320.59
2118.39
1898.6
1661.23
1406.27
567.183
547.195
527.858
509.131
)


20
(
2103.84
2098.51
2082.52
2055.86
2018.55
1970.57
1911.93
1842.63
1762.67
1672.05
1570.76
1458.81
1336.2
1202.92
1058.98
904.379
395.568
383.448
371.722
360.367
)


20
(
765.552
763.764
758.402
749.465
736.954
720.867
701.206
677.971
651.161
620.776
586.818
549.285
508.177
463.496
415.241
363.411
192.841
188.777
184.847
181.04
)


20
(
2456.51
2454.71
2449.33
2440.34
2427.77
2411.6
2391.83
2368.47
2341.5
2310.94
2276.77
2239
2197.62
2152.62
2104.02
2051.8
1879.91
1875.81
1871.85
1868.02
)


20
(
3658.75
3653.36
3637.19
3610.24
3572.52
3524.02
3464.73
3394.66
3313.81
3222.17
3119.74
3006.52
2882.51
2747.7
2602.09
2445.68
1930.91
1918.65
1906.78
1895.29
)


20
(
4820.22
4811.32
4784.63
4740.15
4677.88
4597.8
4499.94
4384.27
4250.81
4099.54
3930.47
3743.6
3538.91
3316.42
3076.11
2817.98
1968.45
1948.21
1928.63
1909.67
)


20
(
5923.01
5910.75
5873.96
5812.64
5726.8
5616.43
5481.52
5322.09
5138.12
4929.61
4696.57
4438.99
4156.87
3850.19
3518.98
3163.21
1992.33
1964.44
1937.46
1911.33
)


20
(
6950.06
6934.63
6888.32
6811.13
6703.07
6564.14
6394.33
6193.64
5962.07
5699.62
5406.28
5082.06
4726.95
4340.94
3924.04
3476.25
2002.5
1967.4
1933.43
1900.54
)


20
(
7885.44
7867.07
7811.97
7720.14
7591.57
7426.27
7224.23
6985.46
6709.94
6397.69
6048.69
5662.94
5240.44
4781.19
4285.19
3752.43
1999.07
1957.3
1916.9
1877.77
)


20
(
8714.6
8693.6
8630.58
8525.55
8378.5
8189.44
7958.36
7685.27
7370.16
7013.02
6613.86
6172.67
5689.46
5164.21
4596.93
3987.62
1982.3
1934.54
1888.32
1843.57
)


20
(
9424.66
9401.35
9331.4
9214.83
9051.62
8841.79
8585.32
8282.21
7932.47
7536.09
7093.07
6603.41
6067.1
5484.14
4854.53
4178.27
1952.64
1899.63
1848.34
1798.67
)


20
(
10004.5
9979.29
9903.53
9777.25
9600.46
9373.16
9095.34
8767.01
8388.16
7958.79
7478.89
6948.48
6367.53
5736.06
5054.06
4321.52
1910.68
1853.25
1797.7
1743.89
)


20
(
10445.2
10418.4
10338
10204
10016.4
9775.26
9480.48
9132.1
8730.12
8274.53
7765.34
7202.53
6586.12
5916.1
5192.46
4415.2
1857.18
1796.25
1737.3
1680.21
)


20
(
10739.8
10711.8
10628.1
10488.5
10293.1
10041.8
9734.74
9371.8
8953.03
8478.41
7947.95
7361.64
6719.48
6021.47
5267.61
4457.89
1793.04
1729.56
1668.15
1608.68
)


20
(
10883.6
10855
10769.2
10626.3
10426.1
10168.7
9854.14
9482.38
9053.42
8567.26
8023.9
7423.33
6765.56
6050.57
5278.38
4448.97
1719.33
1654.31
1591.4
1530.48
)


20
(
10874.5
10845.7
10759.2
10615.1
10413.4
10153.9
9836.86
9462.14
9029.76
8539.72
7992.03
7386.67
6723.66
6002.98
5224.63
4388.62
1637.24
1571.7
1508.29
1446.89
)


20
(
10712.7
10684.1
10598.3
10455.4
10255.2
9997.79
9683.21
9311.43
8882.46
8396.28
7852.89
7252.3
6594.5
5879.5
5107.28
4277.84
1548.12
1483.09
1420.19
1359.27
)


20
(
10400.8
10372.9
10289.1
10149.5
9954.09
9702.81
9395.68
9032.72
8613.91
8139.25
7608.75
7022.39
6380.19
5682.13
4928.22
4118.45
1453.44
1389.96
1328.54
1269.06
)


20
(
9943.72
9916.92
9836.52
9702.51
9514.9
9273.68
8978.86
8630.43
8228.39
7772.75
7263.49
6700.63
6084.14
5414.05
4690.33
3913
1354.74
1293.8
1234.84
1177.75
)


20
(
9348.63
9323.37
9247.58
9121.28
8944.46
8717.11
8439.24
8110.85
7731.93
7302.48
6822.51
6292
5710.97
5079.4
4397.3
3664.66
1253.5
1196.06
1140.5
1086.69
)


20
(
8624.52
8601.19
8531.23
8414.63
8251.38
8041.49
7784.95
7481.77
7131.94
6735.47
6292.35
5802.58
5266.16
4683.08
4053.35
3376.97
1150.94
1097.92
1046.62
996.938
)


20
(
7781.72
7760.7
7697.66
7592.59
7445.5
7256.38
7025.22
6752.04
6436.83
6079.58
5680.31
5239
4755.65
4230.27
3662.85
3053.39
1047.62
999.838
953.615
908.851
)


20
(
6831.32
6812.95
6757.83
6665.95
6537.33
6371.95
6169.83
5930.95
5655.32
5342.94
4993.8
4607.91
4185.26
3725.85
3229.69
2696.76
942.868
901.089
860.67
821.528
)


20
(
5783.8
5768.36
5722.02
5644.79
5536.67
5397.65
5227.75
5026.94
4795.25
4532.66
4239.17
3914.78
3559.5
3173.32
2756.24
2308.26
833.918
798.798
764.822
731.918
)


20
(
4647.83
4635.55
4598.73
4537.36
4451.45
4340.98
4205.97
4046.41
3862.3
3653.64
3420.43
3162.67
2880.35
2573.49
2242.06
1886.09
714.548
686.641
659.643
633.497
)


20
(
3428.56
3419.65
3392.92
3348.39
3286.03
3205.86
3107.88
2992.08
2858.46
2707.02
2537.77
2350.7
2145.81
1923.1
1682.57
1424.22
573.967
553.713
534.119
515.143
)


20
(
2130.95
2125.54
2109.34
2082.33
2044.52
1995.91
1936.49
1866.27
1785.24
1693.41
1590.78
1477.34
1353.1
1218.05
1072.19
915.532