/*--------------------------------*- C++ -*----------------------------------*\
| =========                 |                                                 |
| \\      /  F ield         | OpenFOAM: The Open Source CFD Toolbox           |
|  \\    /   O peration     | Version:  2212                                  |
|   \\  /    A nd           | Website:  www.openfoam.com                      |
|    \\/     M anipulation  |                                                 |
\*---------------------------------------------------------------------------*/
FoamFile
{
    version     2.0;
    format      ascii;
    arch        "LSB;label=32;scalar=64";
    class       volScalarField;
    location    "71/neutroRegion";
    object      flux1;
}
// * * * * * * * * * * * * * * * * * * * * * * * * * * * * * * * * * * * * * //

dimensions      [0 -2 -1 0 0 0 0];

internalField   nonuniform List<scalar> 
350
(
6.10984e+17
1.82332e+18
3.00689e+18
4.14304e+18
5.21386e+18
6.20245e+18
7.09322e+18
7.87212e+18
8.52688e+18
9.04716e+18
9.42476e+18
9.65373e+18
9.73046e+18
9.65373e+18
9.42476e+18
9.04716e+18
8.52688e+18
7.87212e+18
7.09322e+18
6.20245e+18
5.21386e+18
4.14304e+18
3.00689e+18
1.82332e+18
6.10984e+17
6.10984e+17
1.82331e+18
3.00689e+18
4.14304e+18
5.21386e+18
6.20245e+18
7.09322e+18
7.87212e+18
8.52688e+18
9.04716e+18
9.42476e+18
9.65373e+18
9.73046e+18
9.65373e+18
9.42476e+18
9.04716e+18
8.52688e+18
7.87212e+18
7.09322e+18
6.20245e+18
5.21386e+18
4.14304e+18
3.00689e+18
1.82332e+18
6.10984e+17
5.14648e+17
1.53583e+18
2.53279e+18
3.4898e+18
4.39178e+18
5.22449e+18
5.97481e+18
6.6309e+18
7.18242e+18
7.62067e+18
7.93874e+18
8.13161e+18
8.19623e+18
8.13161e+18
7.93874e+18
7.62067e+18
7.18242e+18
6.6309e+18
5.97481e+18
5.22449e+18
4.39178e+18
3.4898e+18
2.53279e+18
1.53583e+18
5.14648e+17
5.2657e+17
1.5714e+18
2.59146e+18
3.57064e+18
4.49351e+18
5.34551e+18
6.11321e+18
6.7845e+18
7.3488e+18
7.79719e+18
8.12263e+18
8.31997e+18
8.38609e+18
8.31997e+18
8.12263e+18
7.79719e+18
7.3488e+18
6.7845e+18
6.11321e+18
5.34551e+18
4.49351e+18
3.57064e+18
2.59146e+18
1.5714e+18
5.26569e+17
5.12737e+17
1.53013e+18
2.52338e+18
3.47684e+18
4.37547e+18
5.20509e+18
5.95262e+18
6.60628e+18
7.15575e+18
7.59237e+18
7.90926e+18
8.10141e+18
8.1658e+18
8.10141e+18
7.90926e+18
7.59237e+18
7.15575e+18
6.60628e+18
5.95262e+18
5.20509e+18
4.37547e+18
3.47684e+18
2.52338e+18
1.53013e+18
5.12737e+17
5.23817e+17
1.56319e+18
2.57791e+18
3.55197e+18
4.47002e+18
5.31757e+18
6.08125e+18
6.74903e+18
7.31038e+18
7.75643e+18
8.08016e+18
8.27647e+18
8.34225e+18
8.27647e+18
8.08016e+18
7.75643e+18
7.31038e+18
6.74903e+18
6.08125e+18
5.31757e+18
4.47002e+18
3.55197e+18
2.57791e+18
1.56319e+18
5.23817e+17
5.23817e+17
1.56319e+18
2.57791e+18
3.55197e+18
4.47001e+18
5.31757e+18
6.08125e+18
6.74903e+18
7.31038e+18
7.75643e+18
8.08016e+18
8.27647e+18
8.34225e+18
8.27647e+18
8.08016e+18
7.75643e+18
7.31038e+18
6.74903e+18
6.08125e+18
5.31756e+18
4.47001e+18
3.55197e+18
2.57791e+18
1.56319e+18
5.23817e+17
5.12737e+17
1.53013e+18
2.52338e+18
3.47684e+18
4.37547e+18
5.20509e+18
5.95262e+18
6.60628e+18
7.15575e+18
7.59237e+18
7.90926e+18
8.10141e+18
8.1658e+18
8.10141e+18
7.90926e+18
7.59237e+18
7.15575e+18
6.60628e+18
5.95262e+18
5.20509e+18
4.37547e+18
3.47684e+18
2.52338e+18
1.53013e+18
5.12737e+17
5.2657e+17
1.5714e+18
2.59146e+18
3.57064e+18
4.49351e+18
5.34551e+18
6.11321e+18
6.7845e+18
7.3488e+18
7.7972e+18
8.12263e+18
8.31996e+18
8.38609e+18
8.31996e+18
8.12263e+18
7.7972e+18
7.3488e+18
6.7845e+18
6.11321e+18
5.34551e+18
4.49351e+18
3.57064e+18
2.59146e+18
1.5714e+18
5.2657e+17
5.14648e+17
1.53583e+18
2.53279e+18
3.4898e+18
4.39178e+18
5.22449e+18
5.97481e+18
6.6309e+18
7.18242e+18
7.62067e+18
7.93873e+18
8.1316e+18
8.19623e+18
8.1316e+18
7.93874e+18
7.62067e+18
7.18242e+18
6.6309e+18
5.97481e+18
5.22449e+18
4.39178e+18
3.4898e+18
2.53279e+18
1.53583e+18
5.14648e+17
5.23817e+17
1.56319e+18
2.57791e+18
3.55197e+18
4.47001e+18
5.31757e+18
6.08125e+18
6.74903e+18
7.31038e+18
7.75643e+18
8.08016e+18
8.27647e+18
8.34225e+18
8.27647e+18
8.08016e+18
7.75643e+18
7.31038e+18
6.74903e+18
6.08125e+18
5.31757e+18
4.47001e+18
3.55197e+18
2.57791e+18
1.56319e+18
5.23817e+17
5.12737e+17
1.53013e+18
2.52338e+18
3.47684e+18
4.37547e+18
5.20509e+18
5.95262e+18
6.60628e+18
7.15575e+18
7.59237e+18
7.90926e+18
8.10141e+18
8.1658e+18
8.10141e+18
7.90926e+18
7.59237e+18
7.15575e+18
6.60628e+18
5.95262e+18
5.20509e+18
4.37547e+18
3.47684e+18
2.52338e+18
1.53013e+18
5.12737e+17
5.12737e+17
1.53013e+18
2.52338e+18
3.47684e+18
4.37547e+18
5.20509e+18
5.95262e+18
6.60628e+18
7.15575e+18
7.59237e+18
7.90926e+18
8.10141e+18
8.1658e+18
8.10141e+18
7.90926e+18
7.59237e+18
7.15575e+18
6.60628e+18
5.95262e+18
5.20509e+18
4.37547e+18
3.47684e+18
2.52338e+18
1.53013e+18
5.12737e+17
5.23817e+17
1.56319e+18
2.57791e+18
3.55197e+18
4.47001e+18
5.31757e+18
6.08125e+18
6.74903e+18
7.31038e+18
7.75643e+18
8.08016e+18
8.27647e+18
8.34225e+18
8.27647e+18
8.08016e+18
7.75643e+18
7.31038e+18
6.74903e+18
6.08125e+18
5.31757e+18
4.47001e+18
3.55197e+18
2.57791e+18
1.56319e+18
5.23817e+17
)
;

boundaryField
{
    outletCentralUnloaded
    {
        type            fixedValue;
        value           uniform 0;
    }
    inletCentralUnloaded
    {
        type            fixedValue;
        value           uniform 0;
    }
    outletFuelElement
    {
        type            fixedValue;
        value           uniform 0;
    }
    inletFuelElement
    {
        type            fixedValue;
        value           uniform 0;
    }
    defaultFaces
    {
        type            zeroGradient;
    }
}


// ************************************************************************* //
