/*--------------------------------*- C++ -*----------------------------------*\
| =========                 |                                                 |
| \\      /  F ield         | OpenFOAM: The Open Source CFD Toolbox           |
|  \\    /   O peration     | Version:  2212                                  |
|   \\  /    A nd           | Website:  www.openfoam.com                      |
|    \\/     M anipulation  |                                                 |
\*---------------------------------------------------------------------------*/
FoamFile
{
    version     2.0;
    format      ascii;
    arch        "LSB;label=32;scalar=64";
    class       volScalarField;
    location    "71/neutroRegion";
    object      TCool;
}
// * * * * * * * * * * * * * * * * * * * * * * * * * * * * * * * * * * * * * //

dimensions      [0 0 0 1 0 0 0];

internalField   nonuniform List<scalar> 
350
(
83.289
83.2895
83.29
83.2905
83.291
83.2915
83.292
83.2925
83.2929
83.2933
83.2937
83.2941
83.2945
83.295
83.2955
83.296
83.2965
83.297
83.2974
83.2978
83.2982
83.2986
83.2991
83.2996
83.3002
83.289
83.2895
83.29
83.2905
83.291
83.2915
83.292
83.2925
83.2929
83.2933
83.2937
83.2941
83.2945
83.295
83.2955
83.296
83.2965
83.297
83.2974
83.2978
83.2982
83.2986
83.2991
83.2996
83.3002
1823.63
1817.45
1798.86
1768.08
1725.46
1671.5
1606.8
1532.13
1448.36
1356.49
1257.68
1153.26
1044.74
933.876
822.625
713.085
607.363
507.423
414.975
331.459
258.124
196.164
146.805
111.212
90.0855
1851.88
1845.92
1827.33
1796.33
1753.27
1698.66
1633.12
1557.41
1472.41
1379.15
1278.78
1172.64
1062.27
949.425
836.113
724.484
616.712
514.835
420.62
335.552
260.9
197.874
147.709
111.576
90.1629
1819.04
1812.84
1794.27
1763.55
1721.02
1667.17
1602.63
1528.14
1444.58
1352.95
1254.4
1150.25
1042.04
931.492
820.569
711.357
605.955
506.314
414.136
330.857
257.718
195.916
146.675
111.159
90.0731
1845.53
1839.5
1820.89
1789.93
1746.97
1692.49
1627.13
1551.64
1466.92
1373.96
1273.95
1168.19
1058.24
945.845
833.004
721.852
614.552
513.12
419.313
334.604
260.256
197.477
147.499
111.492
90.1451
1845.53
1839.5
1820.89
1789.93
1746.97
1692.49
1627.13
1551.64
1466.92
1373.96
1273.95
1168.19
1058.24
945.845
833.004
721.852
614.552
513.12
419.313
334.604
260.256
197.477
147.499
111.492
90.1451
1819.04
1812.84
1794.27
1763.55
1721.02
1667.18
1602.63
1528.14
1444.58
1352.95
1254.4
1150.26
1042.04
931.493
820.57
711.358
605.956
506.315
414.137
330.857
257.719
195.917
146.675
111.159
90.0731
1851.88
1845.92
1827.33
1796.33
1753.27
1698.66
1633.12
1557.41
1472.41
1379.15
1278.78
1172.64
1062.27
949.425
836.113
724.484
616.712
514.835
420.62
335.552
260.9
197.874
147.709
111.576
90.1629
1823.63
1817.45
1798.86
1768.08
1725.46
1671.5
1606.8
1532.13
1448.36
1356.49
1257.68
1153.26
1044.74
933.876
822.625
713.085
607.363
507.423
414.975
331.459
258.123
196.164
146.805
111.212
90.0855
1845.53
1839.5
1820.89
1789.93
1746.97
1692.49
1627.13
1551.64
1466.92
1373.96
1273.95
1168.19
1058.24
945.846
833.004
721.852
614.552
513.12
419.313
334.604
260.256
197.477
147.499
111.492
90.1451
1819.04
1812.84
1794.27
1763.55
1721.02
1667.17
1602.63
1528.14
1444.58
1352.95
1254.4
1150.25
1042.04
931.492
820.569
711.358
605.955
506.314
414.137
330.857
257.719
195.917
146.675
111.159
90.0731
1819.04
1812.84
1794.27
1763.55
1721.02
1667.18
1602.63
1528.14
1444.58
1352.95
1254.4
1150.26
1042.04
931.493
820.57
711.358
605.956
506.315
414.137
330.857
257.719
195.917
146.675
111.159
90.0731
1845.53
1839.5
1820.89
1789.93
1746.97
1692.49
1627.13
1551.64
1466.92
1373.96
1273.95
1168.19
1058.24
945.845
833.004
721.852
614.552
513.12
419.313
334.604
260.256
197.477
147.499
111.492
90.1451
)
;

boundaryField
{
    outletCentralUnloaded
    {
        type            zeroGradient;
    }
    inletCentralUnloaded
    {
        type            zeroGradient;
    }
    outletFuelElement
    {
        type            zeroGradient;
    }
    inletFuelElement
    {
        type            zeroGradient;
    }
    defaultFaces
    {
        type            zeroGradient;
    }
}


// ************************************************************************* //
