/*--------------------------------*- C++ -*----------------------------------*\
| =========                 |                                                 |
| \\      /  F ield         | OpenFOAM: The Open Source CFD Toolbox           |
|  \\    /   O peration     | Version:  2212                                  |
|   \\  /    A nd           | Website:  www.openfoam.com                      |
|    \\/     M anipulation  |                                                 |
\*---------------------------------------------------------------------------*/
FoamFile
{
    version     2.0;
    format      ascii;
    arch        "LSB;label=32;scalar=64";
    class       volScalarField;
    location    "71/neutroRegion";
    object      TFuel;
}
// * * * * * * * * * * * * * * * * * * * * * * * * * * * * * * * * * * * * * //

dimensions      [0 0 0 1 0 0 0];

internalField   nonuniform List<scalar> 
350
(
0
0
0
0
0
0
0
0
0
0
0
0
0
0
0
0
0
0
0
0
0
0
0
0
0
0
0
0
0
0
0
0
0
0
0
0
0
0
0
0
0
0
0
0
0
0
0
0
0
0
2223.06
3010.1
3766.43
4480.52
5141.43
5738.99
6263.99
6708.34
7065.14
7328.87
7495.43
7562.24
7528.31
7394.21
7162.14
6835.78
6420.21
5921.55
5346.57
4702.11
3993.77
3225.04
2395.59
1504.34
564.396
2255.83
3052.07
3817.16
4539.45
5207.87
5812.13
6342.93
6792.07
7152.59
7418.9
7586.88
7653.9
7618.97
7482.67
7247.22
6916.38
6495.3
5990.24
5408.07
4755.78
4039.05
3261.41
2422.43
1520.87
569.943
2217.75
3003.35
3758.3
4471.11
5130.84
5727.35
6251.45
6695.04
7051.26
7314.59
7480.94
7547.73
7513.96
7380.22
7148.68
6823.04
6408.34
5910.69
5336.85
4693.63
3986.63
3219.31
2391.38
1501.76
563.522
2248.44
3042.54
3805.61
4525.99
5192.67
5795.37
6324.82
6772.84
7132.5
7398.21
7565.84
7632.82
7598.1
7462.31
7227.63
6897.82
6478.01
5974.41
5393.9
4743.41
4028.62
3253.03
2416.24
1517.06
568.665
2248.44
3042.54
3805.61
4525.99
5192.66
5795.37
6324.82
6772.84
7132.5
7398.21
7565.84
7632.81
7598.1
7462.3
7227.63
6897.82
6478.01
5974.41
5393.9
4743.41
4028.62
3253.03
2416.24
1517.06
568.665
2217.75
3003.35
3758.31
4471.11
5130.84
5727.35
6251.45
6695.04
7051.26
7314.59
7480.94
7547.73
7513.96
7380.22
7148.68
6823.04
6408.34
5910.7
5336.85
4693.63
3986.63
3219.32
2391.38
1501.76
563.522
2255.83
3052.07
3817.16
4539.45
5207.87
5812.13
6342.93
6792.07
7152.59
7418.9
7586.88
7653.9
7618.97
7482.67
7247.22
6916.38
6495.3
5990.24
5408.07
4755.78
4039.05
3261.41
2422.43
1520.87
569.943
2223.06
3010.1
3766.43
4480.52
5141.43
5738.99
6263.99
6708.34
7065.14
7328.87
7495.43
7562.24
7528.31
7394.21
7162.14
6835.78
6420.21
5921.55
5346.57
4702.11
3993.77
3225.04
2395.59
1504.34
564.396
2248.44
3042.54
3805.61
4525.99
5192.66
5795.37
6324.82
6772.84
7132.5
7398.21
7565.84
7632.81
7598.1
7462.31
7227.63
6897.82
6478.01
5974.41
5393.9
4743.41
4028.62
3253.03
2416.24
1517.06
568.665
2217.75
3003.35
3758.3
4471.11
5130.84
5727.35
6251.45
6695.04
7051.26
7314.59
7480.94
7547.73
7513.96
7380.22
7148.68
6823.04
6408.34
5910.69
5336.85
4693.63
3986.63
3219.31
2391.38
1501.76
563.522
2217.75
3003.35
3758.3
4471.11
5130.84
5727.35
6251.45
6695.04
7051.26
7314.59
7480.94
7547.73
7513.96
7380.22
7148.68
6823.04
6408.34
5910.7
5336.85
4693.64
3986.63
3219.31
2391.38
1501.76
563.522
2248.44
3042.54
3805.61
4525.99
5192.66
5795.37
6324.82
6772.84
7132.5
7398.21
7565.84
7632.81
7598.1
7462.3
7227.63
6897.82
6478
5974.41
5393.9
4743.41
4028.62
3253.03
2416.24
1517.06
568.665
)
;

boundaryField
{
    outletCentralUnloaded
    {
        type            zeroGradient;
    }
    inletCentralUnloaded
    {
        type            zeroGradient;
    }
    outletFuelElement
    {
        type            zeroGradient;
    }
    inletFuelElement
    {
        type            zeroGradient;
    }
    defaultFaces
    {
        type            zeroGradient;
    }
}


// ************************************************************************* //
