/*--------------------------------*- C++ -*----------------------------------*\
| =========                 |                                                 |
| \\      /  F ield         | OpenFOAM: The Open Source CFD Toolbox           |
|  \\    /   O peration     | Version:  2212                                  |
|   \\  /    A nd           | Website:  www.openfoam.com                      |
|    \\/     M anipulation  |                                                 |
\*---------------------------------------------------------------------------*/
FoamFile
{
    version     2.0;
    format      ascii;
    arch        "LSB;label=32;scalar=64";
    class       volScalarField;
    location    "40/fluidRegion";
    object      epsilon;
}
// * * * * * * * * * * * * * * * * * * * * * * * * * * * * * * * * * * * * * //

dimensions      [0 2 -3 0 0 0 0];

internalField   nonuniform List<scalar> 
350
(
66.9811
66.9646
66.9482
66.9318
66.9153
66.8987
66.8821
66.8655
66.849
66.8328
66.817
66.8017
66.7872
66.7738
66.7619
66.7525
66.7466
66.7464
66.7549
66.7766
66.8186
66.8916
67.012
67.2046
67.5074
66.9811
66.9646
66.9482
66.9318
66.9153
66.8987
66.8821
66.8655
66.849
66.8328
66.817
66.8017
66.7872
66.7738
66.7619
66.7525
66.7466
66.7464
66.7549
66.7766
66.8186
66.8916
67.012
67.2046
67.5074
7.54285e+06
6.94617e+06
6.2842e+06
5.57746e+06
4.85358e+06
4.13794e+06
3.45261e+06
2.81561e+06
2.24047e+06
1.73608e+06
1.30686e+06
953066
671272
455055
295791
183595
108309
60407.5
31666.4
15522
7114.71
3105.53
1383.06
735.529
547.431
7.70565e+06
7.09755e+06
6.42281e+06
5.70184e+06
4.96293e+06
4.23207e+06
3.53186e+06
2.88075e+06
2.29264e+06
1.77668e+06
1.33748e+06
975336
686831
465439
302375
187536
110520
61559
32216.1
15758.1
7203.46
3133.63
1390.18
736.964
547.853
7.5162e+06
6.92133e+06
6.26156e+06
5.55722e+06
4.83585e+06
4.12273e+06
3.43986e+06
2.80517e+06
2.23213e+06
1.72961e+06
1.30201e+06
949545
668819
453421
294756
182975
107961
60225.4
31578.6
15483.6
7099.63
3100.3
1381.44
735.043
547.258
7.66959e+06
7.06396e+06
6.39197e+06
5.67409e+06
4.93848e+06
4.21098e+06
3.51407e+06
2.8661e+06
2.28087e+06
1.76751e+06
1.33054e+06
970282
683293
463074
300873
186635
110015
61295.5
32090.3
15704.1
7183.22
3127.27
1388.6
736.666
547.773
7.66959e+06
7.06396e+06
6.39197e+06
5.67409e+06
4.93848e+06
4.21098e+06
3.51407e+06
2.8661e+06
2.28087e+06
1.76751e+06
1.33054e+06
970282
683293
463074
300873
186635
110014
61295.5
32090.3
15704.1
7183.22
3127.27
1388.6
736.666
547.774
7.51622e+06
6.92134e+06
6.26158e+06
5.55723e+06
4.83586e+06
4.12274e+06
3.43987e+06
2.80518e+06
2.23214e+06
1.72962e+06
1.30201e+06
949546
668820
453422
294756
182975
107961
60225.3
31578.5
15483.5
7099.6
3100.29
1381.43
735.038
547.255
7.70565e+06
7.09755e+06
6.42281e+06
5.70184e+06
4.96293e+06
4.23207e+06
3.53186e+06
2.88075e+06
2.29264e+06
1.77668e+06
1.33748e+06
975336
686831
465440
302375
187536
110520
61559
32216.1
15758.1
7203.46
3133.63
1390.18
736.964
547.854
7.54285e+06
6.94617e+06
6.2842e+06
5.57746e+06
4.85358e+06
4.13794e+06
3.45261e+06
2.81561e+06
2.24047e+06
1.73608e+06
1.30686e+06
953066
671273
455055
295791
183595
108309
60407.5
31666.4
15522
7114.7
3105.52
1383.05
735.525
547.428
7.66959e+06
7.06396e+06
6.39196e+06
5.67409e+06
4.93848e+06
4.21098e+06
3.51407e+06
2.86609e+06
2.28087e+06
1.76751e+06
1.33054e+06
970282
683293
463074
300873
186635
110014
61295.5
32090.3
15704.1
7183.22
3127.26
1388.6
736.664
547.772
7.5162e+06
6.92133e+06
6.26156e+06
5.55722e+06
4.83585e+06
4.12273e+06
3.43986e+06
2.80517e+06
2.23213e+06
1.72961e+06
1.30201e+06
949545
668820
453422
294756
182975
107961
60225.4
31578.6
15483.6
7099.66
3100.33
1381.46
735.053
547.265
7.51622e+06
6.92134e+06
6.26157e+06
5.55723e+06
4.83586e+06
4.12274e+06
3.43987e+06
2.80518e+06
2.23214e+06
1.72962e+06
1.30201e+06
949546
668820
453422
294756
182975
107961
60225.3
31578.5
15483.5
7099.59
3100.29
1381.43
735.04
547.257
7.66959e+06
7.06396e+06
6.39197e+06
5.67409e+06
4.93848e+06
4.21098e+06
3.51407e+06
2.8661e+06
2.28087e+06
1.76751e+06
1.33054e+06
970282
683293
463074
300872
186635
110014
61295.4
32090.2
15704.1
7183.19
3127.25
1388.59
736.66
547.769
)
;

boundaryField
{
    outletCentralUnloaded
    {
        type            zeroGradient;
    }
    inletCentralUnloaded
    {
        type            zeroGradient;
    }
    outletFuelElement
    {
        type            zeroGradient;
    }
    inletFuelElement
    {
        type            zeroGradient;
    }
    defaultFaces
    {
        type            zeroGradient;
    }
    baffle_master
    {
        type            zeroGradient;
    }
    baffle_slave
    {
        type            zeroGradient;
    }
}


// ************************************************************************* //
