/*--------------------------------*- C++ -*----------------------------------*\
| =========                 |                                                 |
| \\      /  F ield         | OpenFOAM: The Open Source CFD Toolbox           |
|  \\    /   O peration     | Version:  2212                                  |
|   \\  /    A nd           | Website:  www.openfoam.com                      |
|    \\/     M anipulation  |                                                 |
\*---------------------------------------------------------------------------*/
FoamFile
{
    version     2.0;
    format      ascii;
    arch        "LSB;label=32;scalar=64";
    class       volScalarField;
    location    "40/fluidRegion";
    object      nut;
}
// * * * * * * * * * * * * * * * * * * * * * * * * * * * * * * * * * * * * * //

dimensions      [0 2 -1 0 0 0 0];

internalField   nonuniform List<scalar> 
350
(
0.000537586
0.000537545
0.000537507
0.00053747
0.000537433
0.000537393
0.000537348
0.0005373
0.00053725
0.0005372
0.000537151
0.000537107
0.000537067
0.000537033
0.000537005
0.000536983
0.000536969
0.000536969
0.000536989
0.000537042
0.000537146
0.000537328
0.000537629
0.000538114
0.000539502
0.000537586
0.000537545
0.000537507
0.00053747
0.000537433
0.000537393
0.000537348
0.0005373
0.00053725
0.0005372
0.000537151
0.000537107
0.000537067
0.000537033
0.000537005
0.000536983
0.000536969
0.000536969
0.000536989
0.000537042
0.000537146
0.000537328
0.000537629
0.000538114
0.000539502
0.0103675
0.0101517
0.00988403
0.00956033
0.00918552
0.00876477
0.00830342
0.00780698
0.00728109
0.00673162
0.00616474
0.00558704
0.00500565
0.00442834
0.00386336
0.00331919
0.00280398
0.00232509
0.00188874
0.00150016
0.00116395
0.000884567
0.000666262
0.000511602
0.000416383
0.0104343
0.0102174
0.00994884
0.0096237
0.00924704
0.00882404
0.00836008
0.00786068
0.00733152
0.00677849
0.00620778
0.005626
0.00504034
0.00445862
0.00388919
0.00334064
0.00282125
0.00233849
0.00189869
0.00150712
0.00116843
0.000887109
0.000667442
0.00051198
0.000416449
0.0103567
0.0101409
0.00987344
0.00955001
0.00917553
0.00875518
0.00829428
0.00779834
0.007273
0.00672413
0.00615788
0.00558085
0.00500015
0.00442354
0.00385927
0.00331579
0.00280124
0.00232294
0.00188713
0.00149901
0.00116317
0.000884078
0.00066598
0.000511452
0.000416333
0.0104195
0.0102029
0.00993445
0.0096096
0.00923332
0.00881079
0.00834739
0.00784863
0.00732018
0.00676793
0.00619807
0.00561719
0.00503248
0.00445175
0.00388332
0.00333576
0.00281732
0.00233544
0.00189642
0.00150554
0.00116741
0.000886537
0.000667183
0.000511905
0.000416441
0.0104195
0.0102029
0.00993445
0.0096096
0.00923332
0.00881079
0.00834739
0.00784863
0.00732018
0.00676793
0.00619807
0.00561719
0.00503248
0.00445175
0.00388332
0.00333576
0.00281732
0.00233544
0.00189642
0.00150554
0.00116741
0.000886537
0.000667183
0.000511905
0.00041644
0.0103567
0.0101409
0.00987345
0.00955001
0.00917554
0.00875518
0.00829429
0.00779835
0.00727301
0.00672414
0.00615789
0.00558085
0.00500016
0.00442355
0.00385928
0.0033158
0.00280124
0.00232295
0.00188713
0.00149901
0.00116317
0.000884079
0.000665981
0.000511453
0.000416334
0.0104343
0.0102174
0.00994884
0.0096237
0.00924704
0.00882404
0.00836008
0.00786068
0.00733152
0.00677849
0.00620778
0.005626
0.00504034
0.00445862
0.00388919
0.00334064
0.00282125
0.00233849
0.00189869
0.00150712
0.00116843
0.000887109
0.000667442
0.00051198
0.000416449
0.0103675
0.0101517
0.00988403
0.00956033
0.00918552
0.00876477
0.00830342
0.00780698
0.00728109
0.00673162
0.00616474
0.00558704
0.00500565
0.00442834
0.00386336
0.00331919
0.00280398
0.00232509
0.00188874
0.00150016
0.00116395
0.000884569
0.000666266
0.000511606
0.000416388
0.0104195
0.0102029
0.00993445
0.0096096
0.00923332
0.00881079
0.00834739
0.00784863
0.00732018
0.00676793
0.00619807
0.00561719
0.00503248
0.00445175
0.00388332
0.00333576
0.00281732
0.00233544
0.00189642
0.00150554
0.00116741
0.000886538
0.000667184
0.000511907
0.000416442
0.0103567
0.0101409
0.00987344
0.00955001
0.00917553
0.00875518
0.00829428
0.00779834
0.007273
0.00672413
0.00615788
0.00558085
0.00500015
0.00442354
0.00385927
0.00331579
0.00280124
0.00232294
0.00188713
0.001499
0.00116317
0.000884072
0.000665973
0.000511444
0.000416324
0.0103567
0.0101409
0.00987345
0.00955002
0.00917554
0.00875518
0.00829429
0.00779835
0.00727301
0.00672414
0.00615789
0.00558085
0.00500016
0.00442355
0.00385928
0.0033158
0.00280124
0.00232295
0.00188714
0.00149901
0.00116317
0.000884079
0.000665981
0.000511452
0.000416332
0.0104195
0.0102029
0.00993445
0.0096096
0.00923332
0.00881079
0.00834739
0.00784863
0.00732018
0.00676793
0.00619807
0.00561719
0.00503248
0.00445175
0.00388332
0.00333576
0.00281732
0.00233544
0.00189643
0.00150554
0.00116742
0.000886542
0.000667189
0.000511912
0.000416448
)
;

boundaryField
{
    outletCentralUnloaded
    {
        type            zeroGradient;
    }
    inletCentralUnloaded
    {
        type            zeroGradient;
    }
    outletFuelElement
    {
        type            zeroGradient;
    }
    inletFuelElement
    {
        type            zeroGradient;
    }
    defaultFaces
    {
        type            zeroGradient;
    }
    baffle_master
    {
        type            calculated;
        value           nonuniform List<scalar> 
150
(
0.000537586
0.000537586
0.000537586
0.000537545
0.000537545
0.000537545
0.000537507
0.000537507
0.000537507
0.00053747
0.00053747
0.00053747
0.000537433
0.000537433
0.000537433
0.000537393
0.000537393
0.000537393
0.000537348
0.000537348
0.000537348
0.0005373
0.0005373
0.0005373
0.00053725
0.00053725
0.00053725
0.0005372
0.0005372
0.0005372
0.000537151
0.000537151
0.000537151
0.000537107
0.000537107
0.000537107
0.000537067
0.000537067
0.000537067
0.000537033
0.000537033
0.000537033
0.000537005
0.000537005
0.000537005
0.000536983
0.000536983
0.000536983
0.000536969
0.000536969
0.000536969
0.000536969
0.000536969
0.000536969
0.000536989
0.000536989
0.000536989
0.000537042
0.000537042
0.000537042
0.000537146
0.000537146
0.000537146
0.000537328
0.000537328
0.000537328
0.000537629
0.000537629
0.000537629
0.000538114
0.000538114
0.000538114
0.000539502
0.000539502
0.000539502
0.000537586
0.000537586
0.000537586
0.000537545
0.000537545
0.000537545
0.000537507
0.000537507
0.000537507
0.00053747
0.00053747
0.00053747
0.000537433
0.000537433
0.000537433
0.000537393
0.000537393
0.000537393
0.000537348
0.000537348
0.000537348
0.0005373
0.0005373
0.0005373
0.00053725
0.00053725
0.00053725
0.0005372
0.0005372
0.0005372
0.000537151
0.000537151
0.000537151
0.000537107
0.000537107
0.000537107
0.000537067
0.000537067
0.000537067
0.000537033
0.000537033
0.000537033
0.000537005
0.000537005
0.000537005
0.000536983
0.000536983
0.000536983
0.000536969
0.000536969
0.000536969
0.000536969
0.000536969
0.000536969
0.000536989
0.000536989
0.000536989
0.000537042
0.000537042
0.000537042
0.000537146
0.000537146
0.000537146
0.000537328
0.000537328
0.000537328
0.000537629
0.000537629
0.000537629
0.000538114
0.000538114
0.000538114
0.000539502
0.000539502
0.000539502
)
;
    }
    baffle_slave
    {
        type            calculated;
        value           nonuniform List<scalar> 
150
(
0.0104343
0.0104195
0.0104195
0.0102174
0.0102029
0.0102029
0.00994884
0.00993445
0.00993445
0.0096237
0.0096096
0.0096096
0.00924704
0.00923332
0.00923332
0.00882404
0.00881079
0.00881079
0.00836008
0.00834739
0.00834739
0.00786068
0.00784863
0.00784863
0.00733152
0.00732018
0.00732018
0.00677849
0.00676793
0.00676793
0.00620778
0.00619807
0.00619807
0.005626
0.00561719
0.00561719
0.00504034
0.00503248
0.00503248
0.00445862
0.00445175
0.00445175
0.00388919
0.00388332
0.00388332
0.00334064
0.00333576
0.00333576
0.00282125
0.00281732
0.00281732
0.00233849
0.00233544
0.00233544
0.00189869
0.00189642
0.00189643
0.00150712
0.00150554
0.00150554
0.00116843
0.00116741
0.00116742
0.000887109
0.000886537
0.000886542
0.000667442
0.000667183
0.000667189
0.00051198
0.000511905
0.000511912
0.000416449
0.000416441
0.000416448
0.0104195
0.0104343
0.0104195
0.0102029
0.0102174
0.0102029
0.00993445
0.00994884
0.00993445
0.0096096
0.0096237
0.0096096
0.00923332
0.00924704
0.00923332
0.00881079
0.00882404
0.00881079
0.00834739
0.00836008
0.00834739
0.00784863
0.00786068
0.00784863
0.00732018
0.00733152
0.00732018
0.00676793
0.00677849
0.00676793
0.00619807
0.00620778
0.00619807
0.00561719
0.005626
0.00561719
0.00503248
0.00504034
0.00503248
0.00445175
0.00445862
0.00445175
0.00388332
0.00388919
0.00388332
0.00333576
0.00334064
0.00333576
0.00281732
0.00282125
0.00281732
0.00233544
0.00233849
0.00233544
0.00189642
0.00189869
0.00189642
0.00150554
0.00150712
0.00150554
0.00116741
0.00116843
0.00116741
0.000886537
0.000887109
0.000886538
0.000667183
0.000667442
0.000667184
0.000511905
0.00051198
0.000511907
0.00041644
0.000416449
0.000416442
)
;
    }
}


// ************************************************************************* //
