/*--------------------------------*- C++ -*----------------------------------*\
| =========                 |                                                 |
| \\      /  F ield         | OpenFOAM: The Open Source CFD Toolbox           |
|  \\    /   O peration     | Version:  2212                                  |
|   \\  /    A nd           | Website:  www.openfoam.com                      |
|    \\/     M anipulation  |                                                 |
\*---------------------------------------------------------------------------*/
FoamFile
{
    version     2.0;
    format      ascii;
    arch        "LSB;label=32;scalar=64";
    class       volScalarField;
    location    "40/fluidRegion";
    object      p;
}
// * * * * * * * * * * * * * * * * * * * * * * * * * * * * * * * * * * * * * //

dimensions      [1 -1 -2 0 0 0 0];

internalField   nonuniform List<scalar> 
350
(
3.44743e+06
3.44773e+06
3.44802e+06
3.44832e+06
3.44861e+06
3.44891e+06
3.4492e+06
3.4495e+06
3.44979e+06
3.45009e+06
3.45038e+06
3.45068e+06
3.45098e+06
3.45127e+06
3.45157e+06
3.45186e+06
3.45216e+06
3.45245e+06
3.45275e+06
3.45304e+06
3.45334e+06
3.45363e+06
3.45393e+06
3.45422e+06
3.45451e+06
3.44743e+06
3.44773e+06
3.44802e+06
3.44832e+06
3.44861e+06
3.44891e+06
3.4492e+06
3.4495e+06
3.44979e+06
3.45009e+06
3.45038e+06
3.45068e+06
3.45098e+06
3.45127e+06
3.45157e+06
3.45186e+06
3.45216e+06
3.45245e+06
3.45275e+06
3.45304e+06
3.45334e+06
3.45363e+06
3.45393e+06
3.45422e+06
3.45451e+06
3.47367e+06
3.52518e+06
3.5761e+06
3.62613e+06
3.67494e+06
3.72228e+06
3.76786e+06
3.81146e+06
3.85286e+06
3.89189e+06
3.92837e+06
3.96217e+06
3.99317e+06
4.02131e+06
4.04653e+06
4.06883e+06
4.08825e+06
4.10488e+06
4.11887e+06
4.13038e+06
4.13961e+06
4.14679e+06
4.15216e+06
4.15601e+06
4.15868e+06
3.47367e+06
3.52518e+06
3.5761e+06
3.62613e+06
3.67494e+06
3.72228e+06
3.76786e+06
3.81146e+06
3.85286e+06
3.89189e+06
3.92837e+06
3.96217e+06
3.99317e+06
4.02131e+06
4.04653e+06
4.06883e+06
4.08825e+06
4.10488e+06
4.11887e+06
4.13038e+06
4.13961e+06
4.14679e+06
4.15216e+06
4.15601e+06
4.15868e+06
3.47367e+06
3.52518e+06
3.5761e+06
3.62613e+06
3.67494e+06
3.72228e+06
3.76786e+06
3.81146e+06
3.85286e+06
3.89189e+06
3.92837e+06
3.96217e+06
3.99317e+06
4.02131e+06
4.04653e+06
4.06883e+06
4.08825e+06
4.10488e+06
4.11887e+06
4.13038e+06
4.13961e+06
4.14679e+06
4.15216e+06
4.15601e+06
4.15868e+06
3.47367e+06
3.52518e+06
3.5761e+06
3.62613e+06
3.67494e+06
3.72228e+06
3.76786e+06
3.81146e+06
3.85286e+06
3.89189e+06
3.92837e+06
3.96217e+06
3.99317e+06
4.02131e+06
4.04653e+06
4.06883e+06
4.08825e+06
4.10488e+06
4.11887e+06
4.13038e+06
4.13961e+06
4.14679e+06
4.15216e+06
4.15601e+06
4.15868e+06
3.47367e+06
3.52518e+06
3.5761e+06
3.62613e+06
3.67494e+06
3.72228e+06
3.76786e+06
3.81146e+06
3.85286e+06
3.89189e+06
3.92837e+06
3.96217e+06
3.99317e+06
4.02131e+06
4.04653e+06
4.06883e+06
4.08825e+06
4.10488e+06
4.11887e+06
4.13038e+06
4.13961e+06
4.14679e+06
4.15216e+06
4.15601e+06
4.15868e+06
3.47367e+06
3.52518e+06
3.5761e+06
3.62613e+06
3.67494e+06
3.72228e+06
3.76786e+06
3.81146e+06
3.85286e+06
3.89189e+06
3.92837e+06
3.96217e+06
3.99317e+06
4.02131e+06
4.04653e+06
4.06883e+06
4.08825e+06
4.10488e+06
4.11887e+06
4.13038e+06
4.13961e+06
4.14679e+06
4.15216e+06
4.15601e+06
4.15868e+06
3.47367e+06
3.52518e+06
3.5761e+06
3.62613e+06
3.67494e+06
3.72228e+06
3.76786e+06
3.81146e+06
3.85286e+06
3.89189e+06
3.92837e+06
3.96217e+06
3.99317e+06
4.02131e+06
4.04653e+06
4.06883e+06
4.08825e+06
4.10488e+06
4.11887e+06
4.13038e+06
4.13961e+06
4.14679e+06
4.15216e+06
4.15601e+06
4.15868e+06
3.47367e+06
3.52518e+06
3.5761e+06
3.62613e+06
3.67494e+06
3.72228e+06
3.76786e+06
3.81146e+06
3.85286e+06
3.89189e+06
3.92837e+06
3.96217e+06
3.99317e+06
4.02131e+06
4.04653e+06
4.06883e+06
4.08825e+06
4.10488e+06
4.11887e+06
4.13038e+06
4.13961e+06
4.14679e+06
4.15216e+06
4.15601e+06
4.15868e+06
3.47367e+06
3.52518e+06
3.5761e+06
3.62613e+06
3.67494e+06
3.72228e+06
3.76786e+06
3.81146e+06
3.85286e+06
3.89189e+06
3.92837e+06
3.96217e+06
3.99317e+06
4.02131e+06
4.04653e+06
4.06883e+06
4.08825e+06
4.10488e+06
4.11887e+06
4.13038e+06
4.13961e+06
4.14679e+06
4.15216e+06
4.15601e+06
4.15868e+06
3.47367e+06
3.52518e+06
3.5761e+06
3.62613e+06
3.67494e+06
3.72228e+06
3.76786e+06
3.81146e+06
3.85286e+06
3.89189e+06
3.92837e+06
3.96217e+06
3.99317e+06
4.02131e+06
4.04653e+06
4.06883e+06
4.08825e+06
4.10488e+06
4.11887e+06
4.13038e+06
4.13961e+06
4.14679e+06
4.15216e+06
4.15601e+06
4.15868e+06
3.47367e+06
3.52518e+06
3.5761e+06
3.62613e+06
3.67494e+06
3.72228e+06
3.76786e+06
3.81146e+06
3.85286e+06
3.89189e+06
3.92837e+06
3.96217e+06
3.99317e+06
4.02131e+06
4.04653e+06
4.06883e+06
4.08825e+06
4.10488e+06
4.11887e+06
4.13038e+06
4.13961e+06
4.14679e+06
4.15216e+06
4.15601e+06
4.15868e+06
3.47367e+06
3.52518e+06
3.5761e+06
3.62613e+06
3.67494e+06
3.72228e+06
3.76786e+06
3.81146e+06
3.85286e+06
3.89189e+06
3.92837e+06
3.96217e+06
3.99317e+06
4.02131e+06
4.04653e+06
4.06883e+06
4.08825e+06
4.10488e+06
4.11887e+06
4.13038e+06
4.13961e+06
4.14679e+06
4.15216e+06
4.15601e+06
4.15868e+06
)
;

boundaryField
{
    outletCentralUnloaded
    {
        type            fixedValue;
        value           uniform 3.44728e+06;
    }
    inletCentralUnloaded
    {
        type            zeroGradient;
    }
    outletFuelElement
    {
        type            fixedValue;
        value           uniform 3.44728e+06;
    }
    inletFuelElement
    {
        type            zeroGradient;
    }
    defaultFaces
    {
        type            zeroGradient;
    }
    baffle_master
    {
        type            zeroGradient;
    }
    baffle_slave
    {
        type            zeroGradient;
    }
}


// ************************************************************************* //
