/*--------------------------------*- C++ -*----------------------------------*\
| =========                 |                                                 |
| \\      /  F ield         | OpenFOAM: The Open Source CFD Toolbox           |
|  \\    /   O peration     | Version:  2212                                  |
|   \\  /    A nd           | Website:  www.openfoam.com                      |
|    \\/     M anipulation  |                                                 |
\*---------------------------------------------------------------------------*/
FoamFile
{
    version     2.0;
    format      ascii;
    arch        "LSB;label=32;scalar=64";
    class       volScalarField;
    location    "40/fluidRegion";
    object      Re;
}
// * * * * * * * * * * * * * * * * * * * * * * * * * * * * * * * * * * * * * //

dimensions      [0 0 0 0 0 0 0];

internalField   nonuniform List<scalar> 
350
(
174018
174022
174027
174034
174039
174041
174042
174039
174035
174030
174025
174021
174020
174020
174022
174024
174027
174028
174029
174029
174030
174029
174029
174029
174391
174018
174022
174027
174034
174039
174041
174042
174039
174035
174030
174025
174021
174020
174020
174022
174024
174027
174028
174029
174029
174030
174029
174029
174029
174391
55380.1
55327.7
55329
55329.3
55328.3
55326
55322.2
55316.6
55309.2
55299.6
55287.7
55273.6
55257.2
55238.6
55217.4
55192.6
55162.5
55125.1
55079.7
55032.2
55002.3
55049.4
55316.5
56057.5
56535.7
54891.2
54831.1
54828.2
54824.3
54819.4
54813.5
54806.3
54797.6
54787.2
54775
54761
54745.6
54729.6
54713.9
54699.2
54685.6
54671.7
54656
54637.7
54623.2
54633.5
54731.4
55065.9
55896.9
56483.4
55462
55409.1
55410.9
55411.5
55410.8
55408.6
55404.9
55399.5
55392.1
55382.5
55370.5
55356
55338.9
55319.1
55296.2
55268.8
55235.2
55193.4
55142.7
55088.8
55051.1
55088.3
55343.1
56069.5
56537.6
55000.5
54942.6
54940.9
54938.1
54934.3
54929.4
54923.2
54915.4
54905.9
54894.4
54881.1
54866.2
54850.3
54834.1
54818.1
54802.2
54784.8
54764.3
54740
54718.1
54719.3
54805.8
55125
55935.6
56496.4
55000.5
54942.6
54940.9
54938.1
54934.3
54929.4
54923.2
54915.4
54905.9
54894.4
54881.1
54866.2
54850.3
54834.1
54818.1
54802.2
54784.8
54764.3
54740
54718.1
54719.3
54805.8
55125
55935.6
56496.4
55461.9
55409.1
55410.9
55411.5
55410.7
55408.6
55404.9
55399.5
55392.1
55382.4
55370.4
55355.9
55338.8
55319.1
55296.1
55268.8
55235.1
55193.3
55142.6
55088.7
55051
55088.2
55342.9
56069.4
56537.5
54891.2
54831.1
54828.2
54824.3
54819.4
54813.5
54806.3
54797.6
54787.2
54775
54761
54745.6
54729.6
54713.9
54699.2
54685.5
54671.7
54656
54637.7
54623.2
54633.5
54731.4
55065.9
55896.9
56483.4
55380.1
55327.7
55329
55329.3
55328.3
55326
55322.2
55316.6
55309.2
55299.6
55287.7
55273.6
55257.2
55238.6
55217.4
55192.6
55162.5
55125.1
55079.7
55032.2
55002.3
55049.4
55316.5
56057.5
56535.7
55000.5
54942.6
54940.9
54938.1
54934.3
54929.4
54923.2
54915.4
54905.9
54894.4
54881.1
54866.2
54850.3
54834.1
54818.1
54802.2
54784.8
54764.3
54740
54718.1
54719.3
54805.8
55125
55935.6
56496.4
55462
55409.1
55410.9
55411.5
55410.8
55408.6
55404.9
55399.5
55392.1
55382.5
55370.5
55356
55338.9
55319.1
55296.2
55268.8
55235.2
55193.4
55142.7
55088.8
55051.1
55088.3
55343.1
56069.6
56537.6
55461.9
55409.1
55410.9
55411.5
55410.7
55408.6
55404.9
55399.5
55392.1
55382.4
55370.4
55355.9
55338.8
55319.1
55296.1
55268.8
55235.2
55193.3
55142.6
55088.7
55051
55088.2
55342.9
56069.4
56537.5
55000.5
54942.6
54940.9
54938.1
54934.3
54929.4
54923.2
54915.4
54905.9
54894.4
54881.1
54866.2
54850.3
54834.1
54818.1
54802.2
54784.8
54764.3
54740
54718.1
54719.3
54805.8
55125
55935.6
56496.4
)
;

boundaryField
{
    outletCentralUnloaded
    {
        type            zeroGradient;
    }
    inletCentralUnloaded
    {
        type            zeroGradient;
    }
    outletFuelElement
    {
        type            zeroGradient;
    }
    inletFuelElement
    {
        type            zeroGradient;
    }
    defaultFaces
    {
        type            zeroGradient;
    }
    baffle_master
    {
        type            zeroGradient;
    }
    baffle_slave
    {
        type            zeroGradient;
    }
}


// ************************************************************************* //
