/*--------------------------------*- C++ -*----------------------------------*\
| =========                 |                                                 |
| \\      /  F ield         | OpenFOAM: The Open Source CFD Toolbox           |
|  \\    /   O peration     | Version:  2212                                  |
|   \\  /    A nd           | Website:  www.openfoam.com                      |
|    \\/     M anipulation  |                                                 |
\*---------------------------------------------------------------------------*/
FoamFile
{
    version     2.0;
    format      ascii;
    arch        "LSB;label=32;scalar=64";
    class       volScalarField;
    location    "40/fluidRegion";
    object      Tcav.nuclearFuelPin;
}
// * * * * * * * * * * * * * * * * * * * * * * * * * * * * * * * * * * * * * //

dimensions      [0 0 0 1 0 0 0];

internalField   nonuniform List<scalar> 
350
(
0
0
0
0
0
0
0
0
0
0
0
0
0
0
0
0
0
0
0
0
0
0
0
0
0
0
0
0
0
0
0
0
0
0
0
0
0
0
0
0
0
0
0
0
0
0
0
0
0
0
1836.01
1874.56
1900.17
1912.82
1912.65
1899.93
1875.08
1838.68
1791.42
1734.16
1667.87
1593.66
1512.74
1426.45
1336.22
1243.51
1149.72
1055.88
962.399
868.434
771.07
664.038
536.706
377.212
187.277
1864.21
1903.39
1929.39
1942.21
1941.99
1928.99
1903.64
1866.53
1818.37
1760.03
1692.49
1616.88
1534.42
1446.48
1354.51
1260.01
1164.4
1068.8
973.656
878.169
779.421
671.062
542.243
380.807
188.492
1831.42
1869.9
1895.46
1908.11
1907.96
1895.31
1870.55
1834.27
1787.18
1730.1
1664.02
1590.04
1509.37
1423.34
1333.39
1240.98
1147.46
1053.91
960.683
866.956
769.81
662.99
535.891
376.688
187.092
1857.86
1896.88
1922.78
1935.55
1935.32
1922.37
1897.13
1860.17
1812.21
1754.11
1686.85
1611.54
1529.43
1441.87
1350.29
1256.2
1161.01
1065.82
971.054
875.917
777.489
669.436
540.959
379.973
188.211
1857.86
1896.88
1922.78
1935.55
1935.32
1922.37
1897.13
1860.17
1812.21
1754.11
1686.85
1611.54
1529.43
1441.87
1350.29
1256.2
1161.01
1065.82
971.054
875.917
777.489
669.436
540.96
379.973
188.211
1831.43
1869.9
1895.46
1908.11
1907.97
1895.31
1870.55
1834.28
1787.18
1730.1
1664.02
1590.04
1509.37
1423.34
1333.39
1240.98
1147.46
1053.91
960.684
866.957
769.81
662.991
535.891
376.688
187.092
1864.21
1903.39
1929.39
1942.21
1941.99
1928.99
1903.64
1866.53
1818.37
1760.03
1692.49
1616.88
1534.42
1446.48
1354.51
1260.01
1164.4
1068.8
973.656
878.169
779.421
671.062
542.243
380.807
188.492
1836.01
1874.56
1900.17
1912.82
1912.65
1899.93
1875.08
1838.68
1791.42
1734.16
1667.87
1593.66
1512.74
1426.45
1336.22
1243.51
1149.72
1055.88
962.399
868.434
771.07
664.039
536.706
377.212
187.277
1857.86
1896.88
1922.78
1935.55
1935.32
1922.37
1897.13
1860.17
1812.21
1754.11
1686.85
1611.54
1529.43
1441.87
1350.29
1256.2
1161.01
1065.82
971.054
875.917
777.489
669.436
540.96
379.973
188.211
1831.42
1869.9
1895.46
1908.11
1907.96
1895.31
1870.55
1834.27
1787.18
1730.1
1664.02
1590.04
1509.37
1423.34
1333.39
1240.98
1147.46
1053.91
960.683
866.956
769.81
662.99
535.891
376.688
187.092
1831.43
1869.9
1895.46
1908.11
1907.97
1895.31
1870.55
1834.28
1787.18
1730.1
1664.02
1590.04
1509.37
1423.34
1333.39
1240.98
1147.46
1053.91
960.684
866.957
769.81
662.991
535.891
376.688
187.092
1857.86
1896.88
1922.78
1935.55
1935.32
1922.37
1897.13
1860.17
1812.21
1754.11
1686.85
1611.54
1529.43
1441.87
1350.29
1256.2
1161.01
1065.82
971.054
875.917
777.489
669.436
540.96
379.973
188.211
)
;

boundaryField
{
    outletCentralUnloaded
    {
        type            zeroGradient;
    }
    inletCentralUnloaded
    {
        type            zeroGradient;
    }
    outletFuelElement
    {
        type            zeroGradient;
    }
    inletFuelElement
    {
        type            zeroGradient;
    }
    defaultFaces
    {
        type            zeroGradient;
    }
    baffle_master
    {
        type            zeroGradient;
    }
    baffle_slave
    {
        type            zeroGradient;
    }
}


// ************************************************************************* //
