/*--------------------------------*- C++ -*----------------------------------*\
| =========                 |                                                 |
| \\      /  F ield         | OpenFOAM: The Open Source CFD Toolbox           |
|  \\    /   O peration     | Version:  2212                                  |
|   \\  /    A nd           | Website:  www.openfoam.com                      |
|    \\/     M anipulation  |                                                 |
\*---------------------------------------------------------------------------*/
FoamFile
{
    version     2.0;
    format      ascii;
    arch        "LSB;label=32;scalar=64";
    class       volScalarField;
    location    "40/fluidRegion";
    object      Tci.nuclearFuelPin;
}
// * * * * * * * * * * * * * * * * * * * * * * * * * * * * * * * * * * * * * //

dimensions      [0 0 0 1 0 0 0];

internalField   nonuniform List<scalar> 
350
(
0
0
0
0
0
0
0
0
0
0
0
0
0
0
0
0
0
0
0
0
0
0
0
0
0
0
0
0
0
0
0
0
0
0
0
0
0
0
0
0
0
0
0
0
0
0
0
0
0
0
1841.68
1892.34
1929.77
1953.78
1964.31
1961.47
1945.53
1916.91
1876.21
1824.16
1761.66
1689.75
1609.61
1522.58
1430.09
1333.64
1234.66
1134.32
1033.08
930.236
823.02
705.317
566.665
395.392
193.407
1869.94
1921.37
1959.33
1983.64
1994.23
1991.22
1974.89
1945.66
1904.13
1851.06
1787.35
1714.07
1632.41
1543.71
1449.45
1351.16
1250.32
1148.13
1045.14
940.678
831.965
712.813
572.544
399.195
194.692
1837.09
1887.65
1925.01
1948.99
1959.53
1956.73
1940.87
1912.37
1871.81
1819.94
1757.64
1685.96
1606.07
1519.3
1427.09
1330.93
1232.26
1132.2
1031.23
928.646
821.665
704.193
565.795
394.835
193.211
1863.59
1914.82
1952.64
1976.87
1987.43
1984.45
1968.19
1939.09
1897.74
1844.89
1781.46
1708.48
1627.16
1538.85
1444.99
1347.12
1246.71
1144.94
1042.35
938.264
829.896
711.078
571.182
398.313
194.395
1863.59
1914.82
1952.64
1976.87
1987.43
1984.45
1968.19
1939.09
1897.74
1844.89
1781.46
1708.48
1627.16
1538.85
1444.99
1347.12
1246.71
1144.94
1042.35
938.264
829.896
711.078
571.182
398.313
194.395
1837.09
1887.65
1925.01
1948.99
1959.53
1956.73
1940.87
1912.37
1871.81
1819.94
1757.64
1685.96
1606.07
1519.3
1427.09
1330.93
1232.26
1132.2
1031.23
928.647
821.666
704.194
565.796
394.835
193.211
1869.94
1921.37
1959.33
1983.64
1994.23
1991.22
1974.89
1945.66
1904.13
1851.06
1787.35
1714.07
1632.41
1543.71
1449.45
1351.16
1250.32
1148.13
1045.14
940.678
831.965
712.813
572.545
399.195
194.692
1841.68
1892.34
1929.77
1953.78
1964.31
1961.47
1945.53
1916.91
1876.21
1824.16
1761.66
1689.75
1609.61
1522.58
1430.09
1333.64
1234.66
1134.32
1033.08
930.236
823.02
705.317
566.665
395.392
193.407
1863.59
1914.82
1952.64
1976.87
1987.43
1984.45
1968.19
1939.09
1897.74
1844.89
1781.46
1708.48
1627.16
1538.85
1444.99
1347.12
1246.71
1144.94
1042.35
938.264
829.896
711.078
571.182
398.313
194.395
1837.09
1887.65
1925.01
1948.99
1959.53
1956.73
1940.87
1912.37
1871.81
1819.94
1757.64
1685.96
1606.07
1519.3
1427.09
1330.93
1232.26
1132.2
1031.23
928.646
821.665
704.193
565.795
394.835
193.211
1837.09
1887.65
1925.01
1948.99
1959.53
1956.73
1940.87
1912.37
1871.81
1819.94
1757.64
1685.96
1606.07
1519.3
1427.09
1330.93
1232.26
1132.2
1031.23
928.647
821.666
704.194
565.796
394.835
193.211
1863.59
1914.82
1952.64
1976.87
1987.43
1984.45
1968.19
1939.09
1897.74
1844.89
1781.46
1708.48
1627.16
1538.85
1444.99
1347.12
1246.71
1144.94
1042.35
938.264
829.896
711.078
571.182
398.313
194.395
)
;

boundaryField
{
    outletCentralUnloaded
    {
        type            zeroGradient;
    }
    inletCentralUnloaded
    {
        type            zeroGradient;
    }
    outletFuelElement
    {
        type            zeroGradient;
    }
    inletFuelElement
    {
        type            zeroGradient;
    }
    defaultFaces
    {
        type            zeroGradient;
    }
    baffle_master
    {
        type            zeroGradient;
    }
    baffle_slave
    {
        type            zeroGradient;
    }
}


// ************************************************************************* //
