/*--------------------------------*- C++ -*----------------------------------*\
| =========                 |                                                 |
| \\      /  F ield         | OpenFOAM: The Open Source CFD Toolbox           |
|  \\    /   O peration     | Version:  2212                                  |
|   \\  /    A nd           | Website:  www.openfoam.com                      |
|    \\/     M anipulation  |                                                 |
\*---------------------------------------------------------------------------*/
FoamFile
{
    version     2.0;
    format      ascii;
    arch        "LSB;label=32;scalar=64";
    class       volScalarField;
    location    "40/fluidRegion";
    object      Tco.nuclearFuelPin;
}
// * * * * * * * * * * * * * * * * * * * * * * * * * * * * * * * * * * * * * //

dimensions      [0 0 0 1 0 0 0];

internalField   nonuniform List<scalar> 
350
(
0
0
0
0
0
0
0
0
0
0
0
0
0
0
0
0
0
0
0
0
0
0
0
0
0
0
0
0
0
0
0
0
0
0
0
0
0
0
0
0
0
0
0
0
0
0
0
0
0
0
1830.71
1857.96
1872.53
1874.59
1864.43
1842.49
1809.33
1765.65
1712.27
1650.15
1580.33
1503.96
1422.3
1336.71
1248.59
1159.39
1070.42
982.666
896.424
810.742
722.575
625.505
508.739
360.241
181.555
1858.85
1886.6
1901.44
1903.55
1893.22
1870.89
1837.13
1792.67
1738.32
1675.06
1603.95
1526.15
1442.95
1355.72
1265.88
1174.92
1084.2
994.749
906.926
819.817
730.371
632.088
513.956
363.642
182.705
1826.14
1853.33
1867.87
1869.94
1859.83
1837.97
1804.92
1761.38
1708.17
1646.24
1576.63
1500.5
1419.1
1333.77
1245.93
1157
1068.31
980.824
894.828
809.369
721.403
624.527
507.975
359.748
181.38
1852.52
1880.14
1894.91
1896.99
1886.68
1864.43
1830.8
1786.5
1732.37
1669.36
1598.53
1521.05
1438.2
1351.34
1261.9
1171.34
1081.01
991.956
904.497
817.717
728.567
630.564
512.747
362.853
182.439
1852.52
1880.14
1894.91
1896.99
1886.68
1864.43
1830.8
1786.5
1732.37
1669.36
1598.53
1521.05
1438.2
1351.34
1261.9
1171.34
1081.01
991.956
904.497
817.717
728.567
630.564
512.747
362.853
182.439
1826.14
1853.33
1867.88
1869.95
1859.83
1837.97
1804.92
1761.38
1708.18
1646.24
1576.64
1500.5
1419.1
1333.77
1245.93
1157
1068.31
980.825
894.829
809.37
721.404
624.528
507.976
359.748
181.38
1858.85
1886.6
1901.44
1903.55
1893.22
1870.89
1837.13
1792.67
1738.32
1675.06
1603.95
1526.15
1442.95
1355.72
1265.88
1174.92
1084.2
994.749
906.926
819.817
730.371
632.088
513.956
363.642
182.705
1830.71
1857.96
1872.53
1874.59
1864.43
1842.49
1809.33
1765.65
1712.27
1650.15
1580.33
1503.96
1422.3
1336.71
1248.59
1159.39
1070.42
982.666
896.424
810.742
722.574
625.505
508.739
360.241
181.555
1852.52
1880.14
1894.91
1896.99
1886.68
1864.43
1830.8
1786.5
1732.37
1669.36
1598.53
1521.05
1438.2
1351.34
1261.9
1171.34
1081.01
991.956
904.497
817.718
728.567
630.564
512.747
362.853
182.439
1826.14
1853.33
1867.87
1869.94
1859.83
1837.97
1804.92
1761.38
1708.17
1646.24
1576.63
1500.5
1419.1
1333.77
1245.93
1157
1068.31
980.824
894.828
809.369
721.403
624.527
507.975
359.748
181.38
1826.14
1853.33
1867.88
1869.95
1859.83
1837.97
1804.92
1761.38
1708.18
1646.24
1576.64
1500.5
1419.1
1333.77
1245.93
1157
1068.31
980.825
894.829
809.37
721.404
624.528
507.976
359.748
181.38
1852.52
1880.14
1894.91
1896.99
1886.68
1864.43
1830.8
1786.5
1732.37
1669.36
1598.53
1521.05
1438.2
1351.34
1261.9
1171.34
1081.01
991.956
904.497
817.718
728.567
630.564
512.747
362.853
182.439
)
;

boundaryField
{
    outletCentralUnloaded
    {
        type            zeroGradient;
    }
    inletCentralUnloaded
    {
        type            zeroGradient;
    }
    outletFuelElement
    {
        type            zeroGradient;
    }
    inletFuelElement
    {
        type            zeroGradient;
    }
    defaultFaces
    {
        type            zeroGradient;
    }
    baffle_master
    {
        type            zeroGradient;
    }
    baffle_slave
    {
        type            zeroGradient;
    }
}


// ************************************************************************* //
