/*--------------------------------*- C++ -*----------------------------------*\
| =========                 |                                                 |
| \\      /  F ield         | OpenFOAM: The Open Source CFD Toolbox           |
|  \\    /   O peration     | Version:  2212                                  |
|   \\  /    A nd           | Website:  www.openfoam.com                      |
|    \\/     M anipulation  |                                                 |
\*---------------------------------------------------------------------------*/
FoamFile
{
    version     2.0;
    format      ascii;
    arch        "LSB;label=32;scalar=64";
    class       scalarFieldField;
    location    "40/fluidRegion";
    object      Trad.nuclearFuelPin;
}
// * * * * * * * * * * * * * * * * * * * * * * * * * * * * * * * * * * * * * //


350
(
0()
0()
0()
0()
0()
0()
0()
0()
0()
0()
0()
0()
0()
0()
0()
0()
0()
0()
0()
0()
0()
0()
0()
0()
0()
0()
0()
0()
0()
0()
0()
0()
0()
0()
0()
0()
0()
0()
0()
0()
0()
0()
0()
0()
0()
0()
0()
0()
0()
0()

20
(
2369.31
2367.7
2362.87
2354.82
2343.53
2329
2311.21
2290.14
2265.77
2238.08
2207.05
2172.64
2134.83
2093.59
2048.88
2000.67
1841.68
1837.9
1834.25
1830.71
)


20
(
3555.42
3550.27
3534.83
3509.07
3473.01
3426.61
3369.87
3302.77
3225.29
3137.39
3039.06
2930.26
2810.95
2681.12
2540.71
2389.7
1892.34
1880.5
1869.05
1857.96
)


20
(
4701.56
4692.96
4667.14
4624.1
4563.84
4486.33
4391.56
4279.52
4150.16
4003.48
3839.42
3657.98
3459.1
3242.76
3008.91
2757.51
1929.77
1910.06
1890.99
1872.53
)


20
(
5790.07
5778.15
5742.37
5682.74
5599.24
5491.86
5360.58
5205.37
5026.22
4823.08
4595.93
4344.74
4069.46
3770.06
3446.49
3098.72
1953.78
1926.51
1900.13
1874.59
)


20
(
6804.12
6789.07
6743.91
6668.63
6563.23
6427.68
6261.98
6066.08
5839.97
5583.62
5296.99
4980.04
4632.73
4255.03
3846.89
3408.27
1964.31
1929.92
1896.65
1864.43
)


20
(
7728
7710.06
7656.23
7566.51
7440.87
7279.32
7081.82
6848.35
6578.88
6273.38
5931.81
5554.14
5140.32
4690.32
4204.07
3681.56
1961.47
1920.5
1880.87
1842.49
)


20
(
8547.38
8526.83
8465.19
8362.44
8218.57
8033.57
7807.41
7540.07
7231.51
6881.71
6490.63
6058.22
5584.45
5069.27
4512.63
3914.49
1945.53
1898.63
1853.26
1809.33
)


20
(
9249.53
9226.7
9158.22
9044.07
8884.25
8678.73
8427.5
8130.52
7787.77
7399.21
6964.8
6484.51
5958.29
5386.09
4767.87
4103.59
1916.91
1864.83
1814.44
1765.65
)


20
(
9823.51
9798.77
9724.53
9600.8
9427.55
9204.78
8932.45
8610.54
8239.02
7817.86
7347.01
6826.44
6256.09
5635.94
4965.92
4246
1876.21
1819.76
1765.16
1712.27
)


20
(
10260.4
10234.1
10155.3
10024
9840.03
9603.52
9314.41
8972.67
8578.26
8131.16
7631.32
7078.71
6473.27
5814.97
5103.76
4339.58
1824.16
1764.25
1706.28
1650.15
)


20
(
10553.4
10526
10443.9
10307
10115.3
9868.77
9567.45
9211.28
8800.23
8334.27
7813.35
7237.43
6606.48
5920.45
5179.28
4382.94
1761.66
1699.22
1638.82
1580.33
)


20
(
10697.9
10669.9
10585.7
10445.4
10249
9996.4
9687.64
9322.68
8901.49
8424.04
7890.28
7300.17
6653.68
5950.76
5191.36
4375.45
1689.75
1625.78
1563.89
1503.96
)


20
(
10691.8
10663.5
10578.7
10437.2
10239.1
9984.47
9673.16
9305.18
8880.51
8399.11
7860.95
7265.99
6614.19
5905.49
5139.87
4317.28
1609.61
1545.12
1482.73
1422.3
)


20
(
10535.2
10507.1
10422.9
10282.5
10086
9833.23
9524.29
9159.12
8737.69
8259.96
7725.91
7135.5
6488.69
5785.43
5025.68
4209.41
1522.58
1458.58
1396.67
1336.71
)


20
(
10230.6
10203.2
10121
9983.89
9791.95
9545.15
9243.47
8886.88
8475.35
8008.85
7487.36
6910.84
6279.24
5592.53
4850.67
4053.62
1430.09
1367.59
1307.14
1248.59
)


20
(
9782.97
9756.65
9677.68
9546.06
9361.78
9124.82
8835.17
8492.79
8097.68
7649.79
7149.1
6595.58
5989.19
5329.89
4617.64
3852.42
1333.64
1273.64
1215.6
1159.39
)


20
(
9199.18
9174.37
9099.93
8975.86
8802.14
8578.77
8305.73
7982.99
7610.54
7188.35
6716.38
6194.62
5623.01
5001.55
4330.18
3608.87
1234.66
1178.11
1123.4
1070.42
)


20
(
8488.03
8465.12
8396.39
8281.83
8121.43
7915.19
7663.08
7365.09
7021.19
6631.37
6195.59
5713.84
5186.07
4612.27
3992.39
3326.41
1134.32
1082.1
1031.59
982.666
)


20
(
7659.61
7638.96
7577.03
7473.79
7329.25
7143.4
6916.22
6647.69
6337.8
5986.52
5593.83
5159.72
4684.14
4167.07
3608.5
3008.38
1033.08
986.024
940.505
896.424
)


20
(
6724.78
6706.72
6652.56
6562.29
6435.9
6273.38
6074.72
5839.9
5568.91
5261.74
4918.36
4538.74
4122.88
3670.73
3182.29
2657.52
930.236
889.092
849.289
810.742
)


20
(
5693.86
5678.69
5633.16
5557.27
5451.03
5314.42
5147.42
4950.04
4722.25
4464.04
4175.4
3856.3
3506.72
3126.66
2716.07
2274.96
823.02
788.435
754.977
722.575
)


20
(
4575.61
4563.55
4527.38
4467.08
4382.66
4274.11
4141.42
3984.58
3803.58
3598.41
3369.06
3115.51
2837.74
2535.75
2209.51
1859
705.317
677.836
651.251
625.505
)


20
(
3375.75
3367
3340.74
3296.98
3235.7
3156.91
3060.6
2946.76
2815.39
2666.47
2500
2315.97
2114.37
1895.18
1658.39
1404
566.665
546.72
527.425
508.739
)


20
(
2100.28
2094.96
2079.02
2052.45
2015.25
1967.42
1908.95
1839.85
1760.1
1669.71
1568.66
1456.96
1334.6
1201.58
1057.88
903.506
395.392
383.289
371.58
360.241
)


20
(
768.815
767.018
761.626
752.641
740.061
723.889
704.123
680.766
653.817
623.279
589.151
551.434
510.131
465.243
416.769
364.713
193.407
189.326
185.378
181.555
)


20
(
2403.11
2401.49
2396.61
2388.47
2377.07
2362.39
2344.41
2323.12
2298.5
2270.53
2239.17
2204.4
2166.2
2124.52
2079.34
2030.62
1869.94
1866.12
1862.43
1858.85
)


20
(
3603
3597.8
3582.18
3556.14
3519.67
3472.76
3415.4
3347.55
3269.2
3180.33
3080.9
2970.89
2850.25
2718.97
2576.99
2424.29
1921.37
1909.4
1897.81
1886.6
)


20
(
4762.39
4753.68
4727.58
4684.06
4623.12
4544.74
4448.9
4335.6
4204.79
4056.45
3890.55
3707.06
3505.94
3287.15
3050.66
2796.43
1959.33
1939.4
1920.11
1901.44
)


20
(
5863.4
5851.34
5815.17
5754.86
5670.42
5561.82
5429.06
5272.1
5090.91
4885.48
4655.76
4401.72
4123.32
3820.52
3493.29
3141.57
1983.64
1956.06
1929.38
1903.55
)


20
(
6889.03
6873.81
6828.13
6752
6645.41
6508.32
6340.74
6142.62
5913.95
5654.68
5364.8
5044.25
4693
4311.01
3898.23
3454.62
1994.23
1959.45
1925.8
1893.22
)


20
(
7823.38
7805.23
7750.79
7660.05
7532.99
7369.59
7169.85
6933.73
6661.2
6352.22
6006.77
5624.8
5206.28
4751.15
4259.37
3730.9
1991.22
1949.79
1909.71
1870.89
)


20
(
8651.95
8631.17
8568.82
8464.9
8319.4
8132.29
7903.56
7633.17
7321.11
6967.32
6571.79
6134.45
5655.28
5134.23
4571.25
3966.3
1974.89
1927.46
1881.57
1837.13
)


20
(
9361.87
9338.78
9269.52
9154.07
8992.43
8784.57
8530.48
8230.12
7883.46
7490.47
7051.12
6565.35
6033.13
5454.41
4829.14
4157.28
1945.66
1892.98
1842.02
1792.67
)


20
(
9942.09
9917.07
9841.98
9716.84
9541.62
9316.3
9040.87
8715.29
8339.54
7913.57
7437.36
6910.85
6334
5706.77
5029.11
4300.97
1904.13
1847.04
1791.81
1738.32
)


20
(
10383.6
10357
10277.3
10144.4
9958.42
9719.21
9426.8
9081.16
8682.26
8230.06
7724.52
7165.59
6553.25
5887.43
5168.1
4395.2
1851.06
1790.46
1731.83
1675.06
)


20
(
10679.5
10651.8
10568.7
10430.2
10236.3
9987.03
9682.27
9322.04
8906.3
8435.01
7908.15
7325.66
6687.51
5993.64
5244.01
4438.57
1787.35
1724.2
1663.11
1603.95
)


20
(
10825.1
10796.8
10711.6
10569.7
10371.1
10115.6
9803.31
9434.18
9008.19
8525.28
7985.42
7388.58
6734.71
6023.76
5255.69
4430.45
1714.07
1649.37
1586.77
1526.15
)


20
(
10818.4
10789.7
10703.9
10560.8
10360.5
10102.9
9788.07
9415.89
8986.37
8499.48
7955.17
7353.42
6694.17
5977.38
5203.01
4371.01
1632.41
1567.18
1504.07
1442.95
)


20
(
10659.3
10630.9
10545.7
10403.7
10204.9
9949.33
9636.86
9267.51
8841.27
8358.09
7817.94
7220.79
6566.58
5855.29
5086.86
4261.26
1543.71
1478.98
1416.36
1355.72
)


20
(
10350.6
10322.8
10239.7
10101
9906.88
9657.26
9352.13
8991.47
8575.24
8103.42
7575.97
6992.85
6354.04
5659.48
4909.14
4102.99
1449.45
1386.25
1325.1
1265.88
)


20
(
9897.07
9870.45
9790.58
9657.46
9471.07
9231.4
8938.44
8592.16
8192.53
7739.52
7233.11
6673.26
6059.94
5393.1
4672.72
3898.74
1351.16
1290.48
1231.77
1174.92
)


20
(
9305.89
9280.79
9205.5
9080.01
8904.31
8678.39
8402.23
8075.8
7699.1
7272.08
6794.72
6266.99
5688.85
5060.28
4381.23
3651.68
1250.32
1193.12
1137.79
1084.2
)


20
(
8585.93
8562.76
8493.24
8377.37
8215.14
8006.54
7751.55
7450.15
7102.33
6708.05
6267.29
5780.03
5246.23
4665.86
4038.9
3365.3
1148.13
1095.32
1044.23
994.749
)


20
(
7747.45
7726.57
7663.93
7559.51
7413.32
7225.34
6995.56
6723.97
6410.53
6055.24
5658.06
5218.98
4737.96
4214.99
3650.02
3043.04
1045.14
997.551
951.512
906.926
)


20
(
6801.49
6783.23
6728.45
6637.14
6509.31
6344.93
6144
5906.5
5632.41
5321.73
4974.42
4590.46
4169.84
3712.52
3218.49
2687.72
940.678
899.063
858.805
819.817
)


20
(
5758.51
5743.16
5697.11
5620.36
5512.9
5374.73
5205.83
5006.19
4775.79
4514.63
4222.69
3899.94
3546.37
3161.95
2746.67
2300.51
831.965
796.985
763.144
730.371
)


20
(
4627.35
4615.16
4578.57
4517.58
4432.2
4322.41
4188.2
4029.57
3846.5
3638.99
3407.02
3150.56
2869.62
2564.18
2234.2
1879.69
712.813
685.018
658.129
632.088
)


20
(
3413.72
3404.87
3378.31
3334.05
3272.07
3192.38
3094.97
2979.83
2846.96
2696.34
2527.97
2341.84
2137.93
1916.24
1676.75
1419.45
572.544
552.371
532.856
513.956
)


20
(
2123.52
2118.15
2102.02
2075.15
2037.53
1989.15
1930.02
1860.13
1779.47
1688.05
1585.85
1472.88
1349.12
1214.58
1069.24
913.106
399.195
386.953
375.111
363.642
)


20
(
776.615
774.798
769.345
760.258
747.537
731.182
711.193
687.572
660.319
629.435
594.921
556.778
515.007
469.61
420.588
367.941
194.692
190.565
186.572
182.705
)


20
(
2363.84
2362.23
2357.41
2349.37
2338.1
2323.59
2305.83
2284.79
2260.47
2232.82
2201.84
2167.49
2129.74
2088.57
2043.94
1995.81
1837.09
1833.32
1829.67
1826.14
)


20
(
3547.77
3542.63
3527.21
3501.5
3465.5
3419.19
3362.55
3295.57
3218.22
3130.48
3032.32
2923.71
2804.62
2675.02
2534.86
2384.12
1887.65
1875.83
1864.4
1853.33
)


20
(
4691.82
4683.23
4657.46
4614.5
4554.34
4476.98
4382.38
4270.53
4141.41
3994.99
3831.23
3650.11
3451.59
3235.63
3002.2
2751.26
1925.01
1905.34
1886.3
1867.87
)


20
(
5778.36
5766.45
5730.74
5671.22
5587.87
5480.68
5349.64
5194.71
5015.88
4813.11
4586.37
4335.63
4060.85
3761.98
3439
3091.86
1948.99
1921.77
1895.44
1869.94
)


20
(
6790.58
6775.56
6730.48
6655.34
6550.12
6414.82
6249.42
6053.88
5828.18
5572.29
5286.17
4969.8
4623.12
4246.1
3838.7
3400.87
1959.53
1925.2
1891.99
1859.83
)


20
(
7712.81
7694.9
7641.17
7551.61
7426.2
7264.94
7067.8
6834.75
6565.77
6260.82
5919.88
5542.89
5129.82
4680.63
4195.27
3673.7
1956.73
1915.84
1876.28
1837.97
)


20
(
8530.75
8510.24
8448.7
8346.14
8202.53
8017.86
7792.11
7525.26
7217.26
6868.09
6477.72
6046.1
5573.18
5058.94
4503.31
3906.26
1940.87
1894.06
1848.77
1804.92
)


20
(
9231.67
9208.88
9140.52
9026.58
8867.05
8661.91
8411.13
8114.69
7772.56
7384.71
6951.09
6471.67
5946.4
5375.24
4758.15
4095.07
1912.37
1860.38
1810.08
1761.38
)


20
(
9804.67
9779.97
9705.87
9582.36
9409.43
9187.06
8915.23
8593.9
8223.06
7802.66
7332.67
6813.04
6243.73
5624.7
4955.91
4237.29
1871.81
1815.47
1760.96
1708.17
)


20
(
10240.8
10214.6
10136
10004.8
9821.23
9585.16
9296.57
8955.45
8561.76
8115.47
7616.54
7064.93
6460.6
5803.49
5093.57
4330.78
1819.94
1760.13
1702.27
1646.24
)


20
(
10533.4
10506.1
10424.1
10287.4
10096.1
9850
9549.23
9193.71
8783.41
8318.29
7798.32
7223.45
6593.65
5908.86
5169.04
4374.15
1757.64
1695.32
1635.02
1576.63
)


20
(
10677.8
10649.7
10565.7
10425.7
10229.6
9977.49
9669.3
9305
8884.58
8407.99
7875.2
7286.17
6640.85
5939.21
5181.2
4366.76
1685.96
1622.1
1560.33
1500.5
)


20
(
10671.7
10643.5
10558.8
10417.6
10219.9
9965.68
9654.94
9287.63
8863.73
8383.21
7846.03
7252.15
6601.53
5894.13
5129.9
4308.8
1606.07
1541.69
1479.41
1419.1
)


20
(
10515.5
10487.5
10403.4
10263.3
10067.1
9814.83
9506.45
9141.94
8721.28
8244.42
7711.35
7122.01
6476.37
5774.39
5016.03
4201.24
1519.3
1455.42
1393.62
1333.77
)


20
(
10211.6
10184.3
10102.2
9965.32
9773.74
9527.39
9226.25
8870.31
8459.53
7993.88
7473.34
6897.86
6267.42
5581.96
4841.45
4045.85
1427.09
1364.71
1304.37
1245.93
)


20
(
9764.89
9738.61
9659.79
9528.41
9344.46
9107.93
8818.81
8477.06
8082.66
7635.59
7135.81
6583.3
5978.01
5319.91
4608.96
3845.13
1330.93
1271.05
1213.11
1157
)


20
(
9182.27
9157.5
9083.2
8959.35
8785.96
8562.99
8290.45
7968.3
7596.52
7175.1
6703.99
6183.18
5612.62
4992.28
4322.13
3602.14
1232.26
1175.81
1121.2
1068.31
)


20
(
8472.52
8449.65
8381.04
8266.69
8106.59
7900.72
7649.07
7351.62
7008.35
6619.24
6184.26
5703.38
5176.57
4603.81
3985.07
3320.3
1132.2
1080.08
1029.65
980.824
)


20
(
7645.69
7625.09
7563.26
7460.22
7315.94
7130.43
6903.66
6635.62
6326.29
5975.65
5583.68
5150.35
4675.64
4159.52
3601.96
3002.94
1031.23
984.265
938.829
894.828
)


20
(
6712.63
6694.61
6640.55
6550.44
6424.28
6262.05
6063.75
5829.37
5558.87
5252.26
4909.5
4530.58
4115.47
3664.15
3176.6
2652.78
928.646
887.577
847.846
809.369
)


20
(
5683.63
5668.49
5623.04
5547.3
5441.24
5304.88
5138.19
4941.17
4713.79
4456.05
4167.94
3849.42
3500.48
3121.1
2711.27
2270.96
821.665
787.143
753.746
721.403
)


20
(
4567.44
4555.4
4519.29
4459.11
4374.84
4266.48
4134.04
3977.48
3796.82
3592.02
3363.08
3109.99
2832.73
2531.29
2205.64
1855.78
704.193
676.763
650.226
624.527
)


20
(
3369.77
3361.04
3334.83
3291.14
3229.98
3151.33
3055.19
2941.56
2810.43
2661.78
2495.61
2311.92
2110.68
1891.89
1655.53
1401.61
565.795
545.887
526.627
507.975
)


20
(
2096.62
2091.32
2075.4
2048.88
2011.75
1964
1905.64
1836.66
1757.06
1666.83
1565.97
1454.48
1332.34
1199.56
1056.12
902.024
394.835
382.754
371.066
359.748
)


20
(
767.581
765.787
760.405
751.436
738.879
722.735
703.006
679.69
652.79
622.307
588.24
550.592
509.363
464.556
416.17
364.207
193.211
189.137
185.196
181.38
)


20
(
2395.48
2393.86
2388.99
2380.87
2369.49
2354.85
2336.91
2315.68
2291.12
2263.21
2231.92
2197.24
2159.13
2117.55
2072.48
2023.87
1863.59
1859.78
1856.09
1852.52
)


20
(
3592.18
3586.99
3571.41
3545.43
3509.06
3462.27
3405.05
3337.37
3259.23
3170.58
3071.4
2961.67
2841.34
2710.39
2568.77
2416.46
1914.82
1902.88
1891.33
1880.14
)


20
(
4748.5
4739.82
4713.78
4670.37
4609.59
4531.41
4435.82
4322.8
4192.33
4044.37
3878.9
3695.88
3495.27
3277.05
3041.17
2787.59
1952.64
1932.76
1913.53
1894.91
)


20
(
5846.62
5834.6
5798.51
5738.36
5654.14
5545.82
5413.4
5256.84
5076.12
4871.22
4642.09
4388.7
4111.02
3809.01
3482.62
3131.81
1976.87
1949.36
1922.75
1896.99
)


20
(
6869.57
6854.39
6808.83
6732.9
6626.58
6489.85
6322.69
6125.09
5897.01
5638.41
5349.28
5029.56
4679.22
4298.21
3886.5
3444.04
1987.43
1952.74
1919.18
1886.68
)


20
(
7801.5
7783.4
7729.1
7638.59
7511.86
7348.89
7149.66
6914.15
6642.32
6334.15
5989.59
5608.61
5191.17
4737.22
4246.72
3719.62
1984.45
1943.12
1903.14
1864.43
)


20
(
8627.94
8607.21
8545.03
8441.38
8296.25
8109.63
7881.49
7611.8
7300.54
6947.68
6553.17
6116.97
5639.04
5119.34
4557.82
3954.44
1968.19
1920.88
1875.12
1830.8
)


20
(
9336.06
9313.03
9243.95
9128.8
8967.58
8760.26
8506.82
8207.24
7861.48
7469.52
7031.3
6546.79
6015.95
5438.73
4815.09
4144.97
1939.09
1886.55
1835.72
1786.5
)


20
(
9914.83
9889.87
9814.99
9690.17
9515.4
9290.67
9015.95
8691.22
8316.44
7891.58
7416.6
6891.45
6316.1
5690.5
5014.6
4288.35
1897.74
1840.8
1785.71
1732.37
)


20
(
10355.3
10328.8
10249.2
10116.7
9931.19
9692.61
9400.96
9056.22
8658.35
8207.32
7703.09
7145.62
6534.87
5870.78
5153.32
4382.43
1844.89
1784.45
1725.98
1669.36
)


20
(
10650.5
10622.8
10540
10401.9
10208.5
9959.82
9655.86
9296.56
8881.9
8411.84
7886.35
7305.37
6668.87
5976.81
5229.13
4425.78
1781.46
1718.47
1657.54
1598.53
)


20
(
10795.9
10767.6
10682.6
10541.1
10343
10088.2
9776.69
9408.53
8983.64
8501.98
7963.53
7368.24
6716.07
6006.97
5240.89
4417.8
1708.48
1643.95
1581.52
1521.05
)


20
(
10789.2
10760.7
10675.1
10532.4
10332.6
10075.7
9761.62
9390.41
8962.01
8476.38
7933.49
7333.3
6675.76
5960.83
5188.48
4358.65
1627.16
1562.1
1499.16
1438.2
)


20
(
10630.7
10602.4
10517.4
10375.8
10177.6
9922.6
9610.94
9242.56
8817.42
8335.5
7796.76
7201.15
6548.65
5839.2
5072.78
4249.32
1538.85
1474.28
1411.83
1351.34
)


20
(
10323
10295.3
10212.3
10074
9880.42
9631.45
9327.11
8967.38
8552.24
8081.64
7555.56
6973.97
6336.81
5644.06
4895.68
4091.62
1444.99
1381.95
1320.96
1261.9
)


20
(
9870.8
9844.25
9764.58
9631.81
9445.9
9206.86
8914.66
8569.27
8170.68
7718.86
7213.76
6655.37
6043.64
5378.54
4660.03
3888.07
1347.12
1286.59
1228.04
1171.34
)


20
(
9281.31
9256.28
9181.19
9056.03
8880.78
8655.45
8380
8054.43
7678.7
7252.79
6776.67
6250.31
5673.68
5046.75
4369.47
3641.81
1246.71
1189.66
1134.46
1081.01
)


20
(
8563.38
8540.27
8470.93
8355.37
8193.56
7985.5
7731.17
7430.56
7083.64
6690.38
6250.77
5764.78
5232.37
4653.51
4028.18
3356.34
1144.94
1092.27
1041.31
991.956
)


20
(
7727.22
7706.39
7643.91
7539.77
7393.96
7206.47
6977.29
6706.4
6393.78
6039.41
5643.27
5205.33
4725.56
4203.95
3640.45
3035.05
1042.35
994.886
948.967
904.497
)


20
(
6783.82
6765.61
6710.97
6619.9
6492.4
6328.45
6128.04
5891.16
5617.79
5307.91
4961.5
4578.54
4159.02
3702.89
3210.15
2680.76
938.264
896.758
856.604
817.717
)


20
(
5743.62
5728.31
5682.38
5605.83
5498.65
5360.84
5192.37
4993.25
4763.46
4502.98
4211.79
3889.88
3537.23
3153.82
2739.62
2294.62
829.896
795.007
761.254
728.567
)


20
(
4615.43
4603.27
4566.78
4505.95
4420.79
4311.28
4177.42
4019.2
3836.61
3629.64
3398.27
3142.49
2862.28
2557.62
2228.51
1874.92
711.078
683.355
656.536
630.564
)


20
(
3404.97
3396.15
3369.66
3325.51
3263.69
3184.21
3087.05
2972.21
2839.68
2689.46
2521.53
2335.88
2132.5
1911.38
1672.51
1415.88
571.182
551.062
531.597
512.747
)


20
(
2118.16
2112.8
2096.72
2069.92
2032.39
1984.14
1925.16
1855.45
1775
1683.82
1581.89
1469.21
1345.77
1211.58
1066.62
910.89
398.313
386.103
374.292
362.853
)


20
(
774.818
773.006
767.567
758.504
745.815
729.502
709.564
686.004
658.821
628.016
593.591
555.547
513.884
468.604
419.707
367.197
194.395
190.278
186.296
182.439
)


20
(
2395.48
2393.86
2388.99
2380.87
2369.49
2354.85
2336.91
2315.68
2291.12
2263.21
2231.92
2197.24
2159.13
2117.55
2072.48
2023.88
1863.59
1859.78
1856.09
1852.52
)


20
(
3592.18
3586.99
3571.41
3545.43
3509.06
3462.27
3405.05
3337.37
3259.23
3170.58
3071.4
2961.67
2841.34
2710.39
2568.77
2416.46
1914.82
1902.88
1891.33
1880.14
)


20
(
4748.5
4739.82
4713.78
4670.37
4609.59
4531.41
4435.82
4322.8
4192.33
4044.37
3878.9
3695.88
3495.27
3277.05
3041.17
2787.59
1952.64
1932.76
1913.53
1894.91
)


20
(
5846.62
5834.6
5798.51
5738.36
5654.14
5545.82
5413.4
5256.84
5076.12
4871.22
4642.09
4388.7
4111.02
3809.01
3482.62
3131.81
1976.87
1949.36
1922.76
1896.99
)


20
(
6869.57
6854.39
6808.83
6732.9
6626.58
6489.85
6322.69
6125.09
5897.01
5638.41
5349.28
5029.56
4679.21
4298.21
3886.5
3444.04
1987.43
1952.74
1919.18
1886.68
)


20
(
7801.5
7783.4
7729.1
7638.59
7511.86
7348.89
7149.66
6914.15
6642.32
6334.15
5989.59
5608.61
5191.17
4737.22
4246.72
3719.62
1984.45
1943.12
1903.14
1864.43
)


20
(
8627.94
8607.21
8545.03
8441.38
8296.25
8109.63
7881.49
7611.8
7300.54
6947.68
6553.17
6116.97
5639.04
5119.34
4557.82
3954.44
1968.19
1920.88
1875.12
1830.8
)


20
(
9336.06
9313.03
9243.95
9128.8
8967.58
8760.26
8506.82
8207.24
7861.48
7469.51
7031.3
6546.79
6015.95
5438.73
4815.09
4144.97
1939.09
1886.55
1835.72
1786.5
)


20
(
9914.83
9889.87
9814.99
9690.17
9515.4
9290.67
9015.95
8691.22
8316.44
7891.58
7416.6
6891.45
6316.1
5690.5
5014.6
4288.35
1897.74
1840.8
1785.71
1732.37
)


20
(
10355.3
10328.8
10249.2
10116.7
9931.19
9692.61
9400.96
9056.22
8658.35
8207.32
7703.09
7145.62
6534.87
5870.78
5153.32
4382.43
1844.89
1784.45
1725.98
1669.36
)


20
(
10650.5
10622.8
10540
10401.9
10208.5
9959.82
9655.86
9296.56
8881.9
8411.84
7886.35
7305.37
6668.87
5976.81
5229.13
4425.78
1781.46
1718.47
1657.54
1598.53
)


20
(
10795.9
10767.6
10682.6
10541.1
10343
10088.2
9776.69
9408.53
8983.64
8501.98
7963.53
7368.24
6716.07
6006.97
5240.89
4417.8
1708.48
1643.95
1581.52
1521.05
)


20
(
10789.2
10760.7
10675.1
10532.4
10332.6
10075.7
9761.62
9390.41
8962.01
8476.38
7933.49
7333.29
6675.76
5960.83
5188.48
4358.65
1627.16
1562.1
1499.16
1438.2
)


20
(
10630.7
10602.4
10517.4
10375.8
10177.6
9922.6
9610.94
9242.56
8817.42
8335.5
7796.76
7201.15
6548.65
5839.2
5072.78
4249.32
1538.85
1474.28
1411.83
1351.34
)


20
(
10323
10295.3
10212.3
10074
9880.42
9631.45
9327.11
8967.38
8552.24
8081.64
7555.56
6973.97
6336.81
5644.06
4895.68
4091.62
1444.99
1381.95
1320.96
1261.9
)


20
(
9870.8
9844.25
9764.58
9631.81
9445.9
9206.86
8914.66
8569.27
8170.68
7718.86
7213.76
6655.37
6043.64
5378.54
4660.03
3888.07
1347.12
1286.59
1228.04
1171.34
)


20
(
9281.31
9256.28
9181.19
9056.03
8880.78
8655.45
8380
8054.43
7678.7
7252.79
6776.67
6250.31
5673.68
5046.75
4369.47
3641.81
1246.71
1189.66
1134.46
1081.01
)


20
(
8563.38
8540.27
8470.93
8355.37
8193.56
7985.5
7731.17
7430.56
7083.64
6690.38
6250.77
5764.78
5232.37
4653.51
4028.18
3356.34
1144.94
1092.26
1041.31
991.956
)


20
(
7727.22
7706.39
7643.91
7539.77
7393.96
7206.47
6977.29
6706.4
6393.78
6039.41
5643.27
5205.33
4725.56
4203.95
3640.45
3035.05
1042.35
994.886
948.967
904.497
)


20
(
6783.82
6765.61
6710.97
6619.9
6492.4
6328.45
6128.04
5891.16
5617.78
5307.91
4961.5
4578.54
4159.02
3702.89
3210.15
2680.76
938.264
896.757
856.604
817.717
)


20
(
5743.62
5728.31
5682.38
5605.83
5498.65
5360.83
5192.37
4993.25
4763.46
4502.98
4211.79
3889.88
3537.23
3153.82
2739.62
2294.62
829.896
795.007
761.254
728.567
)


20
(
4615.43
4603.27
4566.78
4505.95
4420.79
4311.28
4177.42
4019.2
3836.61
3629.64
3398.27
3142.49
2862.28
2557.62
2228.51
1874.92
711.078
683.355
656.536
630.564
)


20
(
3404.98
3396.15
3369.66
3325.51
3263.69
3184.21
3087.05
2972.21
2839.68
2689.46
2521.53
2335.88
2132.5
1911.38
1672.51
1415.88
571.182
551.062
531.597
512.747
)


20
(
2118.16
2112.8
2096.72
2069.92
2032.39
1984.14
1925.16
1855.45
1775
1683.82
1581.89
1469.21
1345.77
1211.58
1066.62
910.89
398.313
386.103
374.292
362.853
)


20
(
774.818
773.006
767.567
758.504
745.815
729.502
709.565
686.004
658.821
628.017
593.591
555.547
513.884
468.604
419.707
367.197
194.395
190.278
186.296
182.439
)


20
(
2363.84
2362.23
2357.41
2349.37
2338.1
2323.59
2305.83
2284.79
2260.47
2232.83
2201.84
2167.49
2129.75
2088.57
2043.94
1995.81
1837.09
1833.32
1829.67
1826.14
)


20
(
3547.77
3542.63
3527.21
3501.51
3465.5
3419.19
3362.55
3295.57
3218.22
3130.48
3032.32
2923.72
2804.62
2675.02
2534.86
2384.12
1887.65
1875.83
1864.4
1853.33
)


20
(
4691.82
4683.23
4657.46
4614.5
4554.35
4476.98
4382.38
4270.53
4141.41
3994.99
3831.23
3650.11
3451.59
3235.63
3002.2
2751.26
1925.01
1905.34
1886.31
1867.88
)


20
(
5778.36
5766.46
5730.75
5671.22
5587.87
5480.69
5349.64
5194.71
5015.88
4813.11
4586.37
4335.63
4060.85
3761.99
3439
3091.86
1948.99
1921.77
1895.44
1869.95
)


20
(
6790.58
6775.56
6730.48
6655.34
6550.12
6414.82
6249.42
6053.88
5828.18
5572.29
5286.17
4969.8
4623.12
4246.1
3838.7
3400.88
1959.53
1925.2
1891.99
1859.83
)


20
(
7712.82
7694.9
7641.17
7551.61
7426.2
7264.94
7067.8
6834.75
6565.77
6260.83
5919.88
5542.89
5129.82
4680.63
4195.27
3673.7
1956.73
1915.84
1876.28
1837.97
)


20
(
8530.75
8510.24
8448.7
8346.14
8202.53
8017.86
7792.12
7525.26
7217.26
6868.1
6477.72
6046.1
5573.19
5058.94
4503.31
3906.26
1940.87
1894.06
1848.77
1804.92
)


20
(
9231.67
9208.88
9140.52
9026.58
8867.05
8661.91
8411.13
8114.69
7772.56
7384.71
6951.09
6471.67
5946.4
5375.25
4758.15
4095.07
1912.37
1860.38
1810.09
1761.38
)


20
(
9804.68
9779.98
9705.88
9582.37
9409.43
9187.06
8915.23
8593.9
8223.06
7802.66
7332.67
6813.04
6243.74
5624.71
4955.91
4237.29
1871.81
1815.47
1760.96
1708.18
)


20
(
10240.8
10214.6
10136
10004.8
9821.24
9585.16
9296.57
8955.45
8561.76
8115.47
7616.54
7064.93
6460.6
5803.49
5093.57
4330.78
1819.94
1760.13
1702.28
1646.24
)


20
(
10533.4
10506.1
10424.1
10287.4
10096.1
9850
9549.23
9193.71
8783.41
8318.29
7798.32
7223.45
6593.65
5908.86
5169.04
4374.15
1757.64
1695.32
1635.03
1576.64
)


20
(
10677.8
10649.7
10565.7
10425.7
10229.6
9977.5
9669.3
9305
8884.58
8407.99
7875.2
7286.17
6640.86
5939.21
5181.2
4366.77
1685.96
1622.1
1560.33
1500.5
)


20
(
10671.7
10643.5
10558.8
10417.6
10219.9
9965.68
9654.94
9287.63
8863.73
8383.21
7846.03
7252.15
6601.53
5894.13
5129.9
4308.8
1606.07
1541.69
1479.41
1419.1
)


20
(
10515.5
10487.5
10403.4
10263.3
10067.1
9814.83
9506.45
9141.94
8721.28
8244.42
7711.35
7122.01
6476.37
5774.39
5016.03
4201.24
1519.3
1455.42
1393.62
1333.77
)


20
(
10211.6
10184.3
10102.2
9965.32
9773.74
9527.39
9226.25
8870.31
8459.53
7993.88
7473.34
6897.86
6267.42
5581.96
4841.45
4045.85
1427.09
1364.71
1304.37
1245.93
)


20
(
9764.89
9738.61
9659.79
9528.41
9344.46
9107.94
8818.81
8477.06
8082.66
7635.59
7135.81
6583.3
5978.01
5319.91
4608.96
3845.13
1330.93
1271.05
1213.11
1157
)


20
(
9182.27
9157.5
9083.2
8959.35
8785.96
8562.99
8290.45
7968.3
7596.53
7175.1
6703.99
6183.18
5612.62
4992.28
4322.13
3602.14
1232.26
1175.81
1121.2
1068.31
)


20
(
8472.52
8449.65
8381.05
8266.69
8106.59
7900.72
7649.07
7351.62
7008.35
6619.24
6184.26
5703.38
5176.58
4603.81
3985.07
3320.3
1132.2
1080.08
1029.66
980.825
)


20
(
7645.7
7625.09
7563.26
7460.22
7315.94
7130.43
6903.66
6635.62
6326.29
5975.65
5583.68
5150.35
4675.64
4159.52
3601.96
3002.94
1031.23
984.266
938.83
894.829
)


20
(
6712.63
6694.61
6640.55
6550.44
6424.28
6262.05
6063.75
5829.37
5558.87
5252.26
4909.5
4530.58
4115.47
3664.15
3176.6
2652.79
928.647
887.578
847.847
809.37
)


20
(
5683.63
5668.49
5623.04
5547.3
5441.24
5304.88
5138.19
4941.17
4713.79
4456.05
4167.94
3849.42
3500.48
3121.1
2711.27
2270.96
821.666
787.144
753.747
721.404
)


20
(
4567.44
4555.4
4519.29
4459.11
4374.84
4266.49
4134.04
3977.49
3796.82
3592.02
3363.09
3110
2832.74
2531.29
2205.64
1855.78
704.194
676.764
650.227
624.528
)


20
(
3369.77
3361.04
3334.83
3291.14
3229.98
3151.33
3055.19
2941.56
2810.43
2661.78
2495.62
2311.92
2110.68
1891.89
1655.54
1401.61
565.796
545.888
526.628
507.976
)


20
(
2096.62
2091.32
2075.4
2048.88
2011.75
1964
1905.64
1836.66
1757.06
1666.83
1565.97
1454.48
1332.34
1199.56
1056.12
902.025
394.835
382.754
371.067
359.748
)


20
(
767.581
765.787
760.405
751.436
738.879
722.736
703.006
679.691
652.791
622.307
588.24
550.592
509.363
464.556
416.17
364.208
193.211
189.137
185.196
181.38
)


20
(
2403.11
2401.49
2396.61
2388.47
2377.07
2362.39
2344.41
2323.12
2298.5
2270.53
2239.17
2204.4
2166.2
2124.52
2079.34
2030.62
1869.94
1866.12
1862.43
1858.85
)


20
(
3603
3597.8
3582.18
3556.14
3519.67
3472.76
3415.4
3347.55
3269.2
3180.33
3080.9
2970.89
2850.25
2718.97
2576.99
2424.29
1921.37
1909.4
1897.81
1886.6
)


20
(
4762.39
4753.69
4727.58
4684.06
4623.12
4544.74
4448.91
4335.6
4204.79
4056.45
3890.55
3707.06
3505.94
3287.15
3050.66
2796.43
1959.33
1939.4
1920.11
1901.44
)


20
(
5863.4
5851.35
5815.17
5754.86
5670.42
5561.82
5429.06
5272.1
5090.91
4885.48
4655.76
4401.72
4123.32
3820.52
3493.29
3141.57
1983.64
1956.06
1929.38
1903.55
)


20
(
6889.03
6873.81
6828.13
6752
6645.41
6508.32
6340.74
6142.62
5913.95
5654.68
5364.8
5044.25
4693
4311.01
3898.23
3454.62
1994.23
1959.45
1925.8
1893.22
)


20
(
7823.38
7805.23
7750.79
7660.05
7532.99
7369.59
7169.85
6933.73
6661.2
6352.22
6006.77
5624.8
5206.28
4751.15
4259.37
3730.9
1991.22
1949.79
1909.71
1870.89
)


20
(
8651.95
8631.17
8568.82
8464.9
8319.4
8132.29
7903.56
7633.17
7321.11
6967.32
6571.79
6134.45
5655.28
5134.23
4571.25
3966.3
1974.89
1927.46
1881.57
1837.13
)


20
(
9361.87
9338.78
9269.52
9154.07
8992.43
8784.57
8530.47
8230.12
7883.46
7490.47
7051.12
6565.35
6033.13
5454.41
4829.14
4157.28
1945.66
1892.98
1842.02
1792.67
)


20
(
9942.09
9917.07
9841.98
9716.84
9541.62
9316.3
9040.87
8715.29
8339.54
7913.57
7437.36
6910.85
6334
5706.77
5029.11
4300.97
1904.13
1847.04
1791.81
1738.32
)


20
(
10383.6
10357
10277.3
10144.4
9958.42
9719.21
9426.8
9081.16
8682.26
8230.06
7724.52
7165.6
6553.25
5887.43
5168.1
4395.2
1851.06
1790.46
1731.83
1675.06
)


20
(
10679.5
10651.8
10568.7
10430.2
10236.3
9987.03
9682.27
9322.04
8906.3
8435.01
7908.15
7325.66
6687.51
5993.64
5244.01
4438.57
1787.35
1724.2
1663.11
1603.95
)


20
(
10825.1
10796.8
10711.6
10569.7
10371.1
10115.6
9803.31
9434.18
9008.19
8525.28
7985.42
7388.58
6734.71
6023.76
5255.69
4430.45
1714.07
1649.37
1586.77
1526.15
)


20
(
10818.4
10789.7
10703.9
10560.8
10360.5
10102.9
9788.07
9415.89
8986.37
8499.48
7955.17
7353.42
6694.16
5977.38
5203.01
4371.01
1632.41
1567.18
1504.07
1442.95
)


20
(
10659.3
10630.9
10545.7
10403.7
10204.9
9949.32
9636.86
9267.51
8841.27
8358.09
7817.94
7220.78
6566.58
5855.29
5086.86
4261.26
1543.71
1478.98
1416.36
1355.72
)


20
(
10350.6
10322.8
10239.7
10101
9906.88
9657.26
9352.13
8991.47
8575.24
8103.42
7575.97
6992.85
6354.04
5659.48
4909.14
4102.99
1449.45
1386.25
1325.1
1265.88
)


20
(
9897.07
9870.45
9790.58
9657.46
9471.07
9231.4
8938.44
8592.16
8192.53
7739.52
7233.11
6673.26
6059.94
5393.1
4672.72
3898.74
1351.16
1290.48
1231.77
1174.92
)


20
(
9305.89
9280.79
9205.5
9080.01
8904.31
8678.39
8402.23
8075.8
7699.1
7272.08
6794.72
6266.99
5688.85
5060.28
4381.23
3651.68
1250.32
1193.12
1137.79
1084.2
)


20
(
8585.93
8562.76
8493.24
8377.37
8215.14
8006.54
7751.55
7450.15
7102.32
6708.05
6267.29
5780.03
5246.23
4665.86
4038.89
3365.3
1148.13
1095.32
1044.23
994.749
)


20
(
7747.45
7726.57
7663.93
7559.51
7413.32
7225.34
6995.56
6723.97
6410.53
6055.24
5658.06
5218.98
4737.96
4214.99
3650.02
3043.04
1045.14
997.551
951.512
906.926
)


20
(
6801.49
6783.23
6728.45
6637.14
6509.31
6344.93
6144
5906.5
5632.41
5321.73
4974.42
4590.46
4169.84
3712.52
3218.49
2687.72
940.678
899.063
858.805
819.817
)


20
(
5758.51
5743.16
5697.11
5620.36
5512.9
5374.73
5205.83
5006.19
4775.79
4514.63
4222.69
3899.94
3546.37
3161.95
2746.67
2300.51
831.965
796.985
763.144
730.371
)


20
(
4627.35
4615.16
4578.57
4517.58
4432.2
4322.41
4188.2
4029.57
3846.5
3638.99
3407.02
3150.57
2869.62
2564.18
2234.21
1879.69
712.813
685.018
658.129
632.088
)


20
(
3413.72
3404.87
3378.31
3334.05
3272.07
3192.38
3094.97
2979.83
2846.96
2696.34
2527.97
2341.84
2137.93
1916.24
1676.75
1419.45
572.545
552.372
532.856
513.956
)


20
(
2123.52
2118.15
2102.02
2075.15
2037.53
1989.15
1930.02
1860.12
1779.47
1688.05
1585.85
1472.88
1349.12
1214.58
1069.24
913.106
399.195