/*--------------------------------*- C++ -*----------------------------------*\
| =========                 |                                                 |
| \\      /  F ield         | OpenFOAM: The Open Source CFD Toolbox           |
|  \\    /   O peration     | Version:  2212                                  |
|   \\  /    A nd           | Website:  www.openfoam.com                      |
|    \\/     M anipulation  |                                                 |
\*---------------------------------------------------------------------------*/
FoamFile
{
    version     2.0;
    format      ascii;
    arch        "LSB;label=32;scalar=64";
    class       volScalarField;
    location    "19/neutroRegion";
    object      TClad;
}
// * * * * * * * * * * * * * * * * * * * * * * * * * * * * * * * * * * * * * //

dimensions      [0 0 0 1 0 0 0];

internalField   nonuniform List<scalar> 
350
(
0
0
0
0
0
0
0
0
0
0
0
0
0
0
0
0
0
0
0
0
0
0
0
0
0
0
0
0
0
0
0
0
0
0
0
0
0
0
0
0
0
0
0
0
0
0
0
0
0
0
1531.55
1573.79
1604.36
1623.21
1630.46
1626.34
1611.21
1585.57
1550.04
1505.37
1452.44
1392.23
1325.86
1254.51
1179.42
1101.8
1022.71
942.84
862.266
780.019
693.504
597.888
486.068
351.484
196.774
1553.19
1596.15
1627.22
1646.4
1653.77
1649.57
1634.17
1608.07
1571.9
1526.43
1472.54
1411.23
1343.63
1270.95
1194.46
1115.39
1034.85
953.577
871.675
788.194
700.517
603.736
490.592
354.367
197.752
1528.01
1570.16
1600.65
1619.47
1626.71
1622.62
1607.55
1581.99
1546.57
1502.04
1449.27
1389.25
1323.08
1251.94
1177.08
1099.69
1020.83
941.186
860.821
778.769
692.437
597.007
485.394
351.057
196.625
1548.33
1591.11
1622.05
1641.14
1648.48
1644.28
1628.94
1602.93
1566.9
1521.61
1467.93
1406.87
1339.55
1267.17
1190.99
1112.26
1032.05
951.098
869.502
786.305
698.896
602.383
489.544
353.699
197.526
1548.33
1591.11
1622.05
1641.14
1648.48
1644.28
1628.94
1602.93
1566.9
1521.61
1467.93
1406.87
1339.55
1267.17
1190.99
1112.26
1032.05
951.098
869.502
786.305
698.896
602.383
489.545
353.699
197.526
1528.01
1570.16
1600.65
1619.47
1626.72
1622.62
1607.55
1581.99
1546.57
1502.04
1449.27
1389.25
1323.08
1251.94
1177.08
1099.69
1020.83
941.186
860.821
778.769
692.437
597.007
485.394
351.057
196.625
1553.19
1596.15
1627.22
1646.4
1653.77
1649.57
1634.17
1608.07
1571.9
1526.43
1472.54
1411.23
1343.63
1270.95
1194.46
1115.39
1034.85
953.577
871.675
788.194
700.517
603.736
490.592
354.367
197.752
1531.55
1573.79
1604.36
1623.21
1630.46
1626.34
1611.21
1585.57
1550.04
1505.37
1452.44
1392.23
1325.86
1254.51
1179.42
1101.8
1022.71
942.84
862.266
780.019
693.504
597.888
486.068
351.484
196.774
1548.33
1591.11
1622.05
1641.14
1648.48
1644.28
1628.94
1602.93
1566.9
1521.61
1467.93
1406.87
1339.55
1267.17
1190.99
1112.26
1032.05
951.098
869.502
786.305
698.896
602.383
489.545
353.699
197.526
1528.01
1570.16
1600.65
1619.47
1626.71
1622.62
1607.55
1581.99
1546.57
1502.04
1449.27
1389.25
1323.08
1251.94
1177.08
1099.69
1020.83
941.186
860.821
778.769
692.437
597.007
485.394
351.057
196.625
1528.01
1570.16
1600.65
1619.47
1626.72
1622.62
1607.55
1581.99
1546.57
1502.04
1449.27
1389.25
1323.08
1251.94
1177.08
1099.69
1020.83
941.186
860.821
778.769
692.437
597.007
485.394
351.057
196.625
1548.33
1591.11
1622.05
1641.14
1648.48
1644.28
1628.94
1602.93
1566.9
1521.61
1467.93
1406.87
1339.55
1267.17
1190.99
1112.26
1032.05
951.098
869.502
786.305
698.896
602.383
489.545
353.699
197.526
)
;

boundaryField
{
    outletCentralUnloaded
    {
        type            zeroGradient;
    }
    inletCentralUnloaded
    {
        type            zeroGradient;
    }
    outletFuelElement
    {
        type            zeroGradient;
    }
    inletFuelElement
    {
        type            zeroGradient;
    }
    defaultFaces
    {
        type            zeroGradient;
    }
}


// ************************************************************************* //
