/*--------------------------------*- C++ -*----------------------------------*\
| =========                 |                                                 |
| \\      /  F ield         | OpenFOAM: The Open Source CFD Toolbox           |
|  \\    /   O peration     | Version:  2212                                  |
|   \\  /    A nd           | Website:  www.openfoam.com                      |
|    \\/     M anipulation  |                                                 |
\*---------------------------------------------------------------------------*/
FoamFile
{
    version     2.0;
    format      ascii;
    arch        "LSB;label=32;scalar=64";
    class       surfaceScalarField;
    location    "90/fluidRegion";
    object      alphaPhi;
}
// * * * * * * * * * * * * * * * * * * * * * * * * * * * * * * * * * * * * * //

dimensions      [0 3 -1 0 0 0 0];

oriented        oriented;

internalField   nonuniform List<scalar> 
661
(
-0.000538965
-1.24417e-13
-0.00053892
-5.25783e-14
-0.000538875
1.15666e-13
-0.00053883
2.65536e-13
-0.000538787
3.04797e-13
-0.000538745
2.07371e-13
-0.000538703
1.8159e-14
-0.000538661
-1.74256e-13
-0.000538617
-2.85437e-13
-0.000538572
-2.77916e-13
-0.000538526
-1.67478e-13
-0.00053848
-5.039e-15
-0.000538434
1.43061e-13
-0.000538389
2.1465e-13
-0.000538346
1.72437e-13
-0.000538303
2.37368e-14
-0.00053826
-1.69969e-13
-0.000538216
-3.14621e-13
-0.00053817
-3.26363e-13
-0.000538123
-1.80143e-13
-0.000538075
7.76172e-14
-0.000538029
3.40481e-13
-0.000537985
4.67021e-13
-0.000537944
2.3971e-13
-2.22233e-13
-0.000538965
-0.00053892
-0.000538875
-0.00053883
-0.000538787
-0.000538745
-0.000538703
-0.000538661
-0.000538617
-0.000538572
-0.000538526
-0.00053848
-0.000538434
-0.000538389
-0.000538346
-0.000538303
-0.00053826
-0.000538216
-0.00053817
-0.000538123
-0.000538075
-0.000538029
-0.000537985
-0.000537944
-0.0202316
1.41422e-06
-0.0198033
6.71395e-07
-0.0192586
7.27399e-07
-0.0186066
6.54582e-07
-0.0178567
5.92557e-07
-0.0170189
5.35108e-07
-0.0161035
4.81912e-07
-0.0151209
4.30354e-07
-0.0140818
3.74688e-07
-0.0129975
3.05473e-07
-0.0118797
2.10842e-07
-0.0107413
7.91459e-08
-0.00959658
-9.31127e-08
-0.00846124
-2.91992e-07
-0.00735214
-4.94976e-07
-0.00628645
-6.67879e-07
-0.00528038
-7.83972e-07
-0.00434809
-8.36122e-07
-0.00350116
-8.38162e-07
-0.00274931
-8.14453e-07
-0.00210126
-7.8719e-07
-0.00156638
-7.61583e-07
-0.00115537
-7.26666e-07
-0.00087935
-6.31178e-07
-6.01536e-07
-0.0203616
-4.1535e-08
-3.54065e-08
-0.0199323
-1.7737e-07
-1.75017e-07
-0.0193855
-1.68649e-07
-1.65662e-07
-0.0187304
-1.46361e-07
-1.43251e-07
-0.0179768
-1.27129e-07
-1.23851e-07
-0.0171344
-1.09365e-07
-1.0598e-07
-0.0162138
-9.30731e-08
-8.96282e-08
-0.0152252
-7.76063e-08
-7.40593e-08
-0.0141796
-6.14323e-08
-5.78048e-08
-0.0130882
-4.1893e-08
-3.81963e-08
-0.0119628
-1.52771e-08
-1.14901e-08
-0.0108163
2.19097e-08
2.5683e-08
-0.00966307
7.00419e-08
7.39351e-08
-0.00851894
1.30353e-07
1.34215e-07
-0.00740099
1.92686e-07
1.96486e-07
-0.00632664
2.47179e-07
2.50898e-07
-0.00531238
2.84783e-07
2.88412e-07
-0.00437258
3.02472e-07
3.05999e-07
-0.00351898
3.04077e-07
3.07502e-07
-0.00276143
2.97118e-07
3.00416e-07
-0.0021087
2.88273e-07
2.91325e-07
-0.00157023
2.77876e-07
2.80422e-07
-0.00115682
2.58963e-07
2.60891e-07
-0.000879545
2.05038e-07
2.06333e-07
1.56321e-07
1.57084e-07
-0.0202103
6.91706e-07
-0.0197823
6.51917e-07
-0.0192381
6.27371e-07
-0.0185866
5.58239e-07
-0.0178374
4.96388e-07
-0.0170004
4.39506e-07
-0.0160859
3.86801e-07
-0.0151043
3.35267e-07
-0.0140663
2.78442e-07
-0.0129831
2.06083e-07
-0.0118665
1.05416e-07
-0.0107295
-3.41937e-08
-0.00958612
-2.15431e-07
-0.00845216
-4.24881e-07
-0.00734445
-6.35711e-07
-0.00628011
-8.1188e-07
-0.00527531
-9.26135e-07
-0.00434418
-9.72597e-07
-0.00349826
-9.67267e-07
-0.00274728
-9.36096e-07
-0.00209992
-9.00643e-07
-0.00156557
-8.64603e-07
-0.00115493
-8.05057e-07
-0.000879132
-6.67759e-07
-5.43971e-07
-0.0203326
2.35813e-09
-0.0199035
-1.33183e-09
-0.0193571
-1.12314e-09
-0.0187027
-1.12749e-09
-0.0179498
-9.80491e-10
-0.0171084
-8.30271e-10
-0.0161889
-7.28722e-10
-0.0152017
-5.37555e-10
-0.0141575
-3.49733e-10
-0.0130676
-1.73243e-10
-0.0119439
8.78285e-11
-0.0107993
3.77277e-10
-0.00964794
6.59163e-10
-0.00850579
8.8985e-10
-0.00738984
1.03542e-09
-0.00631746
1.08836e-09
-0.00530507
1.10819e-09
-0.00436698
1.13358e-09
-0.00351491
1.06008e-09
-0.00275867
9.57757e-10
-0.00210701
8.56814e-10
-0.00156937
6.10786e-10
-0.00115652
3.01062e-10
-0.000879527
1.0156e-10
-1.41532e-10
-0.0203327
-6.86296e-07
-0.0199035
-6.54385e-07
-0.0193571
-6.29181e-07
-0.0187027
-5.60082e-07
-0.0179498
-4.98028e-07
-0.0171085
-4.40972e-07
-0.0161889
-3.88145e-07
-0.0152017
-3.36375e-07
-0.0141575
-2.79332e-07
-0.0130677
-2.06768e-07
-0.0119439
-1.05765e-07
-0.0107993
3.42049e-08
-0.00964795
2.15822e-07
-0.0085058
4.2556e-07
-0.00738985
6.3657e-07
-0.00631747
8.12821e-07
-0.00530508
9.27169e-07
-0.00436699
9.73769e-07
-0.00351492
9.6848e-07
-0.00275867
9.37341e-07
-0.00210701
9.01933e-07
-0.00156937
8.65702e-07
-0.00115652
8.05767e-07
-0.000879528
6.68149e-07
5.43848e-07
-0.0202103
3.66993e-08
-0.0197824
1.76774e-07
-0.0192381
1.67471e-07
-0.0185866
1.45063e-07
-0.0178374
1.2576e-07
-0.0170004
1.07902e-07
-0.0160859
9.14928e-08
-0.0151043
7.59313e-08
-0.0140663
5.96129e-08
-0.0129831
3.98968e-08
-0.0118665
1.31444e-08
-0.0107295
-2.4109e-08
-0.00958613
-7.23313e-08
-0.00845217
-1.32696e-07
-0.00734446
-1.95067e-07
-0.00628012
-2.49545e-07
-0.00527532
-2.87047e-07
-0.00434418
-3.04518e-07
-0.00349826
-3.05922e-07
-0.00274728
-2.98715e-07
-0.00209992
-2.89617e-07
-0.00156557
-2.78995e-07
-0.00115493
-2.59934e-07
-0.00087913
-2.0561e-07
-1.55719e-07
-0.0203616
-1.41418e-06
-3.94361e-08
-0.0199323
-6.7158e-07
-1.74299e-07
-0.0193855
-7.27684e-07
-1.65316e-07
-0.0187304
-6.54896e-07
-1.42916e-07
-0.0179768
-5.92813e-07
-1.23672e-07
-0.0171344
-5.35338e-07
-1.05946e-07
-0.0162138
-4.8214e-07
-8.97084e-08
-0.0152252
-4.30546e-07
-7.43301e-08
-0.0141796
-3.7489e-07
-5.82574e-08
-0.0130882
-3.05694e-07
-3.88192e-08
-0.0119628
-2.11015e-07
-1.23792e-08
-0.0108163
-7.92478e-08
2.45568e-08
-0.00966307
9.31053e-08
7.24533e-08
-0.00851894
2.92037e-07
1.32453e-07
-0.00740099
4.95064e-07
1.94474e-07
-0.00632664
6.68037e-07
2.48657e-07
-0.00531238
7.84292e-07
2.85885e-07
-0.00437258
8.36722e-07
3.03107e-07
-0.00351898
8.39094e-07
3.04236e-07
-0.00276143
8.15792e-07
2.96814e-07
-0.0021087
7.89122e-07
2.87298e-07
-0.00157023
7.64038e-07
2.76225e-07
-0.00115682
7.29459e-07
2.56867e-07
-0.000879545
6.3418e-07
2.02698e-07
6.04894e-07
1.5473e-07
-0.0202316
-0.0198033
-0.0192586
-0.0186066
-0.0178567
-0.0170189
-0.0161035
-0.0151209
-0.0140818
-0.0129975
-0.0118797
-0.0107413
-0.00959658
-0.00846124
-0.00735214
-0.00628645
-0.00528038
-0.00434809
-0.00350116
-0.00274931
-0.00210126
-0.00156638
-0.00115537
-0.00087935
-0.0203326
-6.94268e-07
4.50689e-09
-0.0199035
-6.55378e-07
1.44922e-09
-0.0193571
-6.3111e-07
1.89473e-09
-0.0187027
-5.62087e-07
2.03688e-09
-0.0179498
-5.00174e-07
2.10612e-09
-0.0171084
-4.43227e-07
2.19111e-09
-0.0161889
-3.9048e-07
2.31553e-09
-0.0152017
-3.38817e-07
2.40521e-09
-0.0141575
-2.81873e-07
2.53576e-09
-0.0130676
-2.09411e-07
2.68837e-09
-0.0119439
-1.08528e-07
2.80344e-09
-0.0107993
3.1369e-08
2.77843e-09
-0.00964794
2.12886e-07
2.90081e-09
-0.00850579
4.22618e-07
2.95013e-09
-0.00738984
6.33653e-07
3.01853e-09
-0.00631747
8.09965e-07
3.09235e-09
-0.00530507
9.24337e-07
3.13609e-09
-0.00436698
9.7091e-07
3.12821e-09
-0.00351491
9.6544e-07
3.2295e-09
-0.00275867
9.34035e-07
3.36799e-09
-0.00210701
8.9805e-07
3.55514e-09
-0.00156937
8.61238e-07
3.77066e-09
-0.00115652
8.00855e-07
3.91293e-09
-0.000879527
6.63217e-07
3.63949e-09
5.40489e-07
2.42971e-09
-0.0202103
-0.0197823
-0.0192381
-0.0185866
-0.0178374
-0.0170004
-0.0160859
-0.0151043
-0.0140663
-0.0129831
-0.0118665
-0.0107295
-0.00958612
-0.00845216
-0.00734445
-0.00628011
-0.00527531
-0.00434418
-0.00349826
-0.00274728
-0.00209992
-0.00156557
-0.00115493
-0.000879133
-0.0202103
6.8548e-07
-0.0197824
6.53474e-07
-0.0192381
6.28155e-07
-0.0185866
5.58999e-07
-0.0178374
4.97052e-07
-0.0170004
4.40041e-07
-0.0160859
3.87189e-07
-0.0151043
3.35489e-07
-0.0140663
2.78445e-07
-0.0129831
2.05845e-07
-0.0118665
1.04904e-07
-0.0107295
-3.49008e-08
-0.00958613
-2.16412e-07
-0.00845217
-4.26077e-07
-0.00734446
-6.37061e-07
-0.00628012
-8.13279e-07
-0.00527532
-9.27485e-07
-0.00434418
-9.73765e-07
-0.00349826
-9.68161e-07
-0.00274728
-9.36516e-07
-0.00209992
-9.00705e-07
-0.00156557
-8.64245e-07
-0.00115493
-8.04286e-07
-0.00087913
-6.66599e-07
-5.41049e-07
-0.0203327
-0.0199035
-0.0193571
-0.0187027
-0.0179498
-0.0171085
-0.0161889
-0.0152017
-0.0141575
-0.0130677
-0.0119439
-0.0107993
-0.00964795
-0.0085058
-0.00738985
-0.00631747
-0.00530508
-0.00436699
-0.00351492
-0.00275867
-0.00210701
-0.00156937
-0.00115652
-0.000879528
)
;

boundaryField
{
    outletCentralUnloaded
    {
        type            calculated;
        value           nonuniform List<scalar> 2(0.00053901 0.00053901);
    }
    inletCentralUnloaded
    {
        type            calculated;
        value           uniform -0.000540134;
    }
    outletFuelElement
    {
        type            calculated;
        value           nonuniform List<scalar> 
12
(
0.0205725
0.0207057
0.0205517
0.0206759
0.0206759
0.0205517
0.0207057
0.0205725
0.0206759
0.0205517
0.0205517
0.0206759
)
;
    }
    inletFuelElement
    {
        type            calculated;
        value           nonuniform List<scalar> 
12
(
-0.000722059
-0.00072206
-0.000722059
-0.000722059
-0.00072206
-0.000722059
-0.00072206
-0.000722059
-0.000722059
-0.000722059
-0.000722059
-0.00072206
)
;
    }
    defaultFaces
    {
        type            calculated;
        value           nonuniform List<scalar> 
450
(
3.67177e-23
-5.5122e-23
0
2.65617e-23
-9.91145e-24
0
1.55592e-23
7.92357e-24
0
-4.15668e-23
-1.24132e-23
0
-1.84762e-23
-3.61046e-23
0
-4.21222e-23
-1.522e-23
0
-2.31715e-23
-1.07789e-23
0
-3.61665e-23
-8.7765e-24
0
-2.30107e-23
-1.64265e-23
0
-1.8308e-23
-9.08703e-24
0
-1.46903e-23
-4.40215e-24
0
-4.5279e-24
-9.45386e-25
0
4.16067e-24
1.35226e-24
0
1.79481e-23
9.72607e-24
0
3.52174e-23
9.47133e-24
0
4.7197e-23
1.97073e-23
0
4.66456e-23
-6.19978e-24
0
6.54743e-23
2.14562e-23
0
4.57988e-23
-4.88794e-23
0
-3.11615e-23
-2.33235e-23
0
-2.09056e-23
-1.21287e-23
0
2.27963e-23
9.26647e-25
0
-2.40427e-23
-5.41693e-24
0
-2.55704e-23
-3.09579e-24
0
-2.31004e-23
-1.95635e-23
0
2.60738e-23
0
1.60454e-23
0
0
0
1.60454e-23
0
-1.2034e-23
0
1.2034e-23
0
1.2034e-23
0
4.01135e-24
0
-2.00567e-24
0
6.01702e-24
0
4.01135e-24
0
-2.00567e-24
0
-6.01702e-24
0
-1.60454e-23
0
-3.20908e-23
0
-3.20908e-23
0
4.81362e-23
0
0
0
1.60454e-23
0
-4.81362e-23
0
-4.01135e-23
0
4.81362e-23
0
0
0
-8.0227e-24
0
-1.60454e-23
0
-1.60454e-23
-8.0227e-24
8.0227e-24
0
1.60454e-23
-8.0227e-24
-1.60454e-23
-4.01135e-24
8.0227e-24
-4.01135e-24
0
5.01419e-25
4.01135e-24
0
1.60454e-23
0
-6.41816e-23
1.60454e-23
0
-1.60454e-23
1.60454e-23
-3.20908e-23
-3.20908e-23
0
1.60454e-23
0
0
0
0
0
0
0
0
0
0
0
0
0
0
0
0
0
0
0
0
0
0
0
0
0
-8.0227e-24
2.40681e-23
1.60454e-23
1.60454e-23
1.60454e-23
4.01135e-23
-1.60454e-23
-1.60454e-23
1.60454e-23
-8.0227e-24
-1.2034e-23
-1.2034e-23
-1.2034e-23
-1.2034e-23
-8.0227e-24
-1.2034e-23
1.40397e-23
-8.0227e-24
-6.01702e-24
-4.01135e-24
-2.50709e-24
-1.00284e-24
1.00284e-24
6.26773e-25
4.01135e-24
4.01135e-24
1.60454e-23
1.60454e-23
3.20908e-23
2.00567e-23
1.60454e-23
1.60454e-23
-1.60454e-23
4.01135e-23
3.20908e-23
1.60454e-23
-6.41816e-23
4.01135e-23
-3.20908e-23
-2.40681e-23
-1.60454e-23
-1.60454e-23
-4.01135e-23
4.81362e-23
-1.60454e-23
-1.60454e-23
-1.60454e-23
-2.40681e-23
-2.40681e-23
-1.2034e-23
1.46239e-23
0
-3.20908e-23
1.7604e-23
0
8.0227e-24
1.42515e-23
0
-4.81362e-23
-5.11182e-23
0
1.60454e-23
1.82434e-23
0
-8.0227e-24
-4.6292e-23
0
8.0227e-24
-4.25232e-23
0
1.60454e-23
-3.60738e-23
0
0
-2.75451e-23
0
-1.60454e-23
-2.84813e-23
0
4.01135e-24
-1.37066e-23
0
4.01135e-24
-6.47548e-24
0
2.00567e-24
7.69375e-24
-0
-2.00567e-24
2.36795e-23
-0
-8.0227e-24
3.9015e-23
-0
-8.0227e-24
6.09446e-23
-0
-2.40681e-23
4.78125e-23
-0
0
9.57519e-23
-0
1.60454e-23
3.46065e-23
-0
-1.60454e-23
-2.72105e-23
-0
1.60454e-23
-1.53579e-24
-0
1.60454e-23
3.53577e-23
-0
1.60454e-23
-2.08393e-23
-0
0
-1.62263e-23
-0
8.0227e-24
-1.64818e-23
-0
8.0227e-24
-1.60454e-23
-8.0227e-24
8.0227e-24
-8.0227e-24
1.60454e-23
-8.0227e-24
0
8.0227e-24
-4.01135e-24
0
0
0
4.01135e-24
8.0227e-24
1.60454e-23
1.60454e-23
-1.60454e-23
3.20908e-23
-1.60454e-23
0
0
-4.81362e-23
-1.60454e-23
0
0
1.40397e-23
0
1.60454e-23
0
0
0
2.40681e-23
0
-8.0227e-24
0
1.60454e-23
0
8.0227e-24
0
8.0227e-24
0
0
0
8.0227e-24
0
2.50709e-24
0
0
0
-8.0227e-24
-0
-1.60454e-23
-0
-2.40681e-23
-0
-2.40681e-23
-0
5.61589e-23
-0
-3.20908e-23
-0
3.20908e-23
-0
-3.20908e-23
-0
-4.01135e-23
-0
3.20908e-23
-0
0
-0
-2.40681e-23
-0
-2.40681e-23
-0
-2.50709e-23
8.0227e-24
-2.40681e-23
2.40681e-23
-1.60454e-23
1.60454e-23
-1.60454e-23
-4.01135e-23
0
1.60454e-23
-1.2034e-23
-3.61021e-23
-1.2034e-23
-2.40681e-23
-4.01135e-24
-2.00567e-23
4.01135e-24
-8.0227e-24
-8.0227e-24
-1.80511e-23
-3.50993e-24
-8.0227e-24
1.00284e-24
5.2649e-24
4.01135e-24
1.80511e-23
8.0227e-24
3.20908e-23
0
4.81362e-23
1.60454e-23
7.22043e-23
8.0227e-24
4.01135e-23
1.60454e-23
8.82497e-23
-1.60454e-23
4.01135e-23
1.60454e-23
-3.20908e-23
0
-4.01135e-23
0
3.20908e-23
2.40681e-23
-3.20908e-23
0
-2.40681e-23
0
-8.0227e-24
-0
-0
-0
-0
-0
-0
-0
-0
-0
-0
-0
0
0
0
0
0
0
0
0
0
0
0
0
0
0
)
;
    }
    baffle_master
    {
        type            calculated;
        value           nonuniform List<scalar> 
150
(
1.31614e-31
0
2.86167e-30
4.16649e-31
0
-7.15418e-31
1.16402e-30
0
-1.43084e-30
3.46269e-32
0
0
1.43215e-29
0
5.72334e-30
7.6714e-31
0
0
-1.64428e-33
0
3.57709e-31
1.23409e-30
0
0
1.72615e-30
0
-5.72334e-30
-1.72772e-30
0
0
1.14038e-30
0
0
-2.80282e-32
0
0
3.0031e-31
0
0
-2.16374e-31
0
2.86167e-30
4.68314e-33
0
-2.86167e-30
-1.43824e-33
0
0
1.684e-29
0
8.58502e-30
-6.22829e-30
0
5.72334e-30
2.4169e-29
0
1.717e-29
-1.73008e-30
0
0
1.99967e-31
0
-1.43084e-30
1.86995e-29
0
5.72334e-30
2.50274e-30
0
-5.72334e-30
-1.88167e-30
0
-5.72334e-30
2.2246e-30
0
2.86167e-30
0
-5.73782e-30
0
7.15418e-31
-2.21741e-30
0
0
5.15811e-30
-0
-5.72334e-30
8.71804e-30
-0
0
-7.81258e-30
-0
-2.86167e-30
7.2057e-30
-0
-3.57709e-31
8.53866e-31
-0
2.86167e-30
-5.96239e-30
0
-5.72334e-30
-1.41724e-29
0
0
-4.78377e-30
0
2.86167e-30
-8.73336e-30
0
0
-1.70476e-31
0
0
5.02894e-30
-0
-2.86167e-30
9.95081e-30
-0
0
6.45182e-30
-0
-7.15418e-31
4.57385e-31
-0
-5.72334e-30
-7.02319e-30
0
1.14467e-29
-8.71826e-30
0
-5.72334e-30
-4.00789e-31
0
0
4.68805e-30
0
0
-9.68364e-31
-0
1.14467e-29
-2.40012e-29
-0
1.717e-29
2.06038e-29
-0
0
-4.98177e-30
-0
0
6.0099e-30
0
)
;
    }
    baffle_slave
    {
        type            calculated;
        value           nonuniform List<scalar> 
150
(
3.00851e-24
-0
1.60454e-23
3.00851e-24
-0
8.0227e-24
2.25638e-24
-0
0
-2.82048e-24
-0
0
-2.77034e-23
-0
-1.60454e-23
3.88599e-24
-0
-8.0227e-24
4.26206e-24
-0
-8.0227e-24
-5.39025e-24
-0
8.0227e-24
-1.50426e-24
-0
-4.01135e-24
1.3789e-24
-0
4.01135e-24
1.12819e-24
-0
2.00567e-24
0
0
5.01419e-25
1.25355e-25
0
0
5.01419e-25
0
0
-6.26773e-25
0
0
-8.77483e-25
0
0
-5.50307e-23
0
-3.20908e-23
-2.7578e-24
0
-1.60454e-23
-3.20908e-23
0
-4.81362e-23
-6.51844e-24
0
0
-2.63245e-24
0
0
2.35667e-23
0
3.20908e-23
3.88599e-24
0
-1.60454e-23
-1.06551e-24
0
-8.0227e-24
-4.82615e-24
0
-8.0227e-24
-7.35917e-24
4.78855e-23
0
4.83878e-24
1.64215e-23
0
-7.21548e-24
2.29399e-23
0
-1.74697e-23
1.71736e-23
0
2.2459e-24
-2.80168e-23
0
-4.02352e-24
2.08089e-23
0
-5.67731e-25
1.02791e-23
0
-1.03294e-24
1.50112e-23
0
7.80225e-24
1.07805e-23
0
-5.26038e-24
1.00597e-23
0
5.86453e-25
8.03837e-24
0
5.33854e-25
3.25922e-24
0
4.73144e-24
-7.1981e-25
0
-2.29011e-25
-7.00419e-24
0
1.49798e-23
-9.74633e-24
0
3.32647e-23
-1.15013e-23
0
-2.99898e-23
-2.05895e-23
0
1.32171e-23
-2.04328e-23
0
-1.9156e-23
-1.04671e-23
0
3.6856e-24
1.00284e-23
0
2.03418e-23
1.66722e-23
0
-3.2624e-23
2.73273e-23
0
-3.14818e-23
-1.83018e-23
0
-4.08486e-24
8.52412e-24
0
5.45025e-24
8.68081e-24
0
)
;
    }
}


// ************************************************************************* //
