/*--------------------------------*- C++ -*----------------------------------*\
| =========                 |                                                 |
| \\      /  F ield         | OpenFOAM: The Open Source CFD Toolbox           |
|  \\    /   O peration     | Version:  2212                                  |
|   \\  /    A nd           | Website:  www.openfoam.com                      |
|    \\/     M anipulation  |                                                 |
\*---------------------------------------------------------------------------*/
FoamFile
{
    version     2.0;
    format      ascii;
    arch        "LSB;label=32;scalar=64";
    class       surfaceScalarField;
    location    "24/fluidRegion";
    object      alphaRhoPhi;
}
// * * * * * * * * * * * * * * * * * * * * * * * * * * * * * * * * * * * * * //

dimensions      [1 0 -1 0 0 0 0];

oriented        oriented;

internalField   nonuniform List<scalar> 
661
(
-0.00584758
5.20061e-15
-0.00584758
1.82969e-16
-0.00584758
1.8588e-15
-0.00584758
5.57072e-16
-0.00584758
2.79701e-15
-0.00584758
1.55924e-15
-0.00584758
1.40951e-14
-0.00584758
-2.2618e-15
-0.00584758
2.22771e-15
-0.00584758
3.39919e-15
-0.00584758
-2.8313e-16
-0.00584758
-9.3415e-15
-0.00584758
9.03636e-15
-0.00584758
-2.2953e-15
-0.00584758
9.84706e-15
-0.00584758
-4.48965e-15
-0.00584758
-1.59995e-15
-0.00584758
-5.27727e-15
-0.00584758
3.63905e-15
-0.00584758
-3.08603e-17
-0.00584758
-9.25899e-15
-0.00584758
-7.999e-15
-0.00584758
5.62174e-15
-0.00584758
-3.42095e-15
1.64142e-14
-0.00584758
-0.00584758
-0.00584758
-0.00584758
-0.00584758
-0.00584758
-0.00584758
-0.00584758
-0.00584758
-0.00584758
-0.00584758
-0.00584758
-0.00584758
-0.00584758
-0.00584758
-0.00584758
-0.00584758
-0.00584758
-0.00584758
-0.00584758
-0.00584758
-0.00584758
-0.00584758
-0.00584758
-0.00925066
5.95534e-07
-0.00925091
3.3896e-07
-0.00925121
3.85377e-07
-0.00925149
3.55899e-07
-0.00925175
3.32604e-07
-0.00925199
3.11026e-07
-0.00925222
2.90509e-07
-0.00925242
2.68292e-07
-0.00925261
2.39756e-07
-0.00925277
1.9649e-07
-0.00925287
1.27397e-07
-0.00925289
1.6419e-08
-0.00925278
-1.44885e-07
-0.00925248
-3.64315e-07
-0.00925194
-6.36129e-07
-0.00925112
-9.43687e-07
-0.00924999
-1.26722e-06
-0.00924855
-1.59881e-06
-0.00924676
-1.95496e-06
-0.00924456
-2.38331e-06
-0.0092418
-2.96021e-06
-0.00923825
-3.75275e-06
-0.00923372
-4.74706e-06
-0.00922848
-5.47321e-06
-6.41503e-06
-0.00917065
-2.86765e-08
-2.77988e-08
-0.00917015
-9.64614e-08
-9.76851e-08
-0.00916961
-9.13146e-08
-9.10058e-08
-0.00916913
-8.15503e-08
-8.04463e-08
-0.00916868
-7.33068e-08
-7.16712e-08
-0.00916827
-6.55165e-08
-6.40417e-08
-0.0091679
-5.78335e-08
-5.65242e-08
-0.00916756
-4.97303e-08
-4.87027e-08
-0.00916727
-3.96506e-08
-3.86916e-08
-0.00916704
-2.54452e-08
-2.45551e-08
-0.00916693
-2.97776e-09
-1.9339e-09
-0.00916698
3.03527e-08
3.15619e-08
-0.00916729
8.16603e-08
8.32436e-08
-0.00916796
1.52399e-07
1.54202e-07
-0.00916906
2.41858e-07
2.43871e-07
-0.00917067
3.45462e-07
3.47439e-07
-0.00917283
4.57655e-07
4.59404e-07
-0.00917556
5.76016e-07
5.77243e-07
-0.0091789
7.06822e-07
7.07238e-07
-0.00918299
8.66278e-07
8.65561e-07
-0.0091881
1.07995e-06
1.07792e-06
-0.00919457
1.36384e-06
1.35911e-06
-0.00920269
1.68596e-06
1.67546e-06
-0.00921173
1.76958e-06
1.75178e-06
1.70833e-06
1.68354e-06
-0.00926382
3.24502e-07
-0.00926419
3.49898e-07
-0.00926456
3.44621e-07
-0.0092649
3.14633e-07
-0.00926521
2.88594e-07
-0.00926549
2.64673e-07
-0.00926575
2.41155e-07
-0.00926598
2.15251e-07
-0.00926617
1.81151e-07
-0.00926631
1.3005e-07
-0.00926636
4.91239e-08
-0.00926628
-7.59249e-08
-0.009266
-2.57582e-07
-0.00926543
-5.01465e-07
-0.0092645
-8.01103e-07
-0.00926316
-1.13804e-06
-0.00926137
-1.49252e-06
-0.0092591
-1.85776e-06
-0.00925632
-2.25479e-06
-0.00925291
-2.73623e-06
-0.00924866
-3.38085e-06
-0.00924326
-4.24905e-06
-0.00923653
-5.24495e-06
-0.00922921
-5.75761e-06
-5.86143e-06
-0.00918859
1.22787e-09
-0.00918828
-1.60768e-10
-0.00918798
3.26996e-11
-0.0091877
-3.79728e-11
-0.00918745
-3.09954e-11
-0.00918722
-2.23651e-11
-0.00918701
-3.02353e-11
-0.00918683
1.49805e-11
-0.00918667
5.30492e-11
-0.00918657
7.54369e-11
-0.00918653
1.46837e-10
-0.00918661
2.45046e-10
-0.00918686
3.37232e-10
-0.00918733
4.25029e-10
-0.00918809
4.50759e-10
-0.00918918
4.24377e-10
-0.00919061
4.07153e-10
-0.00919241
5.21269e-10
-0.0091946
5.58625e-10
-0.00919728
6.28999e-10
-0.00920061
7.91527e-10
-0.00920483
4.2009e-10
-0.00921006
-4.49104e-10
-0.00921584
-1.49857e-09
-5.16515e-09
-0.0091886
-3.21876e-07
-0.00918829
-3.50198e-07
-0.00918799
-3.44412e-07
-0.00918771
-3.14604e-07
-0.00918746
-2.88615e-07
-0.00918723
-2.6474e-07
-0.00918702
-2.41246e-07
-0.00918684
-2.15274e-07
-0.00918668
-1.81105e-07
-0.00918658
-1.29929e-07
-0.00918654
-4.88382e-08
-0.00918662
7.64358e-08
-0.00918687
2.58295e-07
-0.00918734
5.02384e-07
-0.0091881
8.02105e-07
-0.00918919
1.13907e-06
-0.00919062
1.49357e-06
-0.00919242
1.85905e-06
-0.00919462
2.25618e-06
-0.00919729
2.73776e-06
-0.00920063
3.38255e-06
-0.00920484
4.25008e-06
-0.00921007
5.24416e-06
-0.00921586
5.75464e-06
5.85115e-06
-0.00926382
2.65998e-08
-0.0092642
9.61185e-08
-0.00926457
9.14188e-08
-0.00926491
8.20626e-08
-0.00926522
7.42229e-08
-0.0092655
6.62496e-08
-0.00926575
5.86278e-08
-0.00926598
5.0233e-08
-0.00926617
4.01809e-08
-0.00926631
2.56702e-08
-0.00926636
3.26721e-09
-0.00926628
-3.0275e-08
-0.009266
-8.14922e-08
-0.00926543
-1.52421e-07
-0.0092645
-2.41857e-07
-0.00926315
-3.45806e-07
-0.00926136
-4.58119e-07
-0.0092591
-5.76892e-07
-0.00925632
-7.08e-07
-0.0092529
-8.68151e-07
-0.00924864
-1.08222e-06
-0.00924324
-1.36733e-06
-0.00923652
-1.69118e-06
-0.00922919
-1.776e-06
-1.71112e-06
-0.00917065
-5.9643e-07
-2.92672e-08
-0.00917015
-3.39816e-07
-9.72788e-08
-0.00916961
-3.84736e-07
-9.13288e-08
-0.00916913
-3.54621e-07
-8.08106e-08
-0.00916868
-3.30738e-07
-7.21354e-08
-0.00916827
-3.09469e-07
-6.44011e-08
-0.0091679
-2.88877e-07
-5.68665e-08
-0.00916756
-2.67092e-07
-4.8979e-08
-0.00916727
-2.38513e-07
-3.89925e-08
-0.00916704
-1.95656e-07
-2.48137e-08
-0.00916693
-1.26418e-07
-2.30218e-09
-0.00916698
-1.57221e-08
3.10983e-08
-0.00916729
1.45792e-07
8.26017e-08
-0.00916796
3.64986e-07
1.53434e-07
-0.00916906
6.36904e-07
2.42966e-07
-0.00917067
9.44037e-07
3.46515e-07
-0.00917283
1.26751e-06
4.58397e-07
-0.00917556
1.5986e-06
5.76101e-07
-0.0091789
1.95457e-06
7.05962e-07
-0.00918299
2.38227e-06
8.64216e-07
-0.0091881
2.95909e-06
1.07636e-06
-0.00919457
3.75002e-06
1.35824e-06
-0.00920269
4.74083e-06
1.67674e-06
-0.00921173
5.46272e-06
1.75567e-06
6.40254e-06
1.69329e-06
-0.00925066
-0.00925091
-0.00925121
-0.00925149
-0.00925175
-0.00925199
-0.00925222
-0.00925242
-0.00925261
-0.00925277
-0.00925287
-0.00925289
-0.00925278
-0.00925248
-0.00925194
-0.00925112
-0.00924999
-0.00924855
-0.00924676
-0.00924456
-0.0092418
-0.00923825
-0.00923372
-0.00922848
-0.00918859
-3.2476e-07
1.24325e-09
-0.00918828
-3.49969e-07
-3.20098e-10
-0.00918798
-3.4441e-07
8.91335e-11
-0.0091877
-3.14272e-07
2.78325e-11
-0.00918745
-2.87984e-07
4.27973e-11
-0.00918722
-2.64054e-07
-6.45698e-12
-0.00918701
-2.40405e-07
4.64702e-11
-0.00918683
-2.14566e-07
2.67285e-11
-0.00918667
-1.80412e-07
6.66114e-11
-0.00918657
-1.29518e-07
1.04655e-10
-0.00918653
-4.86139e-08
1.49473e-10
-0.00918661
7.61909e-08
1.65185e-10
-0.00918686
2.57709e-07
2.59127e-10
-0.00918733
5.01254e-07
3.01647e-10
-0.00918809
8.00606e-07
4.90475e-10
-0.00918918
1.13701e-06
6.79733e-10
-0.00919061
1.49115e-06
9.53948e-10
-0.00919241
1.85601e-06
1.10424e-09
-0.0091946
2.25279e-06
1.50406e-09
-0.00919728
2.7339e-06
1.91331e-09
-0.00920061
3.37852e-06
2.45702e-09
-0.00920483
4.24631e-06
2.96826e-09
-0.00921006
5.24207e-06
2.58547e-09
-0.00921584
5.75538e-06
9.90095e-10
5.861e-06
-3.98671e-09
-0.00926382
-0.00926419
-0.00926456
-0.0092649
-0.00926521
-0.00926549
-0.00926575
-0.00926598
-0.00926617
-0.00926631
-0.00926636
-0.00926628
-0.009266
-0.00926543
-0.0092645
-0.00926316
-0.00926137
-0.0092591
-0.00925632
-0.00925291
-0.00924866
-0.00924326
-0.00923653
-0.00922921
-0.00926382
3.20878e-07
-0.0092642
3.491e-07
-0.00926457
3.44904e-07
-0.00926491
3.15782e-07
-0.00926522
2.90513e-07
-0.0092655
2.66178e-07
-0.00926575
2.42751e-07
-0.00926598
2.16224e-07
-0.00926617
1.82191e-07
-0.00926631
1.30555e-07
-0.00926636
4.97833e-08
-0.00926628
-7.56646e-08
-0.009266
-2.57047e-07
-0.00926543
-5.01327e-07
-0.0092645
-8.00776e-07
-0.00926315
-1.13831e-06
-0.00926136
-1.49292e-06
-0.0092591
-1.85921e-06
-0.00925632
-2.25686e-06
-0.0092529
-2.73981e-06
-0.00924865
-3.38529e-06
-0.00924324
-4.25584e-06
-0.00923652
-5.2553e-06
-0.00922919
-5.77169e-06
-5.86964e-06
-0.0091886
-0.00918829
-0.00918799
-0.00918771
-0.00918746
-0.00918723
-0.00918702
-0.00918684
-0.00918668
-0.00918658
-0.00918654
-0.00918662
-0.00918687
-0.00918734
-0.0091881
-0.00918919
-0.00919062
-0.00919242
-0.00919462
-0.0091973
-0.00920063
-0.00920484
-0.00921007
-0.00921586
)
;

boundaryField
{
    outletCentralUnloaded
    {
        type            calculated;
        value           nonuniform List<scalar> 2(0.00584758 0.00584758);
    }
    inletCentralUnloaded
    {
        type            calculated;
        value           nonuniform List<scalar> 2(-0.00587368 -0.00587368);
    }
    outletFuelElement
    {
        type            calculated;
        value           nonuniform List<scalar> 
12
(
0.00925014
0.00917127
0.00926353
0.00918888
0.00918889
0.00926354
0.00917127
0.00925014
0.00918888
0.00926353
0.00926354
0.00918889
)
;
    }
    inletFuelElement
    {
        type            calculated;
        value           nonuniform List<scalar> 
12
(
-0.00940594
-0.00940595
-0.00940594
-0.00940594
-0.00940595
-0.00940594
-0.00940595
-0.00940594
-0.00940594
-0.00940594
-0.00940594
-0.00940595
)
;
    }
    defaultFaces
    {
        type            calculated;
        value           nonuniform List<scalar> 
450
(
6.31612e-24
-1.44853e-23
0
7.87822e-24
5.51563e-24
0
1.08739e-23
1.15002e-23
0
-2.3891e-23
-9.73653e-24
0
-4.7526e-24
-2.39205e-23
0
-1.70104e-23
-1.10538e-23
0
-1.47922e-23
-1.12172e-23
0
-1.90046e-23
4.26065e-25
0
-1.28616e-23
-1.82241e-24
0
-1.41642e-23
-3.93381e-24
0
-1.01611e-23
-7.24848e-24
0
-8.57143e-25
-5.95844e-25
0
8.63707e-24
5.2151e-24
0
2.17011e-23
5.08212e-24
0
3.83488e-23
1.19101e-23
0
7.03816e-23
4.93551e-23
0
4.49116e-23
-1.70403e-23
0
1.00891e-22
5.34461e-23
0
6.68193e-23
-1.33456e-22
0
-4.08064e-23
-4.63601e-23
0
-5.51162e-23
-5.87952e-23
0
1.38636e-22
-1.19314e-22
0
-1.37257e-22
8.95784e-23
0
-1.54631e-22
-1.27977e-22
0
-2.25155e-22
-2.26692e-22
0
1.28894e-23
0
8.04931e-24
0
0
0
4.2301e-24
0
-6.57214e-24
0
9.14018e-24
0
4.8016e-24
0
1.01667e-23
0
-4.06898e-24
0
4.38049e-24
0
1.1901e-24
0
-1.74221e-24
0
-3.86904e-24
0
-1.73983e-23
0
-2.97397e-23
0
-2.29322e-23
0
8.08844e-23
0
-3.2277e-23
0
3.94278e-23
0
-1.23159e-22
0
-1.89301e-22
0
2.07249e-22
0
1.66648e-22
0
-2.2306e-22
0
-3.77469e-22
0
-7.82242e-24
0
-8.10821e-24
-4.16987e-24
0
-4.50392e-24
-4.73158e-24
-5.00876e-24
5.34523e-24
-2.87705e-24
-7.81614e-25
0
7.6238e-24
1.71442e-23
9.77119e-24
0
-2.66013e-23
6.37381e-23
-3.89647e-23
0
1.25028e-22
-8.22701e-23
-1.10488e-22
7.41237e-23
0
0
0
0
0
0
0
0
0
0
0
0
0
0
0
0
0
0
0
0
0
0
0
0
0
0
-7.93192e-24
7.93192e-24
0
1.2074e-23
8.22422e-24
2.05606e-23
-8.4602e-24
-8.4602e-24
1.09536e-23
-8.76284e-24
-6.85513e-24
-4.57009e-24
-7.20239e-24
-2.4008e-24
-7.62504e-24
-5.08336e-24
1.22069e-23
-5.4253e-24
-2.92032e-24
-5.84065e-24
-1.09092e-24
-7.93399e-25
3.48443e-24
2.61332e-24
7.73808e-24
9.6726e-24
8.69916e-24
1.73983e-23
1.98265e-23
2.47831e-23
4.58643e-23
4.58643e-23
-5.39228e-23
5.39228e-23
3.22769e-23
4.84154e-23
-1.18283e-22
1.18283e-22
-1.4779e-22
-7.38952e-23
0
-6.31002e-23
-1.65799e-22
2.07248e-22
-1.11098e-22
-1.66647e-22
1.48707e-22
-1.48707e-22
-2.83102e-22
-1.88735e-22
7.02273e-24
0
0
-8.09314e-25
0
8.02962e-24
1.78317e-23
0
-4.10198e-23
-3.405e-23
0
0
1.81902e-23
0
0
-2.58395e-23
0
9.11724e-24
-2.17169e-23
0
4.7895e-24
-2.50217e-23
0
5.07051e-24
-1.02802e-23
0
-1.08231e-23
-1.68054e-23
0
2.91292e-24
-1.18877e-23
0
0
-1.48941e-24
0
2.17227e-25
1.14497e-23
-0
-3.85936e-24
2.90884e-23
-0
-8.67773e-24
6.14718e-23
-0
-1.97788e-23
8.43823e-23
-0
-1.14394e-23
5.68223e-23
-0
2.69016e-23
1.57769e-22
-0
-6.44191e-23
7.9831e-23
-0
-7.87035e-23
-7.70216e-23
-0
4.9178e-23
-3.5459e-23
-0
6.30055e-23
1.23941e-22
-0
0
-1.23409e-22
-0
0
1.78579e-24
-0
7.43163e-23
-2.45326e-22
-0
0
-7.82242e-24
0
0
-8.33973e-24
4.31849e-24
0
-4.73158e-24
0
0
-2.87705e-24
-7.81614e-25
0
0
8.57211e-24
9.77119e-24
0
-5.32026e-23
6.37381e-23
-1.55859e-22
4.8739e-23
6.25141e-23
0
-1.10488e-22
0
-9.42833e-23
1.58639e-23
0
1.2074e-23
0
4.11211e-24
0
1.26903e-23
0
-2.19071e-24
0
1.14252e-23
0
7.2024e-24
0
7.62505e-24
0
-2.71265e-24
0
6.57074e-24
0
1.48762e-24
0
-1.74221e-24
-0
-3.86904e-24
-0
-8.69917e-24
-0
-1.98265e-23
-0
-4.58643e-23
-0
6.74036e-23
-0
-6.4554e-23
-0
7.88557e-23
-0
-9.8527e-23
-0
-1.26201e-22
-0
2.48699e-22
-0
0
-0
-2.97414e-22
-0
-2.35918e-22
-0
-6.94043e-24
3.96596e-24
-4.02465e-24
8.04931e-24
-1.23363e-23
8.22422e-24
-8.4602e-24
-2.53806e-23
2.19071e-24
8.76284e-24
-6.85513e-24
-2.28504e-23
-4.8016e-24
-1.68056e-23
-5.08336e-24
-1.27084e-23
1.35632e-24
-5.4253e-24
-3.65041e-24
-1.02211e-23
-8.92573e-25
-2.3802e-24
1.74221e-24
6.96885e-24
3.86904e-24
1.93452e-23
1.30487e-23
4.34958e-23
1.98265e-23
6.4436e-23
2.29321e-23
1.03195e-22
-1.34807e-23
8.08843e-23
3.22769e-23
1.29108e-22
0
1.18283e-22
0
-4.92634e-23
0
-1.262e-22
0
1.65799e-22
1.11098e-22
-1.66647e-22
0
-1.48707e-22
0
-1.88735e-22
-0
-0
-0
-0
-0
-0
-0
-0
-0
-0
-0
0
0
0
0
0
0
0
0
0
0
0
0
0
0
)
;
    }
    baffle_master
    {
        type            calculated;
        value           nonuniform List<scalar> 
150
(
-2.22848e-32
0
-1.21319e-31
2.38351e-33
0
0
4.95413e-33
0
0
-6.46693e-33
0
0
1.17154e-31
0
6.06798e-32
-6.14177e-33
0
-3.03424e-32
4.55896e-33
0
-2.42759e-31
-1.01834e-32
0
0
-1.26675e-32
0
0
-5.2205e-32
0
0
2.46423e-33
0
0
7.94338e-32
0
0
4.1944e-32
0
-1.2144e-31
1.68325e-32
0
3.03624e-32
7.2592e-32
0
-1.2146e-31
3.744e-32
0
-1.2147e-31
1.5517e-31
0
9.11097e-32
5.66947e-32
0
0
-2.72888e-31
0
-1.215e-31
-9.72817e-35
0
4.74647e-34
5.68728e-32
0
1.2152e-31
-4.82417e-31
0
-1.2153e-31
1.40102e-32
0
1.2154e-31
-3.50631e-33
0
1.2155e-31
-8.70462e-32
0
-4.86237e-31
0
1.19572e-31
-0
0
6.66483e-33
-0
0
9.82551e-32
-0
-7.58434e-33
1.58353e-32
-0
0
-6.56944e-32
-0
-6.06848e-32
4.68322e-32
-0
-2.42759e-31
5.59773e-31
-0
-3.03474e-32
-1.0692e-31
0
6.06998e-32
5.17193e-32
-0
0
1.06374e-31
-0
1.13831e-32
-7.75176e-33
0
2.42859e-31
-1.76215e-31
0
-1.2144e-31
3.95168e-31
-0
3.03624e-32
-7.45939e-32
0
-2.42919e-31
4.04737e-31
-0
6.07348e-32
-1.50421e-31
0
-6.07398e-32
-4.81573e-32
0
1.2149e-31
-1.82553e-31
0
1.215e-31
7.09909e-32
-0
-4.74647e-34
1.77993e-34
0
0
7.41029e-32
0
-3.64589e-31
5.09291e-31
0
2.43079e-31
2.53391e-31
-0
-6.07748e-32
5.23915e-32
0
0
-4.01931e-31
-0
)
;
    }
    baffle_slave
    {
        type            calculated;
        value           nonuniform List<scalar> 
150
(
-1.27914e-24
-0
3.91121e-24
-2.28659e-24
-0
-7.93693e-24
-4.73479e-26
-0
8.10821e-24
1.68819e-24
-0
0
-1.78863e-23
-0
-1.29555e-23
-2.17392e-24
-0
4.50392e-24
-1.10503e-24
-0
0
2.02752e-24
-0
-5.00876e-24
2.03883e-24
-0
-2.67262e-24
-2.10515e-24
-0
-2.87705e-24
4.38051e-25
-0
0
-5.34396e-26
0
0
-7.12119e-25
0
-3.8119e-24
-1.0009e-24
0
0
-1.44524e-24
0
0
-2.64076e-25
0
0
-6.35884e-23
0
-7.98039e-23
-1.30919e-23
0
0
-7.00926e-23
0
-1.16894e-22
-5.31652e-24
0
0
-1.63836e-23
0
0
1.41611e-22
0
8.22701e-23
5.1719e-24
0
0
-5.78639e-25
0
-7.41237e-23
-5.22863e-23
0
-9.42833e-23
-4.74557e-24
1.47405e-23
0
2.23427e-24
1.19274e-23
0
-3.91533e-24
9.89966e-24
0
-2.18575e-25
1.09083e-23
0
-1.21932e-25
-1.74829e-23
0
-2.62391e-24
1.06592e-23
0
-4.00503e-24
5.81981e-24
0
-2.32792e-24
6.58943e-24
0
2.21541e-24
9.32037e-24
0
-4.26237e-24
6.31544e-24
0
-1.43168e-24
3.06635e-24
0
2.41285e-24
1.60319e-24
0
-2.33834e-24
-1.95833e-24
0
1.44118e-23
-9.94231e-24
0
9.69904e-24
-1.37298e-23
0
9.98798e-24
-2.38108e-23
0
-2.11439e-23
-3.3024e-23
0
2.63314e-23
-2.99997e-23
0
-5.98051e-23
1.0623e-24
0
-4.74737e-23
4.32917e-23
0
3.8346e-23
2.72857e-23
0
-6.7065e-23
1.43054e-22
0
5.11475e-24
-9.56802e-23
0
-6.89524e-23
8.27454e-23
0
6.65406e-23
1.39185e-22
0
)
;
    }
}


// ************************************************************************* //
