/*--------------------------------*- C++ -*----------------------------------*\
| =========                 |                                                 |
| \\      /  F ield         | OpenFOAM: The Open Source CFD Toolbox           |
|  \\    /   O peration     | Version:  2212                                  |
|   \\  /    A nd           | Website:  www.openfoam.com                      |
|    \\/     M anipulation  |                                                 |
\*---------------------------------------------------------------------------*/
FoamFile
{
    version     2.0;
    format      ascii;
    arch        "LSB;label=32;scalar=64";
    class       volScalarField;
    location    "24/fluidRegion";
    object      heatFlux.structure;
}
// * * * * * * * * * * * * * * * * * * * * * * * * * * * * * * * * * * * * * //

dimensions      [1 0 -3 0 0 0 0];

internalField   nonuniform List<scalar> 
350
(
-258236
-258238
-258241
-258244
-258247
-258250
-258253
-258256
-258259
-258262
-258265
-258268
-258270
-258273
-258276
-258279
-258282
-258285
-258288
-258291
-258294
-258296
-258299
-258302
-258770
-258236
-258238
-258241
-258244
-258247
-258250
-258253
-258256
-258259
-258262
-258265
-258268
-258270
-258273
-258276
-258279
-258282
-258285
-258288
-258291
-258294
-258296
-258299
-258302
-258770
156249
997438
1.82059e+06
2.61269e+06
3.36122e+06
4.05438e+06
4.68124e+06
5.23192e+06
5.69776e+06
6.07143e+06
6.34708e+06
6.5204e+06
6.58867e+06
6.55084e+06
6.40751e+06
6.16089e+06
5.81482e+06
5.37473e+06
4.84761e+06
4.24213e+06
3.56853e+06
2.83912e+06
2.06834e+06
1.2722e+06
463813
155272
1.00609e+06
1.83869e+06
2.63989e+06
3.39704e+06
4.0982e+06
4.73231e+06
5.28938e+06
5.76065e+06
6.1387e+06
6.41762e+06
6.59304e+06
6.66223e+06
6.62411e+06
6.47928e+06
6.23e+06
5.88014e+06
5.43518e+06
4.90218e+06
4.28988e+06
3.60863e+06
2.8709e+06
2.09129e+06
1.28604e+06
468452
156416
996066
1.81771e+06
2.60835e+06
3.35551e+06
4.0474e+06
4.6731e+06
5.22276e+06
5.68773e+06
6.0607e+06
6.33583e+06
6.50881e+06
6.57693e+06
6.53915e+06
6.39605e+06
6.14986e+06
5.80439e+06
5.36508e+06
4.8389e+06
4.23451e+06
3.56212e+06
2.83404e+06
2.06467e+06
1.26998e+06
463072
155466
1.00407e+06
1.8345e+06
2.63361e+06
3.38878e+06
4.0881e+06
4.72054e+06
5.27614e+06
5.74616e+06
6.12321e+06
6.40138e+06
6.57632e+06
6.6453e+06
6.60725e+06
6.46276e+06
6.2141e+06
5.86511e+06
5.42127e+06
4.88962e+06
4.27889e+06
3.5994e+06
2.86358e+06
2.08601e+06
1.28286e+06
467385
155466
1.00407e+06
1.8345e+06
2.63361e+06
3.38878e+06
4.0881e+06
4.72054e+06
5.27614e+06
5.74616e+06
6.12321e+06
6.40138e+06
6.57632e+06
6.64529e+06
6.60724e+06
6.46276e+06
6.2141e+06
5.86511e+06
5.42127e+06
4.88962e+06
4.27889e+06
3.5994e+06
2.86358e+06
2.08601e+06
1.28286e+06
467385
156415
996066
1.81771e+06
2.60835e+06
3.35551e+06
4.0474e+06
4.6731e+06
5.22275e+06
5.68773e+06
6.0607e+06
6.33583e+06
6.5088e+06
6.57693e+06
6.53915e+06
6.39605e+06
6.14986e+06
5.80439e+06
5.36508e+06
4.8389e+06
4.23451e+06
3.56212e+06
2.83404e+06
2.06467e+06
1.26998e+06
463072
155272
1.00609e+06
1.83869e+06
2.63989e+06
3.39704e+06
4.0982e+06
4.73231e+06
5.28938e+06
5.76065e+06
6.1387e+06
6.41762e+06
6.59304e+06
6.66223e+06
6.62411e+06
6.47928e+06
6.23e+06
5.88014e+06
5.43518e+06
4.90218e+06
4.28988e+06
3.60863e+06
2.8709e+06
2.09129e+06
1.28604e+06
468452
156249
997438
1.82059e+06
2.61269e+06
3.36122e+06
4.05438e+06
4.68124e+06
5.23192e+06
5.69776e+06
6.07143e+06
6.34708e+06
6.52039e+06
6.58867e+06
6.55084e+06
6.40751e+06
6.16089e+06
5.81482e+06
5.37473e+06
4.84761e+06
4.24213e+06
3.56853e+06
2.83912e+06
2.06835e+06
1.2722e+06
463813
155466
1.00407e+06
1.8345e+06
2.63361e+06
3.38878e+06
4.0881e+06
4.72054e+06
5.27614e+06
5.74616e+06
6.12321e+06
6.40138e+06
6.57632e+06
6.64529e+06
6.60725e+06
6.46276e+06
6.2141e+06
5.86511e+06
5.42127e+06
4.88962e+06
4.27889e+06
3.5994e+06
2.86358e+06
2.08601e+06
1.28286e+06
467385
156416
996066
1.81771e+06
2.60835e+06
3.35551e+06
4.0474e+06
4.6731e+06
5.22275e+06
5.68773e+06
6.0607e+06
6.33583e+06
6.5088e+06
6.57693e+06
6.53915e+06
6.39605e+06
6.14986e+06
5.80439e+06
5.36508e+06
4.8389e+06
4.23451e+06
3.56212e+06
2.83404e+06
2.06467e+06
1.26998e+06
463072
156415
996066
1.81771e+06
2.60835e+06
3.35551e+06
4.0474e+06
4.6731e+06
5.22275e+06
5.68772e+06
6.0607e+06
6.33583e+06
6.5088e+06
6.57693e+06
6.53915e+06
6.39605e+06
6.14986e+06
5.80439e+06
5.36508e+06
4.8389e+06
4.23451e+06
3.56212e+06
2.83404e+06
2.06467e+06
1.26998e+06
463072
155466
1.00407e+06
1.8345e+06
2.63361e+06
3.38878e+06
4.0881e+06
4.72054e+06
5.27614e+06
5.74616e+06
6.12321e+06
6.40138e+06
6.57632e+06
6.64529e+06
6.60724e+06
6.46276e+06
6.2141e+06
5.86511e+06
5.42127e+06
4.88962e+06
4.27889e+06
3.5994e+06
2.86358e+06
2.08601e+06
1.28286e+06
467385
)
;

boundaryField
{
    outletCentralUnloaded
    {
        type            zeroGradient;
    }
    inletCentralUnloaded
    {
        type            zeroGradient;
    }
    outletFuelElement
    {
        type            zeroGradient;
    }
    inletFuelElement
    {
        type            zeroGradient;
    }
    defaultFaces
    {
        type            zeroGradient;
    }
    baffle_master
    {
        type            zeroGradient;
    }
    baffle_slave
    {
        type            zeroGradient;
    }
}


// ************************************************************************* //
