/*--------------------------------*- C++ -*----------------------------------*\
| =========                 |                                                 |
| \\      /  F ield         | OpenFOAM: The Open Source CFD Toolbox           |
|  \\    /   O peration     | Version:  2212                                  |
|   \\  /    A nd           | Website:  www.openfoam.com                      |
|    \\/     M anipulation  |                                                 |
\*---------------------------------------------------------------------------*/
FoamFile
{
    version     2.0;
    format      ascii;
    arch        "LSB;label=32;scalar=64";
    class       volScalarField;
    location    "24/fluidRegion";
    object      htc;
}
// * * * * * * * * * * * * * * * * * * * * * * * * * * * * * * * * * * * * * //

dimensions      [1 0 -3 -1 0 0 0];

internalField   nonuniform List<scalar> 
350
(
3100.49
3100.51
3100.53
3100.54
3100.56
3100.58
3100.59
3100.61
3100.63
3100.64
3100.66
3100.68
3100.69
3100.71
3100.73
3100.75
3100.76
3100.78
3100.8
3100.81
3100.83
3100.85
3100.86
3100.88
3106.48
3100.49
3100.51
3100.53
3100.54
3100.56
3100.58
3100.59
3100.61
3100.63
3100.64
3100.66
3100.68
3100.69
3100.71
3100.73
3100.75
3100.76
3100.78
3100.8
3100.81
3100.83
3100.85
3100.86
3100.88
3106.48
25686.6
25634.2
25489.8
25223.4
24836.6
24331.5
23711.4
22980.5
22144.2
21210.2
20188.1
19090.2
17930.6
16724.6
15486.4
14228
12958.7
11686.6
10422
9181.94
7994.89
6905.81
5980.44
5301.3
4874.19
25767.4
25715
25571.4
25305.2
24917.9
24412
23790.3
23056.9
22217.4
21278.9
20251.3
19146.7
17979.6
16765.8
15520.1
14255.1
12980.2
11703.4
10434.6
9190.39
7999.11
6905.96
5977.51
5297.45
4872.44
25673.8
25621
25476.6
25210.2
24823.4
24318.6
23698.8
22968.2
22132.5
21199.2
20178
19081.2
17922.8
16718
15480.9
14223.5
12955
11683.6
10419.6
9180.11
7993.64
6905.07
5980.07
5301.06
4874.05
25749.5
25697.1
25553.3
25287
24899.8
24394
23772.6
23039.8
22200.9
21263.4
20237
19133.9
17968.5
16756.5
15512.5
14249
12975.4
11699.7
10431.8
9188.54
7998.23
6906.02
5978.28
5298.45
4872.9
25749.5
25697.1
25553.3
25287
24899.8
24394
23772.6
23039.8
22200.9
21263.4
20237
19133.9
17968.5
16756.5
15512.5
14249
12975.4
11699.7
10431.8
9188.54
7998.23
6906.02
5978.28
5298.45
4872.9
25673.8
25621
25476.6
25210.2
24823.4
24318.6
23698.8
22968.2
22132.5
21199.2
20178.1
19081.2
17922.8
16718
15480.9
14223.5
12955
11683.6
10419.6
9180.11
7993.63
6905.06
5980.06
5301.05
4874.05
25767.4
25715
25571.4
25305.2
24917.9
24412
23790.3
23056.9
22217.4
21278.9
20251.3
19146.7
17979.6
16765.8
15520.1
14255.1
12980.2
11703.4
10434.6
9190.39
7999.11
6905.96
5977.51
5297.45
4872.44
25686.6
25634.2
25489.8
25223.4
24836.6
24331.5
23711.4
22980.5
22144.2
21210.2
20188.1
19090.2
17930.6
16724.6
15486.4
14228
12958.7
11686.6
10422
9181.94
7994.89
6905.81
5980.44
5301.3
4874.19
25749.5
25697.1
25553.3
25287
24899.8
24394
23772.6
23039.8
22200.9
21263.4
20237
19133.9
17968.5
16756.5
15512.5
14249
12975.4
11699.7
10431.8
9188.54
7998.23
6906.02
5978.28
5298.45
4872.9
25673.7
25621
25476.6
25210.2
24823.4
24318.6
23698.8
22968.2
22132.5
21199.2
20178
19081.2
17922.8
16718
15480.9
14223.5
12955
11683.6
10419.6
9180.11
7993.64
6905.07
5980.07
5301.06
4874.05
25673.8
25621
25476.6
25210.2
24823.4
24318.6
23698.8
22968.2
22132.5
21199.2
20178.1
19081.2
17922.8
16718
15480.9
14223.5
12955
11683.6
10419.6
9180.11
7993.63
6905.06
5980.06
5301.05
4874.05
25749.5
25697.1
25553.3
25287
24899.8
24394
23772.6
23039.8
22200.9
21263.4
20237
19133.9
17968.5
16756.5
15512.5
14249
12975.4
11699.7
10431.8
9188.54
7998.23
6906.02
5978.28
5298.45
4872.9
)
;

boundaryField
{
    outletCentralUnloaded
    {
        type            zeroGradient;
    }
    inletCentralUnloaded
    {
        type            zeroGradient;
    }
    outletFuelElement
    {
        type            zeroGradient;
    }
    inletFuelElement
    {
        type            zeroGradient;
    }
    defaultFaces
    {
        type            zeroGradient;
    }
    baffle_master
    {
        type            zeroGradient;
    }
    baffle_slave
    {
        type            zeroGradient;
    }
}


// ************************************************************************* //
