/*--------------------------------*- C++ -*----------------------------------*\
| =========                 |                                                 |
| \\      /  F ield         | OpenFOAM: The Open Source CFD Toolbox           |
|  \\    /   O peration     | Version:  2212                                  |
|   \\  /    A nd           | Website:  www.openfoam.com                      |
|    \\/     M anipulation  |                                                 |
\*---------------------------------------------------------------------------*/
FoamFile
{
    version     2.0;
    format      ascii;
    arch        "LSB;label=32;scalar=64";
    class       volScalarField;
    location    "24/fluidRegion";
    object      k;
}
// * * * * * * * * * * * * * * * * * * * * * * * * * * * * * * * * * * * * * //

dimensions      [0 2 -2 0 0 0 0];

internalField   nonuniform List<scalar> 
350
(
0.42083
0.42076
0.420691
0.420622
0.420553
0.420484
0.420416
0.420348
0.420281
0.420215
0.42015
0.420089
0.420031
0.419979
0.419937
0.419908
0.419902
0.419928
0.420004
0.420157
0.420428
0.420879
0.421603
0.422748
0.424532
0.42083
0.42076
0.420691
0.420622
0.420553
0.420484
0.420416
0.420348
0.420281
0.420215
0.42015
0.420089
0.420031
0.419979
0.419937
0.419908
0.419902
0.419928
0.420004
0.420157
0.420428
0.420879
0.421603
0.422748
0.424532
348.229
330.672
310.19
287.091
262.068
235.825
209.047
182.385
156.44
131.749
108.773
87.8811
69.3455
53.327
39.8707
28.9079
20.2677
13.6999
8.90427
5.56011
3.35275
1.99196
1.22621
0.851661
0.71752
352.959
335.214
314.508
291.135
265.801
239.218
212.082
185.053
158.742
133.694
110.377
89.1708
70.3515
54.0856
40.4214
29.2909
20.5213
13.8586
8.99697
5.60984
3.37664
2.00186
1.22958
0.852603
0.717893
347.443
329.916
309.475
286.424
261.455
235.27
208.552
181.951
156.067
131.435
108.514
87.6741
69.1845
53.2057
39.7828
28.8467
20.227
13.6744
8.88913
5.55179
3.34855
1.99004
1.22541
0.851353
0.717407
351.921
334.216
313.556
290.241
264.974
238.465
211.406
184.457
158.227
133.258
110.017
88.8801
70.1242
53.9138
40.2965
29.2039
20.4636
13.8225
8.97585
5.59852
3.37121
1.99963
1.22883
0.852406
0.717818
351.921
334.216
313.556
290.241
264.974
238.465
211.406
184.457
158.227
133.258
110.017
88.8801
70.1242
53.9138
40.2965
29.2039
20.4636
13.8225
8.97585
5.59852
3.37121
1.99963
1.22883
0.852406
0.717818
347.443
329.916
309.476
286.424
261.455
235.27
208.552
181.951
156.067
131.436
108.515
87.6742
69.1845
53.2058
39.7828
28.8467
20.2271
13.6744
8.88914
5.55179
3.34855
1.99004
1.22541
0.851353
0.717407
352.959
335.214
314.508
291.135
265.801
239.218
212.082
185.053
158.742
133.694
110.377
89.1708
70.3515
54.0856
40.4214
29.2909
20.5213
13.8586
8.99697
5.60985
3.37664
2.00186
1.22958
0.852604
0.717893
348.229
330.672
310.19
287.091
262.069
235.825
209.047
182.385
156.44
131.749
108.773
87.8811
69.3455
53.327
39.8707
28.9079
20.2677
13.6999
8.90426
5.5601
3.35275
1.99196
1.22621
0.85166
0.717518
351.921
334.216
313.556
290.241
264.974
238.465
211.406
184.457
158.227
133.258
110.017
88.8801
70.1242
53.9138
40.2965
29.2039
20.4636
13.8225
8.97585
5.59852
3.37121
1.99963
1.22883
0.852406
0.717818
347.443
329.916
309.476
286.424
261.455
235.27
208.552
181.951
156.067
131.435
108.514
87.6741
69.1845
53.2057
39.7828
28.8467
20.227
13.6743
8.88913
5.55178
3.34855
1.99004
1.22541
0.851351
0.717404
347.443
329.916
309.476
286.424
261.455
235.27
208.552
181.951
156.067
131.436
108.515
87.6742
69.1845
53.2058
39.7828
28.8467
20.2271
13.6744
8.88913
5.55178
3.34855
1.99004
1.22541
0.851352
0.717406
351.921
334.216
313.556
290.241
264.974
238.465
211.406
184.458
158.227
133.258
110.017
88.8802
70.1242
53.9138
40.2965
29.2038
20.4636
13.8225
8.97584
5.59851
3.37121
1.99962
1.22883
0.852404
0.717816
)
;

boundaryField
{
    outletCentralUnloaded
    {
        type            zeroGradient;
    }
    inletCentralUnloaded
    {
        type            zeroGradient;
    }
    outletFuelElement
    {
        type            zeroGradient;
    }
    inletFuelElement
    {
        type            zeroGradient;
    }
    defaultFaces
    {
        type            zeroGradient;
    }
    baffle_master
    {
        type            zeroGradient;
    }
    baffle_slave
    {
        type            zeroGradient;
    }
}


// ************************************************************************* //
