/*--------------------------------*- C++ -*----------------------------------*\
| =========                 |                                                 |
| \\      /  F ield         | OpenFOAM: The Open Source CFD Toolbox           |
|  \\    /   O peration     | Version:  2212                                  |
|   \\  /    A nd           | Website:  www.openfoam.com                      |
|    \\/     M anipulation  |                                                 |
\*---------------------------------------------------------------------------*/
FoamFile
{
    version     2.0;
    format      ascii;
    arch        "LSB;label=32;scalar=64";
    class       volScalarField;
    location    "24/fluidRegion";
    object      nut;
}
// * * * * * * * * * * * * * * * * * * * * * * * * * * * * * * * * * * * * * //

dimensions      [0 2 -1 0 0 0 0];

internalField   nonuniform List<scalar> 
350
(
0.000537427
0.000537383
0.000537339
0.000537294
0.00053725
0.000537206
0.000537162
0.000537119
0.000537076
0.000537033
0.000536991
0.00053695
0.000536911
0.000536875
0.000536844
0.000536819
0.000536804
0.000536805
0.000536829
0.00053689
0.000537006
0.000537207
0.000537537
0.000538065
0.000539569
0.000537427
0.000537383
0.000537339
0.000537294
0.00053725
0.000537206
0.000537162
0.000537119
0.000537076
0.000537033
0.000536991
0.00053695
0.000536911
0.000536875
0.000536844
0.000536819
0.000536804
0.000536805
0.000536829
0.00053689
0.000537006
0.000537207
0.000537537
0.000538065
0.000539569
0.00959419
0.009419
0.00919614
0.00891737
0.0085873
0.00821087
0.00779321
0.00733965
0.00685575
0.00634731
0.00582046
0.00528178
0.00473834
0.00419777
0.00366806
0.00315728
0.00267312
0.00222248
0.0018113
0.00144462
0.001127
0.000862789
0.000655957
0.000508657
0.000416438
0.009654
0.00947812
0.00925467
0.00897481
0.00864324
0.00826491
0.00784498
0.00738882
0.00690199
0.00639032
0.00585997
0.00531753
0.00477016
0.00422552
0.00369171
0.00317691
0.00268891
0.00223473
0.00182038
0.00145097
0.00113108
0.000865099
0.000657029
0.000509003
0.000416502
0.00958446
0.00940926
0.00918656
0.00890799
0.0085782
0.00820211
0.00778484
0.00733173
0.00684833
0.00634042
0.00581415
0.00527608
0.00473328
0.00419336
0.00366431
0.00315416
0.0026706
0.00222051
0.00180981
0.00144356
0.00112628
0.00086234
0.000655698
0.000508521
0.000416394
0.00964077
0.00946503
0.00924168
0.00896203
0.00863077
0.00825283
0.00783339
0.00737779
0.0068916
0.00638063
0.00585105
0.00530945
0.00476295
0.00421922
0.00368634
0.00317244
0.00268531
0.00223194
0.00181831
0.00144952
0.00113015
0.000864579
0.000656794
0.000508934
0.000416493
0.00964077
0.00946503
0.00924168
0.00896203
0.00863077
0.00825283
0.00783339
0.00737779
0.0068916
0.00638063
0.00585105
0.00530945
0.00476295
0.00421922
0.00368634
0.00317244
0.00268531
0.00223194
0.00181831
0.00144952
0.00113015
0.000864579
0.000656794
0.000508934
0.000416493
0.00958446
0.00940927
0.00918657
0.008908
0.00857821
0.00820211
0.00778484
0.00733174
0.00684833
0.00634043
0.00581416
0.00527608
0.00473328
0.00419336
0.00366431
0.00315416
0.0026706
0.00222051
0.00180982
0.00144356
0.00112628
0.000862339
0.000655697
0.00050852
0.000416394
0.009654
0.00947812
0.00925467
0.00897481
0.00864324
0.00826491
0.00784498
0.00738882
0.00690199
0.00639032
0.00585997
0.00531753
0.00477016
0.00422552
0.00369171
0.00317691
0.00268891
0.00223473
0.00182038
0.00145097
0.00113108
0.000865099
0.000657029
0.000509003
0.000416502
0.00959419
0.009419
0.00919614
0.00891737
0.0085873
0.00821087
0.00779321
0.00733965
0.00685575
0.00634731
0.00582046
0.00528178
0.00473834
0.00419777
0.00366806
0.00315728
0.00267312
0.00222248
0.0018113
0.00144462
0.001127
0.000862788
0.000655957
0.000508657
0.000416438
0.00964077
0.00946503
0.00924168
0.00896203
0.00863077
0.00825283
0.00783339
0.00737779
0.0068916
0.00638063
0.00585105
0.00530945
0.00476295
0.00421922
0.00368634
0.00317244
0.00268531
0.00223194
0.00181831
0.00144952
0.00113015
0.000864579
0.000656794
0.000508934
0.000416493
0.00958446
0.00940926
0.00918656
0.00890799
0.0085782
0.00820211
0.00778484
0.00733173
0.00684833
0.00634043
0.00581415
0.00527608
0.00473328
0.00419336
0.00366431
0.00315416
0.00267059
0.00222051
0.00180981
0.00144356
0.00112628
0.00086234
0.000655698
0.00050852
0.000416394
0.00958446
0.00940926
0.00918657
0.008908
0.00857821
0.00820211
0.00778484
0.00733174
0.00684833
0.00634043
0.00581416
0.00527608
0.00473328
0.00419336
0.00366431
0.00315416
0.0026706
0.00222051
0.00180981
0.00144356
0.00112628
0.000862339
0.000655697
0.00050852
0.000416394
0.00964077
0.00946503
0.00924168
0.00896203
0.00863077
0.00825283
0.00783339
0.00737779
0.0068916
0.00638063
0.00585105
0.00530945
0.00476295
0.00421922
0.00368634
0.00317244
0.00268531
0.00223194
0.00181831
0.00144952
0.00113015
0.000864579
0.000656793
0.000508933
0.000416492
)
;

boundaryField
{
    outletCentralUnloaded
    {
        type            zeroGradient;
    }
    inletCentralUnloaded
    {
        type            zeroGradient;
    }
    outletFuelElement
    {
        type            zeroGradient;
    }
    inletFuelElement
    {
        type            zeroGradient;
    }
    defaultFaces
    {
        type            zeroGradient;
    }
    baffle_master
    {
        type            calculated;
        value           nonuniform List<scalar> 
150
(
0.000537427
0.000537427
0.000537427
0.000537383
0.000537383
0.000537383
0.000537339
0.000537339
0.000537339
0.000537294
0.000537294
0.000537294
0.00053725
0.00053725
0.00053725
0.000537206
0.000537206
0.000537206
0.000537162
0.000537162
0.000537162
0.000537119
0.000537119
0.000537119
0.000537076
0.000537076
0.000537076
0.000537033
0.000537033
0.000537033
0.000536991
0.000536991
0.000536991
0.00053695
0.00053695
0.00053695
0.000536911
0.000536911
0.000536911
0.000536875
0.000536875
0.000536875
0.000536844
0.000536844
0.000536844
0.000536819
0.000536819
0.000536819
0.000536804
0.000536804
0.000536804
0.000536805
0.000536805
0.000536805
0.000536829
0.000536829
0.000536829
0.00053689
0.00053689
0.00053689
0.000537006
0.000537006
0.000537006
0.000537207
0.000537207
0.000537207
0.000537537
0.000537537
0.000537537
0.000538065
0.000538065
0.000538065
0.000539569
0.000539569
0.000539569
0.000537427
0.000537427
0.000537427
0.000537383
0.000537383
0.000537383
0.000537339
0.000537339
0.000537339
0.000537294
0.000537294
0.000537294
0.00053725
0.00053725
0.00053725
0.000537206
0.000537206
0.000537206
0.000537162
0.000537162
0.000537162
0.000537119
0.000537119
0.000537119
0.000537076
0.000537076
0.000537076
0.000537033
0.000537033
0.000537033
0.000536991
0.000536991
0.000536991
0.00053695
0.00053695
0.00053695
0.000536911
0.000536911
0.000536911
0.000536875
0.000536875
0.000536875
0.000536844
0.000536844
0.000536844
0.000536819
0.000536819
0.000536819
0.000536804
0.000536804
0.000536804
0.000536805
0.000536805
0.000536805
0.000536829
0.000536829
0.000536829
0.00053689
0.00053689
0.00053689
0.000537006
0.000537006
0.000537006
0.000537207
0.000537207
0.000537207
0.000537537
0.000537537
0.000537537
0.000538065
0.000538065
0.000538065
0.000539569
0.000539569
0.000539569
)
;
    }
    baffle_slave
    {
        type            calculated;
        value           nonuniform List<scalar> 
150
(
0.009654
0.00964077
0.00964077
0.00947812
0.00946503
0.00946503
0.00925467
0.00924168
0.00924168
0.00897481
0.00896203
0.00896203
0.00864324
0.00863077
0.00863077
0.00826491
0.00825283
0.00825283
0.00784498
0.00783339
0.00783339
0.00738882
0.00737779
0.00737779
0.00690199
0.0068916
0.0068916
0.00639032
0.00638063
0.00638063
0.00585997
0.00585105
0.00585105
0.00531753
0.00530945
0.00530945
0.00477016
0.00476295
0.00476295
0.00422552
0.00421922
0.00421922
0.00369171
0.00368634
0.00368634
0.00317691
0.00317244
0.00317244
0.00268891
0.00268531
0.00268531
0.00223473
0.00223194
0.00223194
0.00182038
0.00181831
0.00181831
0.00145097
0.00144952
0.00144952
0.00113108
0.00113015
0.00113015
0.000865099
0.000864579
0.000864579
0.000657029
0.000656794
0.000656793
0.000509003
0.000508934
0.000508933
0.000416502
0.000416493
0.000416492
0.00964077
0.009654
0.00964077
0.00946503
0.00947812
0.00946503
0.00924168
0.00925467
0.00924168
0.00896203
0.00897481
0.00896203
0.00863077
0.00864324
0.00863077
0.00825283
0.00826491
0.00825283
0.00783339
0.00784498
0.00783339
0.00737779
0.00738882
0.00737779
0.0068916
0.00690199
0.0068916
0.00638063
0.00639032
0.00638063
0.00585105
0.00585997
0.00585105
0.00530945
0.00531753
0.00530945
0.00476295
0.00477016
0.00476295
0.00421922
0.00422552
0.00421922
0.00368634
0.00369171
0.00368634
0.00317244
0.00317691
0.00317244
0.00268531
0.00268891
0.00268531
0.00223194
0.00223473
0.00223194
0.00181831
0.00182038
0.00181831
0.00144952
0.00145097
0.00144952
0.00113015
0.00113108
0.00113015
0.000864579
0.000865099
0.000864579
0.000656794
0.000657029
0.000656794
0.000508934
0.000509003
0.000508934
0.000416493
0.000416502
0.000416493
)
;
    }
}


// ************************************************************************* //
