/*--------------------------------*- C++ -*----------------------------------*\
| =========                 |                                                 |
| \\      /  F ield         | OpenFOAM: The Open Source CFD Toolbox           |
|  \\    /   O peration     | Version:  2212                                  |
|   \\  /    A nd           | Website:  www.openfoam.com                      |
|    \\/     M anipulation  |                                                 |
\*---------------------------------------------------------------------------*/
FoamFile
{
    version     2.0;
    format      ascii;
    arch        "LSB;label=32;scalar=64";
    class       volScalarField;
    location    "24/fluidRegion";
    object      p_rgh;
}
// * * * * * * * * * * * * * * * * * * * * * * * * * * * * * * * * * * * * * //

dimensions      [1 -1 -2 0 0 0 0];

internalField   nonuniform List<scalar> 
350
(
3.44743e+06
3.44772e+06
3.44802e+06
3.44831e+06
3.44861e+06
3.44891e+06
3.4492e+06
3.4495e+06
3.44979e+06
3.45009e+06
3.45038e+06
3.45068e+06
3.45097e+06
3.45127e+06
3.45156e+06
3.45186e+06
3.45215e+06
3.45245e+06
3.45274e+06
3.45304e+06
3.45333e+06
3.45363e+06
3.45393e+06
3.45422e+06
3.4545e+06
3.44743e+06
3.44772e+06
3.44802e+06
3.44831e+06
3.44861e+06
3.44891e+06
3.4492e+06
3.4495e+06
3.44979e+06
3.45009e+06
3.45038e+06
3.45068e+06
3.45097e+06
3.45127e+06
3.45156e+06
3.45186e+06
3.45215e+06
3.45245e+06
3.45274e+06
3.45304e+06
3.45333e+06
3.45363e+06
3.45393e+06
3.45422e+06
3.4545e+06
3.47124e+06
3.51817e+06
3.56472e+06
3.61059e+06
3.65548e+06
3.69912e+06
3.74124e+06
3.78162e+06
3.82004e+06
3.8563e+06
3.89025e+06
3.92175e+06
3.95068e+06
3.97696e+06
4.00055e+06
4.02143e+06
4.03965e+06
4.05528e+06
4.06846e+06
4.07933e+06
4.08808e+06
4.09492e+06
4.10006e+06
4.1038e+06
4.10643e+06
3.47124e+06
3.51817e+06
3.56472e+06
3.61059e+06
3.65548e+06
3.69912e+06
3.74124e+06
3.78162e+06
3.82004e+06
3.8563e+06
3.89025e+06
3.92175e+06
3.95068e+06
3.97696e+06
4.00055e+06
4.02143e+06
4.03965e+06
4.05528e+06
4.06846e+06
4.07933e+06
4.08808e+06
4.09492e+06
4.10006e+06
4.1038e+06
4.10643e+06
3.47124e+06
3.51817e+06
3.56472e+06
3.61059e+06
3.65548e+06
3.69912e+06
3.74124e+06
3.78162e+06
3.82004e+06
3.8563e+06
3.89025e+06
3.92175e+06
3.95068e+06
3.97696e+06
4.00055e+06
4.02143e+06
4.03965e+06
4.05528e+06
4.06846e+06
4.07933e+06
4.08808e+06
4.09492e+06
4.10006e+06
4.1038e+06
4.10643e+06
3.47124e+06
3.51817e+06
3.56472e+06
3.61059e+06
3.65548e+06
3.69912e+06
3.74124e+06
3.78162e+06
3.82004e+06
3.8563e+06
3.89025e+06
3.92175e+06
3.95068e+06
3.97696e+06
4.00055e+06
4.02143e+06
4.03965e+06
4.05528e+06
4.06846e+06
4.07933e+06
4.08808e+06
4.09492e+06
4.10006e+06
4.1038e+06
4.10643e+06
3.47124e+06
3.51817e+06
3.56472e+06
3.61059e+06
3.65548e+06
3.69912e+06
3.74124e+06
3.78162e+06
3.82004e+06
3.8563e+06
3.89025e+06
3.92175e+06
3.95068e+06
3.97696e+06
4.00055e+06
4.02143e+06
4.03965e+06
4.05528e+06
4.06846e+06
4.07933e+06
4.08808e+06
4.09492e+06
4.10006e+06
4.1038e+06
4.10643e+06
3.47124e+06
3.51817e+06
3.56472e+06
3.61059e+06
3.65548e+06
3.69912e+06
3.74124e+06
3.78162e+06
3.82004e+06
3.8563e+06
3.89025e+06
3.92175e+06
3.95068e+06
3.97696e+06
4.00055e+06
4.02143e+06
4.03965e+06
4.05528e+06
4.06846e+06
4.07933e+06
4.08808e+06
4.09492e+06
4.10006e+06
4.1038e+06
4.10643e+06
3.47124e+06
3.51817e+06
3.56472e+06
3.61059e+06
3.65548e+06
3.69912e+06
3.74124e+06
3.78162e+06
3.82004e+06
3.8563e+06
3.89025e+06
3.92175e+06
3.95068e+06
3.97696e+06
4.00055e+06
4.02143e+06
4.03965e+06
4.05528e+06
4.06846e+06
4.07933e+06
4.08808e+06
4.09492e+06
4.10006e+06
4.1038e+06
4.10643e+06
3.47124e+06
3.51817e+06
3.56472e+06
3.61059e+06
3.65548e+06
3.69912e+06
3.74124e+06
3.78162e+06
3.82004e+06
3.8563e+06
3.89025e+06
3.92175e+06
3.95068e+06
3.97696e+06
4.00055e+06
4.02143e+06
4.03965e+06
4.05528e+06
4.06846e+06
4.07933e+06
4.08808e+06
4.09492e+06
4.10006e+06
4.1038e+06
4.10643e+06
3.47124e+06
3.51817e+06
3.56472e+06
3.61059e+06
3.65548e+06
3.69912e+06
3.74124e+06
3.78162e+06
3.82004e+06
3.8563e+06
3.89025e+06
3.92175e+06
3.95068e+06
3.97696e+06
4.00055e+06
4.02143e+06
4.03965e+06
4.05528e+06
4.06846e+06
4.07933e+06
4.08808e+06
4.09492e+06
4.10006e+06
4.1038e+06
4.10643e+06
3.47124e+06
3.51817e+06
3.56472e+06
3.61059e+06
3.65548e+06
3.69912e+06
3.74124e+06
3.78162e+06
3.82004e+06
3.8563e+06
3.89025e+06
3.92175e+06
3.95068e+06
3.97696e+06
4.00055e+06
4.02143e+06
4.03965e+06
4.05528e+06
4.06846e+06
4.07933e+06
4.08808e+06
4.09492e+06
4.10006e+06
4.1038e+06
4.10643e+06
3.47124e+06
3.51817e+06
3.56472e+06
3.61059e+06
3.65548e+06
3.69912e+06
3.74124e+06
3.78162e+06
3.82004e+06
3.8563e+06
3.89025e+06
3.92175e+06
3.95068e+06
3.97696e+06
4.00055e+06
4.02143e+06
4.03965e+06
4.05528e+06
4.06846e+06
4.07933e+06
4.08808e+06
4.09492e+06
4.10006e+06
4.1038e+06
4.10643e+06
3.47124e+06
3.51817e+06
3.56472e+06
3.61059e+06
3.65548e+06
3.69912e+06
3.74124e+06
3.78162e+06
3.82004e+06
3.8563e+06
3.89025e+06
3.92175e+06
3.95068e+06
3.97696e+06
4.00055e+06
4.02143e+06
4.03965e+06
4.05528e+06
4.06846e+06
4.07933e+06
4.08808e+06
4.09492e+06
4.10006e+06
4.1038e+06
4.10643e+06
)
;

boundaryField
{
    outletCentralUnloaded
    {
        type            fixedValue;
        value           uniform 3.44728e+06;
    }
    inletCentralUnloaded
    {
        type            zeroGradient;
    }
    outletFuelElement
    {
        type            fixedValue;
        value           uniform 3.44728e+06;
    }
    inletFuelElement
    {
        type            zeroGradient;
    }
    defaultFaces
    {
        type            zeroGradient;
    }
    baffle_master
    {
        type            zeroGradient;
    }
    baffle_slave
    {
        type            zeroGradient;
    }
}


// ************************************************************************* //
