/*--------------------------------*- C++ -*----------------------------------*\
| =========                 |                                                 |
| \\      /  F ield         | OpenFOAM: The Open Source CFD Toolbox           |
|  \\    /   O peration     | Version:  2212                                  |
|   \\  /    A nd           | Website:  www.openfoam.com                      |
|    \\/     M anipulation  |                                                 |
\*---------------------------------------------------------------------------*/
FoamFile
{
    version     2.0;
    format      ascii;
    arch        "LSB;label=32;scalar=64";
    class       volScalarField;
    location    "24/fluidRegion";
    object      T.cladAvForNeutronics;
}
// * * * * * * * * * * * * * * * * * * * * * * * * * * * * * * * * * * * * * //

dimensions      [0 0 0 1 0 0 0];

internalField   nonuniform List<scalar> 
350
(
0
0
0
0
0
0
0
0
0
0
0
0
0
0
0
0
0
0
0
0
0
0
0
0
0
0
0
0
0
0
0
0
0
0
0
0
0
0
0
0
0
0
0
0
0
0
0
0
0
0
1708.56
1749.84
1778.55
1794.69
1798.38
1789.87
1769.58
1738.04
1695.93
1644.07
1583.39
1514.96
1439.96
1359.69
1275.5
1188.79
1100.8
1012.45
923.981
834.485
741.129
638.186
516.529
366.824
191.425
1733.89
1775.85
1805.04
1821.43
1825.15
1816.47
1795.78
1763.66
1720.77
1667.95
1606.16
1536.46
1460.06
1378.27
1292.48
1204.11
1114.46
1024.49
934.496
843.596
748.947
644.737
521.649
370.119
192.541
1704.43
1745.62
1774.27
1790.39
1794.09
1785.62
1765.41
1733.97
1692
1640.31
1579.82
1511.6
1436.83
1356.8
1272.88
1186.43
1098.7
1010.6
922.373
833.096
739.946
637.204
515.771
366.339
191.255
1728.19
1769.99
1799.05
1815.37
1819.07
1810.42
1789.81
1757.81
1715.09
1662.48
1600.93
1531.52
1455.44
1373.99
1288.57
1200.58
1111.3
1021.71
932.066
841.489
747.139
643.221
520.463
369.355
192.283
1728.19
1769.99
1799.05
1815.37
1819.07
1810.42
1789.81
1757.81
1715.09
1662.48
1600.93
1531.52
1455.44
1373.99
1288.57
1200.58
1111.3
1021.71
932.066
841.489
747.139
643.221
520.463
369.355
192.283
1704.43
1745.62
1774.27
1790.39
1794.09
1785.63
1765.41
1733.98
1692.01
1640.31
1579.82
1511.6
1436.83
1356.8
1272.88
1186.43
1098.7
1010.6
922.374
833.097
739.946
637.205
515.771
366.34
191.255
1733.89
1775.85
1805.04
1821.43
1825.15
1816.47
1795.78
1763.66
1720.77
1667.95
1606.16
1536.46
1460.06
1378.27
1292.48
1204.11
1114.46
1024.49
934.496
843.596
748.947
644.737
521.65
370.119
192.541
1708.56
1749.84
1778.55
1794.69
1798.38
1789.87
1769.58
1738.04
1695.93
1644.07
1583.39
1514.96
1439.96
1359.69
1275.5
1188.79
1100.8
1012.45
923.981
834.485
741.129
638.186
516.529
366.824
191.425
1728.19
1769.99
1799.05
1815.37
1819.07
1810.42
1789.81
1757.81
1715.09
1662.48
1600.93
1531.52
1455.44
1373.99
1288.57
1200.58
1111.3
1021.71
932.066
841.489
747.139
643.221
520.463
369.355
192.283
1704.43
1745.62
1774.27
1790.39
1794.09
1785.62
1765.41
1733.97
1692
1640.31
1579.82
1511.6
1436.83
1356.8
1272.88
1186.43
1098.7
1010.6
922.373
833.096
739.946
637.204
515.771
366.339
191.255
1704.43
1745.62
1774.27
1790.39
1794.09
1785.63
1765.41
1733.98
1692.01
1640.31
1579.82
1511.6
1436.83
1356.8
1272.88
1186.43
1098.7
1010.6
922.374
833.097
739.946
637.205
515.771
366.34
191.255
1728.19
1769.99
1799.05
1815.37
1819.07
1810.42
1789.81
1757.81
1715.09
1662.48
1600.93
1531.52
1455.44
1373.99
1288.57
1200.58
1111.3
1021.71
932.066
841.489
747.139
643.221
520.463
369.355
192.283
)
;

boundaryField
{
    outletCentralUnloaded
    {
        type            zeroGradient;
    }
    inletCentralUnloaded
    {
        type            zeroGradient;
    }
    outletFuelElement
    {
        type            zeroGradient;
    }
    inletFuelElement
    {
        type            zeroGradient;
    }
    defaultFaces
    {
        type            zeroGradient;
    }
    baffle_master
    {
        type            zeroGradient;
    }
    baffle_slave
    {
        type            zeroGradient;
    }
}


// ************************************************************************* //
