/*--------------------------------*- C++ -*----------------------------------*\
| =========                 |                                                 |
| \\      /  F ield         | OpenFOAM: The Open Source CFD Toolbox           |
|  \\    /   O peration     | Version:  2212                                  |
|   \\  /    A nd           | Website:  www.openfoam.com                      |
|    \\/     M anipulation  |                                                 |
\*---------------------------------------------------------------------------*/
FoamFile
{
    version     2.0;
    format      ascii;
    arch        "LSB;label=32;scalar=64";
    class       volScalarField;
    location    "24/fluidRegion";
    object      Tci.nuclearFuelPin;
}
// * * * * * * * * * * * * * * * * * * * * * * * * * * * * * * * * * * * * * //

dimensions      [0 0 0 1 0 0 0];

internalField   nonuniform List<scalar> 
350
(
0
0
0
0
0
0
0
0
0
0
0
0
0
0
0
0
0
0
0
0
0
0
0
0
0
0
0
0
0
0
0
0
0
0
0
0
0
0
0
0
0
0
0
0
0
0
0
0
0
0
1710.8
1763.5
1803.38
1830.26
1844.1
1845
1833.21
1809.14
1773.35
1726.55
1669.61
1603.53
1529.45
1448.66
1362.52
1272.45
1179.76
1085.43
989.808
892.089
789.588
676.742
544.618
384.099
197.716
1736.12
1789.63
1830.11
1857.37
1871.36
1872.19
1860.11
1835.54
1799.05
1751.35
1693.34
1626.01
1550.54
1468.23
1380.47
1288.71
1194.31
1098.29
1001.06
901.849
797.951
683.725
550.051
387.583
198.895
1706.67
1759.26
1799.06
1825.9
1839.73
1840.66
1828.93
1804.95
1769.29
1722.65
1665.88
1600.01
1526.16
1445.61
1359.74
1269.94
1177.52
1083.45
988.081
890.598
788.318
675.691
543.811
383.585
197.536
1730.42
1783.74
1824.06
1851.23
1865.17
1866
1853.98
1829.51
1793.17
1745.67
1687.89
1620.85
1545.69
1463.72
1376.34
1284.96
1190.95
1095.32
998.463
899.593
796.018
682.109
548.793
386.775
198.623
1730.42
1783.74
1824.06
1851.23
1865.17
1866
1853.98
1829.51
1793.17
1745.67
1687.89
1620.85
1545.69
1463.72
1376.34
1284.96
1190.95
1095.32
998.463
899.593
796.017
682.109
548.793
386.775
198.623
1706.68
1759.26
1799.06
1825.9
1839.73
1840.66
1828.93
1804.95
1769.29
1722.65
1665.89
1600.01
1526.16
1445.61
1359.74
1269.94
1177.52
1083.45
988.082
890.598
788.318
675.692
543.811
383.585
197.536
1736.12
1789.63
1830.11
1857.37
1871.36
1872.19
1860.11
1835.54
1799.05
1751.35
1693.33
1626.01
1550.54
1468.23
1380.47
1288.71
1194.31
1098.29
1001.06
901.849
797.951
683.725
550.051
387.583
198.895
1710.8
1763.5
1803.38
1830.26
1844.1
1845
1833.21
1809.14
1773.35
1726.55
1669.61
1603.53
1529.45
1448.66
1362.52
1272.45
1179.76
1085.43
989.808
892.089
789.588
676.742
544.619
384.099
197.716
1730.42
1783.74
1824.06
1851.23
1865.17
1866
1853.98
1829.51
1793.17
1745.67
1687.89
1620.85
1545.69
1463.72
1376.34
1284.96
1190.95
1095.32
998.463
899.593
796.017
682.109
548.793
386.775
198.623
1706.67
1759.26
1799.06
1825.9
1839.73
1840.66
1828.93
1804.95
1769.29
1722.65
1665.88
1600.01
1526.16
1445.61
1359.74
1269.94
1177.52
1083.45
988.081
890.598
788.318
675.691
543.811
383.585
197.536
1706.68
1759.26
1799.06
1825.9
1839.73
1840.66
1828.93
1804.95
1769.29
1722.65
1665.89
1600.01
1526.16
1445.61
1359.74
1269.94
1177.52
1083.45
988.082
890.598
788.318
675.692
543.811
383.585
197.536
1730.42
1783.74
1824.06
1851.23
1865.17
1866
1853.98
1829.51
1793.17
1745.67
1687.89
1620.85
1545.69
1463.72
1376.34
1284.96
1190.95
1095.32
998.463
899.593
796.017
682.109
548.793
386.775
198.623
)
;

boundaryField
{
    outletCentralUnloaded
    {
        type            zeroGradient;
    }
    inletCentralUnloaded
    {
        type            zeroGradient;
    }
    outletFuelElement
    {
        type            zeroGradient;
    }
    inletFuelElement
    {
        type            zeroGradient;
    }
    defaultFaces
    {
        type            zeroGradient;
    }
    baffle_master
    {
        type            zeroGradient;
    }
    baffle_slave
    {
        type            zeroGradient;
    }
}


// ************************************************************************* //
