/*--------------------------------*- C++ -*----------------------------------*\
| =========                 |                                                 |
| \\      /  F ield         | OpenFOAM: The Open Source CFD Toolbox           |
|  \\    /   O peration     | Version:  2212                                  |
|   \\  /    A nd           | Website:  www.openfoam.com                      |
|    \\/     M anipulation  |                                                 |
\*---------------------------------------------------------------------------*/
FoamFile
{
    version     2.0;
    format      ascii;
    arch        "LSB;label=32;scalar=64";
    class       volScalarField;
    location    "24/fluidRegion";
    object      Tfo.nuclearFuelPin;
}
// * * * * * * * * * * * * * * * * * * * * * * * * * * * * * * * * * * * * * //

dimensions      [0 0 0 1 0 0 0];

internalField   nonuniform List<scalar> 
350
(
0
0
0
0
0
0
0
0
0
0
0
0
0
0
0
0
0
0
0
0
0
0
0
0
0
0
0
0
0
0
0
0
0
0
0
0
0
0
0
0
0
0
0
0
0
0
0
0
0
0
1778.37
2150.04
2502.01
2829.18
3126.75
3390.33
3616.05
3800.56
3941.15
4035.74
4082.99
4082.26
4033.69
3938.14
3797.22
3613.19
3388.83
3127.19
2831.27
2503.57
2145.27
1755.44
1330.53
867.35
373.378
1803.49
2179.63
2535.78
2866.78
3167.76
3434.3
3662.48
3848.9
3990.84
4086.19
4133.6
4132.42
4082.79
3985.6
3842.49
3655.75
3428.22
3163.04
2863.27
2531.48
2168.88
1774.51
1344.7
876.106
376.323
1774.28
2145.25
2496.58
2823.15
3120.19
3383.32
3608.66
3792.88
3933.26
4027.75
4074.98
4074.33
4025.93
3930.64
3790.08
3606.48
3382.62
3121.54
2826.23
2499.18
2141.56
1752.46
1328.33
865.992
372.916
1797.84
2172.93
2528.11
2858.21
3158.4
3424.25
3651.84
3837.82
3979.43
4074.61
4121.97
4120.89
4071.49
3974.67
3832.06
3645.95
3419.15
3154.78
2855.9
2525.05
2163.44
1770.11
1341.43
874.086
375.644
1797.84
2172.93
2528.11
2858.21
3158.4
3424.25
3651.84
3837.82
3979.43
4074.61
4121.97
4120.89
4071.49
3974.67
3832.06
3645.95
3419.15
3154.78
2855.9
2525.05
2163.44
1770.11
1341.43
874.086
375.644
1774.28
2145.25
2496.58
2823.15
3120.19
3383.32
3608.66
3792.88
3933.26
4027.75
4074.98
4074.33
4025.93
3930.64
3790.08
3606.48
3382.62
3121.54
2826.23
2499.18
2141.56
1752.46
1328.33
865.992
372.916
1803.49
2179.63
2535.78
2866.78
3167.76
3434.3
3662.48
3848.9
3990.84
4086.19
4133.6
4132.42
4082.79
3985.6
3842.49
3655.75
3428.22
3163.04
2863.27
2531.48
2168.88
1774.51
1344.7
876.106
376.323
1778.37
2150.04
2502.02
2829.18
3126.75
3390.33
3616.05
3800.56
3941.15
4035.74
4082.99
4082.26
4033.69
3938.14
3797.22
3613.19
3388.83
3127.19
2831.27
2503.57
2145.27
1755.44
1330.54
867.35
373.378
1797.84
2172.93
2528.11
2858.21
3158.4
3424.25
3651.84
3837.82
3979.43
4074.61
4121.97
4120.89
4071.49
3974.67
3832.06
3645.95
3419.15
3154.78
2855.9
2525.05
2163.44
1770.11
1341.43
874.086
375.644
1774.28
2145.25
2496.58
2823.15
3120.19
3383.32
3608.66
3792.88
3933.26
4027.75
4074.98
4074.33
4025.93
3930.64
3790.08
3606.48
3382.62
3121.54
2826.23
2499.18
2141.56
1752.46
1328.33
865.992
372.916
1774.28
2145.25
2496.58
2823.15
3120.19
3383.32
3608.66
3792.88
3933.26
4027.75
4074.98
4074.33
4025.93
3930.64
3790.08
3606.48
3382.62
3121.54
2826.23
2499.18
2141.56
1752.46
1328.33
865.993
372.916
1797.84
2172.93
2528.11
2858.21
3158.4
3424.25
3651.84
3837.82
3979.43
4074.61
4121.97
4120.89
4071.49
3974.67
3832.06
3645.95
3419.15
3154.78
2855.9
2525.05
2163.44
1770.11
1341.43
874.086
375.644
)
;

boundaryField
{
    outletCentralUnloaded
    {
        type            zeroGradient;
    }
    inletCentralUnloaded
    {
        type            zeroGradient;
    }
    outletFuelElement
    {
        type            zeroGradient;
    }
    inletFuelElement
    {
        type            zeroGradient;
    }
    defaultFaces
    {
        type            zeroGradient;
    }
    baffle_master
    {
        type            zeroGradient;
    }
    baffle_slave
    {
        type            zeroGradient;
    }
}


// ************************************************************************* //
