/*--------------------------------*- C++ -*----------------------------------*\
| =========                 |                                                 |
| \\      /  F ield         | OpenFOAM: The Open Source CFD Toolbox           |
|  \\    /   O peration     | Version:  2212                                  |
|   \\  /    A nd           | Website:  www.openfoam.com                      |
|    \\/     M anipulation  |                                                 |
\*---------------------------------------------------------------------------*/
FoamFile
{
    version     2.0;
    format      ascii;
    arch        "LSB;label=32;scalar=64";
    class       scalarFieldField;
    location    "24/fluidRegion";
    object      Trad.nuclearFuelPin;
}
// * * * * * * * * * * * * * * * * * * * * * * * * * * * * * * * * * * * * * //


350
(
0()
0()
0()
0()
0()
0()
0()
0()
0()
0()
0()
0()
0()
0()
0()
0()
0()
0()
0()
0()
0()
0()
0()
0()
0()
0()
0()
0()
0()
0()
0()
0()
0()
0()
0()
0()
0()
0()
0()
0()
0()
0()
0()
0()
0()
0()
0()
0()
0()
0()

20
(
1899.55
1899.18
1898.07
1896.19
1893.49
1889.91
1885.36
1879.74
1872.93
1864.79
1855.17
1843.9
1830.79
1815.64
1798.24
1778.37
1710.8
1709.31
1707.87
1706.48
)


20
(
3007.24
3003.67
2992.98
2975.11
2950
2917.54
2877.62
2830.08
2774.74
2711.42
2639.89
2559.91
2471.22
2373.54
2266.58
2150.04
1763.5
1754.4
1745.61
1737.11
)


20
(
4079.73
4073.05
4052.96
4019.44
3972.37
3911.63
3837.06
3748.47
3645.63
3528.27
3396.13
3248.88
3086.21
2907.75
2713.15
2502.01
1803.38
1786.85
1770.86
1755.39
)


20
(
5100.51
5090.81
5061.69
5013.07
4944.86
4856.89
4748.96
4620.83
4472.24
4302.86
4112.36
3900.37
3666.48
3410.28
3131.33
2829.18
1830.26
1806.58
1783.67
1761.5
)


20
(
6053.8
6041.25
6003.57
5940.69
5852.48
5738.74
5599.26
5433.75
5241.89
5023.33
4777.65
4504.44
4203.24
3873.56
3514.9
3126.75
1844.1
1813.66
1784.21
1755.71
)


20
(
6924.86
6909.67
6864.06
6787.96
6681.2
6543.59
6374.86
6174.7
5942.75
5678.6
5381.81
5051.89
4688.33
4290.59
3858.11
3390.33
1845
1808.29
1772.79
1738.42
)


20
(
7700.21
7682.62
7629.84
7541.76
7418.22
7258.99
7063.78
6832.26
6564.02
6258.62
5915.57
5534.34
5114.37
4655.07
4155.84
3616.05
1833.21
1790.84
1749.86
1710.19
)


20
(
8367.84
8348.15
8289.05
8190.43
8052.12
7873.88
7655.39
7396.28
7096.13
6754.46
6370.74
5944.41
5474.86
4961.47
4403.59
3800.56
1809.14
1761.8
1716.01
1671.67
)


20
(
8917.41
8895.94
8831.49
8723.94
8573.12
8378.76
8140.53
7858.06
7530.88
7158.49
6740.33
6275.82
5764.31
5205.15
4597.66
3941.15
1773.35
1721.8
1671.94
1623.67
)


20
(
9340.44
9317.53
9248.77
9134.04
8973.15
8765.83
8511.74
8210.48
7861.57
7464.5
7018.68
6523.51
5978.32
5382.43
4735.15
4035.74
1726.55
1671.63
1618.51
1567.08
)


20
(
9630.39
9606.42
9534.47
9414.42
9246.07
9029.15
8763.31
8448.13
8083.15
7667.82
7201.55
6683.72
6113.65
5490.65
4814.01
4082.99
1669.61
1612.21
1556.68
1502.91
)


20
(
9782.83
9758.18
9684.2
9560.77
9387.69
9164.68
8891.39
8567.41
8192.24
7765.36
7286.17
6754.04
6168.29
5528.23
4833.13
4082.26
1603.53
1544.56
1487.52
1432.29
)


20
(
9795.48
9770.56
9695.75
9570.93
9395.92
9170.42
8894.1
8566.54
8187.26
7755.72
7271.34
6733.49
6141.51
5494.68
4792.32
4033.69
1529.45
1469.87
1412.24
1356.43
)


20
(
9668.26
9643.46
9569.03
9444.85
9270.73
9046.4
8771.51
8445.66
8068.39
7639.16
7157.41
6622.52
6033.83
5390.67
4692.34
3938.14
1448.66
1389.42
1332.13
1276.64
)


20
(
9403.25
9378.98
9306.13
9184.6
9014.19
8794.64
8525.63
8206.77
7837.6
7417.61
6946.26
6422.95
5847.05
5217.91
4534.86
3797.22
1362.52
1304.59
1248.55
1194.28
)


20
(
9004.63
8981.28
8911.2
8794.28
8630.34
8419.14
8160.36
7853.63
7498.53
7094.57
6641.24
6137.96
5584.14
4979.16
4322.39
3613.19
1272.45
1216.75
1162.87
1110.7
)


20
(
8478.52
8456.47
8390.29
8279.87
8125.07
7925.63
7681.28
7391.66
7056.38
6674.99
6247
5771.89
5249.1
4678.05
4058.16
3388.83
1179.76
1127.19
1076.34
1027.09
)


20
(
7832.72
7812.33
7751.12
7649.02
7505.85
7321.42
7095.46
6827.66
6517.64
6164.99
5769.29
5330.03
4846.73
4318.85
3745.85
3127.19
1085.43
1036.84
989.838
944.322
)


20
(
7076.38
7057.98
7002.75
6910.6
6781.41
6614.99
6411.09
6169.44
5889.71
5571.54
5214.53
4818.26
4382.27
3906.1
3389.26
2831.27
989.808
945.983
903.589
862.538
)


20
(
6219.66
6203.55
6155.18
6074.49
5961.36
5815.63
5637.1
5425.52
5180.61
4902.06
4589.52
4242.63
3861
3444.22
2991.89
2503.57
892.089
853.738
816.639
780.715
)


20
(
5272.8
5259.23
5218.51
5150.57
5055.31
4932.62
4782.31
4604.18
4398.02
4163.55
3900.49
3608.55
3287.39
2936.68
2556.09
2145.27
789.588
757.326
726.117
695.897
)


20
(
4245.79
4234.98
4202.52
4148.38
4072.47
3974.71
3854.95
3713.05
3548.82
3362.07
3152.58
2920.12
2664.43
2385.27
2082.36
1755.44
676.742
651.073
626.242
602.198
)


20
(
3147.8
3139.9
3116.17
3076.59
3021.12
2949.67
2862.17
2758.51
2638.57
2502.22
2349.3
2179.67
1993.15
1789.58
1568.77
1330.53
544.618
525.917
507.827
490.31
)


20
(
1989.57
1984.67
1969.94
1945.39
1910.99
1866.7
1812.48
1748.28
1674.04
1589.71
1495.21
1390.46
1275.38
1149.89
1013.91
867.35
384.099
372.598
361.472
350.698
)


20
(
789.945
788.082
782.493
773.182
760.151
743.404
722.947
698.788
670.934
639.395
604.18
565.301
522.768
476.595
426.794
373.378
197.716
193.528
189.477
185.552
)


20
(
1923.44
1923.08
1922
1920.16
1917.53
1914.02
1909.55
1904.03
1897.33
1889.31
1879.8
1868.64
1855.65
1840.6
1823.29
1803.49
1736.12
1734.63
1733.19
1731.82
)


20
(
3044.02
3040.43
3029.65
3011.64
2986.33
2953.62
2913.38
2865.46
2809.68
2745.84
2673.72
2593.07
2503.62
2405.1
2297.21
2179.63
1789.63
1780.45
1771.58
1763.01
)


20
(
4128.95
4122.2
4101.93
4068.08
4020.56
3959.25
3883.97
3794.52
3690.69
3572.2
3438.77
3290.08
3125.8
2945.58
2749.03
2535.78
1830.11
1813.41
1797.27
1781.65
)


20
(
5161.51
5151.72
5122.3
5073.2
5004.29
4915.43
4806.4
4676.97
4526.86
4355.75
4163.3
3949.12
3712.81
3453.95
3172.09
2866.78
1857.37
1833.44
1810.29
1787.89
)


20
(
6125.77
6113.08
6075.02
6011.48
5922.35
5807.42
5666.48
5499.24
5305.37
5084.5
4836.24
4560.14
4255.74
3922.55
3560.06
3167.76
1871.36
1840.59
1810.83
1782.02
)


20
(
7006.79
6991.43
6945.35
6868.43
6760.54
6621.47
6450.94
6248.65
6014.22
5747.25
5447.28
5113.81
4746.34
4344.31
3907.16
3434.3
1872.19
1835.09
1799.2
1764.46
)


20
(
7790.95
7773.17
7719.82
7630.8
7505.93
7344.98
7147.68
6913.66
6642.52
6333.82
5987.05
5601.69
5177.15
4712.85
4208.17
3662.48
1860.11
1817.28
1775.86
1735.75
)


20
(
8466.1
8446.2
8386.46
8286.77
8146.96
7966.78
7745.92
7484
7180.58
6835.18
6447.28
6016.29
5541.6
5022.58
4458.57
3848.9
1835.54
1787.68
1741.39
1696.57
)


20
(
9021.79
9000.09
8934.93
8826.21
8673.74
8477.26
8236.43
7950.87
7620.1
7243.63
6820.89
6351.27
5834.13
5268.81
4654.61
3990.84
1799.05
1746.93
1696.52
1647.71
)


20
(
9449.43
9426.27
9356.76
9240.78
9078.12
8868.53
8611.65
8307.07
7954.33
7552.88
7102.15
6601.51
6050.3
5447.82
4793.36
4086.19
1751.35
1695.83
1642.12
1590.11
)


20
(
9742.42
9718.19
9645.44
9524.07
9353.87
9134.56
8865.79
8547.14
8178.13
7758.21
7286.78
6763.21
6186.83
5556.92
4872.75
4133.6
1693.34
1635.29
1579.15
1524.78
)


20
(
9896.28
9871.36
9796.57
9671.77
9496.78
9271.3
8994.99
8667.42
8288.11
7856.5
7371.99
6833.95
6241.69
5594.5
4891.66
4132.42
1626.01
1566.39
1508.71
1452.87
)


20
(
9908.7
9883.5
9807.87
9681.67
9504.72
9276.72
8997.34
8666.14
8282.65
7846.32
7356.56
6812.73
6214.14
5560.11
4849.9
4082.79
1550.54
1490.3
1432.02
1375.6
)


20
(
9779.61
9754.54
9679.29
9553.73
9377.68
9150.85
8872.91
8543.44
8161.97
7727.97
7240.85
6699.99
6104.73
5454.38
4748.25
3985.6
1468.23
1408.34
1350.4
1294.29
)


20
(
9511.13
9486.59
9412.94
9290.05
9117.75
8895.76
8623.75
8301.34
7928.05
7503.38
7026.77
6497.61
5915.27
5279.09
4588.39
3842.49
1380.47
1321.89
1265.22
1210.35
)


20
(
9107.5
9083.89
9013.03
8894.81
8729.04
8515.49
8253.82
7943.67
7584.61
7176.14
6717.73
6208.82
5648.8
5037.05
4372.91
3655.75
1288.71
1232.39
1177.9
1125.14
)


20
(
8574.93
8552.63
8485.72
8374.07
8217.54
8015.88
7768.79
7475.94
7136.91
6751.26
6318.48
5838.04
5309.39
4731.93
4105.08
3428.22
1194.31
1141.15
1089.72
1039.92
)


20
(
7921.35
7900.73
7838.84
7735.59
7590.83
7404.34
7175.85
6905.05
6591.56
6234.97
5834.83
5390.65
4901.92
4368.1
3788.66
3163.04
1098.29
1049.16
1001.62
955.595
)


20
(
7156.03
7137.42
7081.57
6988.4
6857.76
6689.47
6483.29
6238.94
5956.08
5634.35
5273.33
4872.61
4431.73
3950.2
3427.55
2863.27
1001.06
956.745
913.874
872.36
)


20
(
6289.27
6272.97
6224.06
6142.47
6028.08
5880.72
5700.19
5486.24
5238.59
4956.92
4640.88
4290.1
3904.19
3482.72
3025.3
2531.48
901.849
863.066
825.55
789.221
)


20
(
5331.42
5317.7
5276.52
5207.83
5111.51
4987.45
4835.46
4655.35
4446.88
4209.79
3943.8
3648.58
3323.83
2969.19
2584.32
2168.88
797.951
765.326
733.766
703.206
)


20
(
4292.59
4281.66
4248.84
4194.1
4117.36
4018.51
3897.42
3753.95
3587.9
3399.07
3187.25
2952.2
2693.66
2411.38
2105.09
1774.51
683.725
657.768
632.659
608.345
)


20
(
3181.99
3174
3150.02
3110.01
3053.92
2981.7
2893.24
2788.44
2667.18
2529.33
2374.74
2203.23
2014.66
1808.83
1585.57
1344.7
550.051
531.142
512.851
495.139
)


20
(
2010.42
2005.46
1990.58
1965.77
1931
1886.23
1831.44
1766.55
1691.52
1606.28
1510.77
1404.89
1288.57
1161.72
1024.27
876.106
387.583
375.956
364.709
353.818
)


20
(
796.939
795.058
789.418
780.019
766.865
749.96
729.31
704.921
676.801
644.959
609.404
570.147
527.198
480.57
430.274
376.323
198.895
194.665
190.573
186.609
)


20
(
1895.67
1895.3
1894.18
1892.3
1889.59
1885.99
1881.43
1875.79
1868.96
1860.8
1851.16
1839.87
1826.74
1811.58
1794.17
1774.28
1706.67
1705.18
1703.74
1702.35
)


20
(
3001.31
2997.76
2987.07
2969.23
2944.14
2911.73
2871.85
2824.37
2769.11
2705.87
2634.43
2554.56
2465.98
2368.44
2261.63
2145.25
1759.26
1750.17
1741.39
1732.91
)


20
(
4071.84
4065.16
4045.11
4011.63
3964.64
3903.99
3829.54
3741.08
3638.39
3521.22
3389.28
3242.27
3079.84
2901.67
2707.37
2496.58
1799.06
1782.55
1766.59
1751.15
)


20
(
5090.75
5081.07
5051.99
5003.46
4935.35
4847.52
4739.77
4611.85
4463.5
4294.4
4104.21
3892.56
3659.06
3403.28
3124.79
2823.15
1825.9
1802.25
1779.39
1757.25
)


20
(
6042.31
6029.78
5992.17
5929.39
5841.32
5727.78
5588.53
5423.29
5231.76
5013.56
4768.3
4495.55
4194.85
3865.72
3507.67
3120.19
1839.73
1809.34
1779.94
1751.49
)


20
(
6911.79
6896.63
6851.1
6775.12
6668.55
6531.17
6362.73
6162.91
5931.35
5667.65
5371.37
5042.01
4679.08
4282.02
3850.29
3383.32
1840.66
1804.02
1768.57
1734.26
)


20
(
7685.75
7668.19
7615.5
7527.57
7404.24
7245.29
7050.42
6819.29
6551.51
6246.64
5904.18
5523.61
5104.37
4645.87
4147.5
3608.66
1828.93
1786.64
1745.73
1706.12
)


20
(
8352.19
8332.54
8273.54
8175.09
8037.02
7859.09
7640.97
7382.32
7082.69
6741.61
6358.56
5932.97
5464.24
4951.75
4394.85
3792.88
1804.95
1757.7
1711.99
1667.73
)


20
(
8900.81
8879.37
8815.03
8707.67
8557.11
8363.09
8125.28
7843.29
7516.69
7144.95
6727.52
6263.82
5753.22
5195.04
4588.62
3933.26
1769.29
1717.83
1668.06
1619.87
)


20
(
9323.1
9300.24
9231.6
9117.07
8956.46
8749.5
8495.86
8195.12
7846.83
7450.45
7005.42
6511.12
5966.89
5372.06
4725.91
4027.75
1722.65
1667.83
1614.8
1563.45
)


20
(
9612.58
9588.65
9516.82
9396.98
9228.93
9012.39
8747.02
8432.4
8068.06
7653.46
7188.01
6671.1
6102.04
5480.14
4804.7
4074.98
1665.88
1608.58
1553.15
1499.48
)


20
(
9764.8
9740.2
9666.35
9543.13
9370.36
9147.74
8874.93
8551.52
8177.02
7750.89
7272.55
6741.36
6156.65
5517.72
4823.86
4074.33
1600.01
1541.15
1484.21
1429.08
)


20
(
9777.49
9752.61
9677.94
9553.34
9378.64
9153.54
8877.71
8550.72
8172.12
7741.34
7257.82
6720.93
6129.99
5484.32
4783.21
4025.93
1526.16
1466.69
1409.16
1353.45
)


20
(
9650.57
9625.82
9551.52
9427.56
9253.75
9029.81
8755.41
8430.14
8053.54
7625.07
7144.18
6610.23
6022.59
5380.58
4683.5
3930.64
1445.61
1386.49
1329.29
1273.91
)


20
(
9386.11
9361.89
9289.17
9167.85
8997.75
8778.59
8510.06
8191.76
7823.25
7404.01
6933.49
6411.11
5836.24
5208.22
4526.4
3790.08
1359.74
1301.91
1245.97
1191.8
)


20
(
8988.29
8964.99
8895.03
8778.32
8614.67
8403.84
8145.53
7839.35
7484.88
7081.64
6629.11
6126.73
5573.9
4970
4314.41
3606.48
1269.94
1214.34
1160.55
1108.47
)


20
(
8463.21
8441.2
8375.14
8264.92
8110.39
7911.31
7667.39
7378.29
7043.61
6662.9
6235.68
5761.41
5239.56
4669.53
4050.75
3382.62
1177.52
1125.04
1074.28
1025.12
)


20
(
7818.65
7798.3
7737.2
7635.28
7492.37
7308.27
7082.71
6815.38
6505.91
6153.9
5758.9
5320.44
4838
4311.06
3739.09
3121.54
1083.45
1034.95
988.031
942.597
)


20
(
7063.75
7045.38
6990.24
6898.26
6769.3
6603.17
6399.64
6158.42
5879.19
5561.59
5205.22
4809.66
4374.45
3899.13
3383.22
2826.23
988.081
944.335
902.018
861.04
)


20
(
6208.62
6192.53
6144.25
6063.71
5950.78
5805.31
5627.1
5415.89
5171.42
4893.37
4581.39
4235.12
3854.18
3438.15
2986.62
2499.18
890.598
852.316
815.283
779.424
)


20
(
5263.51
5249.96
5209.31
5141.49
5046.4
4923.93
4773.88
4596.08
4390.28
4156.23
3893.64
3602.22
3281.64
2931.56
2551.65
2141.56
788.318
756.114
724.961
694.794
)


20
(
4238.38
4227.58
4195.18
4141.14
4065.37
3967.78
3848.23
3706.58
3542.64
3356.22
3147.11
2915.06
2659.83
2381.16
2078.79
1752.46
675.691
650.068
625.281
601.28
)


20
(
3142.4
3134.5
3110.82
3071.31
3015.93
2944.61
2857.26
2753.78
2634.05
2497.94
2345.3
2175.96
1989.77
1786.56
1566.14
1328.33
543.811
525.143
507.084
489.598
)


20
(
1986.28
1981.38
1966.68
1942.18
1907.83
1863.61
1809.48
1745.4
1671.29
1587.1
1492.76
1388.19
1273.31
1148.04
1012.3
865.992
383.585
372.103
360.997
350.242
)


20
(
788.836
786.976
781.396
772.099
759.087
742.365
721.94
697.817
670.006
638.515
603.354
564.535
522.069
475.969
426.246
372.916
197.536
193.355
189.31
185.392
)


20
(
1918.04
1917.68
1916.59
1914.74
1912.09
1908.57
1904.09
1898.54
1891.82
1883.77
1874.24
1863.06
1850.04
1834.98
1817.65
1797.84
1730.42
1728.93
1727.5
1726.13
)


20
(
3035.64
3032.06
3021.3
3003.32
2978.06
2945.41
2905.24
2857.41
2801.73
2738.02
2666.03
2585.54
2496.27
2397.94
2290.27
2172.93
1783.74
1774.58
1765.73
1757.17
)


20
(
4117.7
4110.96
4090.74
4056.96
4009.55
3948.37
3873.25
3784.01
3680.4
3562.18
3429.04
3280.69
3116.78
2936.97
2740.87
2528.11
1824.06
1807.41
1791.3
1775.71
)


20
(
5147.54
5137.76
5108.42
5059.43
4990.68
4902.02
4793.25
4664.12
4514.36
4343.66
4151.65
3937.98
3702.23
3443.98
3162.79
2858.21
1851.23
1827.35
1804.26
1781.91
)


20
(
6109.26
6096.61
6058.63
5995.25
5906.32
5791.68
5651.07
5484.23
5290.82
5070.49
4822.82
4547.39
4243.72
3911.34
3549.74
3158.4
1865.17
1834.48
1804.79
1776.05
)


20
(
6987.98
6972.66
6926.69
6849.96
6742.33
6603.59
6433.48
6231.68
5997.83
5731.51
5432.27
5099.62
4733.05
4332.01
3895.93
3424.25
1866
1828.99
1793.19
1758.54
)


20
(
7770.1
7752.37
7699.15
7610.34
7485.78
7325.23
7128.41
6894.97
6624.5
6316.56
5970.65
5586.23
5162.75
4699.6
4196.17
3651.84
1853.98
1811.26
1769.93
1729.92
)


20
(
8443.52
8423.66
8364.07
8264.63
8125.17
7945.43
7725.12
7463.84
7161.18
6816.64
6429.7
5999.78
5526.28
5008.55
4445.96
3837.82
1829.51
1781.77
1735.59
1690.88
)


20
(
8997.79
8976.14
8911.15
8802.7
8650.61
8454.61
8214.39
7929.53
7599.59
7224.06
6802.37
6333.93
5818.09
5254.19
4641.54
3979.43
1793.17
1741.18
1690.9
1642.22
)


20
(
9424.36
9401.26
9331.92
9216.23
9053.98
8844.91
8588.67
8284.86
7933
7532.56
7082.96
6583.58
6033.75
5432.79
4779.98
4074.61
1745.67
1690.29
1636.71
1584.84
)


20
(
9716.65
9692.47
9619.91
9498.84
9329.07
9110.31
8842.21
8524.37
8156.28
7737.41
7267.18
6744.93
6170
5541.68
4859.25
4121.97
1687.89
1630
1573.99
1519.77
)


20
(
9870.17
9845.32
9770.71
9646.23
9471.68
9246.77
8971.15
8644.41
8266.05
7835.53
7352.25
6815.57
6224.81
5579.26
4878.2
4120.89
1620.85
1561.37
1503.85
1448.14
)


20
(
9882.64
9857.51
9782.06
9656.18
9479.68
9252.26
8973.58
8643.22
8260.7
7825.47
7336.95
6794.49
6197.43
5545.05
4836.65
4071.49
1545.69
1485.6
1427.47
1371.19
)


20
(
9753.98
9728.97
9653.91
9528.67
9353.06
9126.81
8849.57
8520.93
8140.43
7707.52
7221.64
6682.15
6088.41
5439.72
4735.38
3974.67
1463.72
1403.98
1346.19
1290.23
)


20
(
9486.29
9461.82
9388.35
9265.77
9093.9
8872.48
8601.16
8279.57
7907.23
7483.63
7008.23
6480.42
5899.56
5265.01
4576.07
3832.06
1376.34
1317.9
1261.38
1206.64
)


20
(
9083.82
9060.27
8989.58
8871.66
8706.32
8493.3
8232.3
7922.94
7564.79
7157.36
6700.12
6192.5
5633.91
5023.72
4361.28
3645.95
1284.96
1228.78
1174.43
1121.81
)


20
(
8552.73
8530.49
8463.74
8352.38
8196.25
7995.1
7748.64
7456.54
7118.37
6733.7
6302.02
5822.81
5295.5
4719.52
4094.27
3419.15
1190.95
1137.92
1086.63
1036.96
)


20
(
7900.94
7880.37
7818.64
7715.66
7571.26
7385.25
7157.34
6887.23
6574.54
6218.85
5819.73
5376.69
4889.2
4356.76
3778.8
3154.78
1095.32
1046.31
998.9
952.99
)


20
(
7137.69
7119.13
7063.42
6970.48
6840.18
6672.32
6466.67
6222.93
5940.8
5619.88
5259.79
4860.09
4420.33
3940.04
3418.72
2855.9
998.463
954.258
911.497
870.09
)


20
(
6273.24
6256.98
6208.2
6126.82
6012.72
5865.73
5685.66
5472.26
5225.24
4944.29
4629.05
4279.17
3894.24
3473.85
3017.6
2525.05
899.593
860.91
823.489
787.254
)


20
(
5317.92
5304.24
5263.16
5194.64
5098.57
4974.82
4823.22
4643.57
4435.63
4199.14
3933.82
3639.36
3315.43
2961.7
2577.82
2163.44
796.018
763.476
731.997
701.515
)


20
(
4281.81
4270.91
4238.17
4183.57
4107.02
4008.42
3887.64
3744.53
3578.9
3390.55
3179.26
2944.81
2686.93
2405.36
2099.85
1770.11
682.109
656.219
631.174
606.922
)


20
(
3174.12
3166.15
3142.22
3102.31
3046.37
2974.32
2886.08
2781.55
2660.59
2523.08
2368.87
2197.8
2009.7
1804.39
1581.7
1341.43
548.793
529.932
511.687
494.02
)


20
(
2005.61
2000.67
1985.83
1961.07
1926.39
1881.73
1827.07
1762.34
1687.5
1602.46
1507.18
1401.56
1285.53
1159
1021.88
874.086
386.775
375.177
363.958
353.094
)


20
(
795.328
793.452
787.823
778.444
765.319
748.45
727.845
703.509
675.45
643.678
608.201
569.03
526.178
479.654
429.472
375.644
198.623
194.402
190.319
186.365
)


20
(
1918.04
1917.68
1916.59
1914.74
1912.09
1908.57
1904.09
1898.54
1891.82
1883.77
1874.24
1863.06
1850.04
1834.98
1817.65
1797.84
1730.42
1728.93
1727.5
1726.13
)


20
(
3035.64
3032.06
3021.3
3003.32
2978.06
2945.41
2905.24
2857.41
2801.73
2738.02
2666.03
2585.54
2496.27
2397.94
2290.27
2172.93
1783.74
1774.58
1765.73
1757.17
)


20
(
4117.7
4110.96
4090.74
4056.96
4009.55
3948.37
3873.25
3784.01
3680.4
3562.18
3429.04
3280.69
3116.78
2936.97
2740.87
2528.11
1824.06
1807.41
1791.3
1775.71
)


20
(
5147.54
5137.77
5108.42
5059.43
4990.68
4902.02
4793.25
4664.12
4514.36
4343.66
4151.65
3937.98
3702.23
3443.98
3162.79
2858.21
1851.23
1827.35
1804.26
1781.91
)


20
(
6109.26
6096.61
6058.63
5995.25
5906.32
5791.68
5651.07
5484.23
5290.82
5070.48
4822.82
4547.39
4243.72
3911.34
3549.74
3158.4
1865.17
1834.48
1804.79
1776.05
)


20
(
6987.98
6972.66
6926.69
6849.96
6742.33
6603.59
6433.48
6231.68
5997.83
5731.51
5432.27
5099.62
4733.05
4332.01
3895.93
3424.25
1866
1828.99
1793.19
1758.54
)


20
(
7770.1
7752.37
7699.15
7610.34
7485.78
7325.23
7128.41
6894.97
6624.5
6316.56
5970.65
5586.23
5162.75
4699.6
4196.17
3651.84
1853.98
1811.26
1769.93
1729.92
)


20
(
8443.51
8423.66
8364.07
8264.63
8125.17
7945.43
7725.12
7463.84
7161.18
6816.64
6429.7
5999.78
5526.28
5008.55
4445.96
3837.82
1829.51
1781.77
1735.59
1690.88
)


20
(
8997.79
8976.14
8911.15
8802.7
8650.61
8454.61
8214.39
7929.53
7599.59
7224.06
6802.37
6333.93
5818.09
5254.19
4641.54
3979.43
1793.17
1741.18
1690.9
1642.22
)


20
(
9424.36
9401.26
9331.92
9216.23
9053.98
8844.91
8588.67
8284.86
7933
7532.56
7082.96
6583.58
6033.75
5432.79
4779.98
4074.61
1745.67
1690.29
1636.71
1584.84
)


20
(
9716.65
9692.47
9619.91
9498.84
9329.07
9110.31
8842.21
8524.36
8156.28
7737.41
7267.18
6744.93
6170
5541.68
4859.25
4121.97
1687.89
1630
1573.99
1519.77
)


20
(
9870.17
9845.31
9770.71
9646.23
9471.67
9246.77
8971.15
8644.41
8266.05
7835.53
7352.25
6815.57
6224.81
5579.26
4878.2
4120.89
1620.85
1561.37
1503.85
1448.14
)


20
(
9882.64
9857.51
9782.06
9656.18
9479.67
9252.26
8973.58
8643.22
8260.7
7825.47
7336.95
6794.49
6197.43
5545.05
4836.65
4071.49
1545.69
1485.6
1427.47
1371.19
)


20
(
9753.98
9728.97
9653.91
9528.67
9353.06
9126.81
8849.57
8520.93
8140.43
7707.52
7221.64
6682.15
6088.41
5439.72
4735.38
3974.67
1463.72
1403.98
1346.19
1290.23
)


20
(
9486.29
9461.81
9388.35
9265.77
9093.9
8872.48
8601.16
8279.57
7907.23
7483.63
7008.23
6480.42
5899.56
5265.01
4576.07
3832.06
1376.34
1317.9
1261.38
1206.64
)


20
(
9083.82
9060.27
8989.58
8871.66
8706.32
8493.3
8232.3
7922.94
7564.79
7157.36
6700.12
6192.5
5633.91
5023.72
4361.28
3645.95
1284.96
1228.78
1174.43
1121.81
)


20
(
8552.73
8530.49
8463.74
8352.38
8196.25
7995.1
7748.64
7456.54
7118.37
6733.7
6302.02
5822.81
5295.5
4719.52
4094.27
3419.15
1190.95
1137.92
1086.63
1036.96
)


20
(
7900.94
7880.37
7818.64
7715.66
7571.26
7385.25
7157.34
6887.23
6574.53
6218.85
5819.73
5376.69
4889.2
4356.76
3778.8
3154.78
1095.32
1046.31
998.9
952.99
)


20
(
7137.69
7119.13
7063.42
6970.48
6840.18
6672.32
6466.67
6222.93
5940.79
5619.88
5259.79
4860.09
4420.33
3940.04
3418.72
2855.9
998.463
954.258
911.497
870.09
)


20
(
6273.24
6256.98
6208.2
6126.82
6012.71
5865.73
5685.66
5472.26
5225.24
4944.29
4629.05
4279.17
3894.24
3473.85
3017.6
2525.05
899.593
860.91
823.489
787.254
)


20
(
5317.92
5304.24
5263.16
5194.64
5098.57
4974.82
4823.22
4643.57
4435.63
4199.14
3933.82
3639.36
3315.43
2961.7
2577.82
2163.44
796.017
763.476
731.997
701.515
)


20
(
4281.81
4270.91
4238.18
4183.57
4107.02
4008.42
3887.64
3744.53
3578.9
3390.55
3179.27
2944.81
2686.93
2405.36
2099.85
1770.11
682.109
656.219
631.174
606.922
)


20
(
3174.12
3166.15
3142.22
3102.31
3046.37
2974.32
2886.08
2781.55
2660.59
2523.08
2368.88
2197.8
2009.7
1804.39
1581.7
1341.43
548.793
529.932
511.687
494.02
)


20
(
2005.61
2000.67
1985.83
1961.07
1926.39
1881.73
1827.07
1762.34
1687.49
1602.46
1507.18
1401.56
1285.53
1159
1021.88
874.086
386.775
375.177
363.958
353.094
)


20
(
795.328
793.452
787.823
778.444
765.319
748.45
727.845
703.509
675.45
643.678
608.201
569.03
526.178
479.654
429.472
375.644
198.623
194.402
190.319
186.365
)


20
(
1895.67
1895.3
1894.18
1892.3
1889.59
1885.99
1881.43
1875.79
1868.96
1860.8
1851.16
1839.87
1826.74
1811.58
1794.17
1774.28
1706.68
1705.18
1703.74
1702.36
)


20
(
3001.31
2997.76
2987.08
2969.23
2944.14
2911.73
2871.85
2824.37
2769.11
2705.87
2634.43
2554.56
2465.98
2368.44
2261.63
2145.25
1759.26
1750.17
1741.4
1732.91
)


20
(
4071.84
4065.16
4045.11
4011.64
3964.64
3903.99
3829.54
3741.08
3638.39
3521.22
3389.28
3242.27
3079.84
2901.67
2707.37
2496.58
1799.06
1782.55
1766.6
1751.15
)


20
(
5090.75
5081.07
5051.99
5003.46
4935.35
4847.52
4739.77
4611.85
4463.5
4294.4
4104.21
3892.56
3659.06
3403.28
3124.79
2823.15
1825.9
1802.26
1779.39
1757.25
)


20
(
6042.31
6029.78
5992.16
5929.39
5841.32
5727.78
5588.53
5423.29
5231.76
5013.56
4768.3
4495.55
4194.85
3865.72
3507.68
3120.19
1839.73
1809.34
1779.94
1751.49
)


20
(
6911.79
6896.63
6851.1
6775.12
6668.55
6531.17
6362.73
6162.91
5931.35
5667.66
5371.37
5042.01
4679.08
4282.02
3850.29
3383.32
1840.66
1804.02
1768.58
1734.26
)


20
(
7685.75
7668.19
7615.5
7527.57
7404.24
7245.29
7050.42
6819.29
6551.52
6246.64
5904.18
5523.61
5104.37
4645.87
4147.5
3608.66
1828.93
1786.64
1745.73
1706.12
)


20
(
8352.19
8332.54
8273.54
8175.09
8037.02
7859.09
7640.97
7382.32
7082.69
6741.61
6358.56
5932.97
5464.24
4951.75
4394.85
3792.88
1804.95
1757.7
1711.99
1667.73
)


20
(
8900.81
8879.37
8815.03
8707.67
8557.11
8363.09
8125.28
7843.3
7516.69
7144.95
6727.52
6263.82
5753.22
5195.04
4588.62
3933.26
1769.29
1717.83
1668.06
1619.87
)


20
(
9323.11
9300.24
9231.6
9117.07
8956.46
8749.51
8495.86
8195.12
7846.83
7450.45
7005.42
6511.12
5966.89
5372.06
4725.91
4027.75
1722.65
1667.83
1614.8
1563.45
)


20
(
9612.58
9588.65
9516.82
9396.98
9228.93
9012.39
8747.02
8432.4
8068.06
7653.46
7188.02
6671.1
6102.04
5480.14
4804.7
4074.98
1665.89
1608.58
1553.15
1499.48
)


20
(
9764.8
9740.2
9666.35
9543.13
9370.36
9147.74
8874.93
8551.52
8177.02
7750.89
7272.55
6741.36
6156.65
5517.73
4823.86
4074.33
1600.01
1541.15
1484.21
1429.08
)


20
(
9777.49
9752.61
9677.94
9553.34
9378.64
9153.54
8877.71
8550.72
8172.12
7741.34
7257.83
6720.93
6129.99
5484.32
4783.21
4025.93
1526.16
1466.69
1409.16
1353.45
)


20
(
9650.57
9625.82
9551.52
9427.56
9253.75
9029.81
8755.41
8430.14
8053.54
7625.07
7144.18
6610.23
6022.59
5380.58
4683.5
3930.64
1445.61
1386.49
1329.29
1273.91
)


20
(
9386.11
9361.89
9289.17
9167.85
8997.75
8778.59
8510.06
8191.76
7823.25
7404.01
6933.49
6411.11
5836.24
5208.23
4526.4
3790.08
1359.74
1301.91
1245.97
1191.8
)


20
(
8988.3
8964.99
8895.03
8778.32
8614.67
8403.84
8145.53
7839.35
7484.88
7081.64
6629.11
6126.73
5573.9
4970.01
4314.41
3606.48
1269.94
1214.34
1160.55
1108.47
)


20
(
8463.21
8441.2
8375.14
8264.92
8110.39
7911.31
7667.39
7378.29
7043.61
6662.9
6235.68
5761.41
5239.56
4669.53
4050.75
3382.62
1177.52
1125.04
1074.28
1025.12
)


20
(
7818.65
7798.3
7737.2
7635.28
7492.37
7308.27
7082.71
6815.38
6505.91
6153.9
5758.9
5320.44
4838
4311.06
3739.09
3121.54
1083.45
1034.95
988.032
942.598
)


20
(
7063.75
7045.38
6990.24
6898.26
6769.3
6603.17
6399.64
6158.42
5879.19
5561.59
5205.22
4809.66
4374.45
3899.13
3383.22
2826.23
988.082
944.336
902.018
861.04
)


20
(
6208.62
6192.53
6144.25
6063.71
5950.78
5805.31
5627.1
5415.89
5171.42
4893.37
4581.39
4235.12
3854.18
3438.15
2986.62
2499.18
890.598
852.316
815.284
779.424
)


20
(
5263.51
5249.96
5209.31
5141.49
5046.4
4923.93
4773.88
4596.08
4390.28
4156.23
3893.64
3602.22
3281.64
2931.56
2551.65
2141.56
788.318
756.114
724.961
694.795
)


20
(
4238.38
4227.58
4195.19
4141.14
4065.37
3967.78
3848.23
3706.58
3542.64
3356.23
3147.11
2915.06
2659.83
2381.16
2078.79
1752.46
675.692
650.069
625.282
601.281
)


20
(
3142.4
3134.51
3110.82
3071.31
3015.93
2944.61
2857.26
2753.79
2634.06
2497.94
2345.3
2175.96
1989.78
1786.56
1566.14
1328.33
543.811
525.143
507.085
489.599
)


20
(
1986.28
1981.38
1966.68
1942.18
1907.83
1863.61
1809.48
1745.4
1671.29
1587.1
1492.76
1388.19
1273.31
1148.04
1012.3
865.992
383.585
372.104
360.997
350.243
)


20
(
788.836
786.976
781.396
772.099
759.087
742.365
721.94
697.817
670.006
638.515
603.354
564.535
522.069
475.969
426.247
372.916
197.536
193.355
189.31
185.392
)


20
(
1923.44
1923.08
1922
1920.16
1917.53
1914.02
1909.55
1904.03
1897.33
1889.31
1879.8
1868.64
1855.65
1840.6
1823.29
1803.49
1736.12
1734.63
1733.19
1731.82
)


20
(
3044.02
3040.43
3029.65
3011.64
2986.33
2953.62
2913.38
2865.46
2809.68
2745.84
2673.72
2593.07
2503.62
2405.1
2297.21
2179.63
1789.63
1780.45
1771.58
1763.01
)


20
(
4128.95
4122.2
4101.93
4068.08
4020.56
3959.25
3883.97
3794.53
3690.69
3572.2
3438.77
3290.08
3125.81
2945.58
2749.03
2535.78
1830.11
1813.41
1797.27
1781.65
)


20
(
5161.52
5151.72
5122.3
5073.2
5004.29
4915.43
4806.4
4676.97
4526.86
4355.75
4163.3
3949.12
3712.81
3453.95
3172.09
2866.78
1857.37
1833.44
1810.29
1787.89
)


20
(
6125.76
6113.08
6075.02
6011.48
5922.34
5807.42
5666.48
5499.24
5305.37
5084.5
4836.24
4560.14
4255.74
3922.55
3560.06
3167.76
1871.36
1840.59
1810.83
1782.02
)


20
(
7006.79
6991.43
6945.35
6868.43
6760.54
6621.47
6450.94
6248.65
6014.22
5747.25
5447.28
5113.81
4746.34
4344.31
3907.16
3434.3
1872.19
1835.09
1799.2
1764.46
)


20
(
7790.95
7773.17
7719.82
7630.8
7505.93
7344.98
7147.68
6913.66
6642.52
6333.82
5987.05
5601.69
5177.15
4712.85
4208.17
3662.48
1860.11
1817.28
1775.86
1735.75
)


20
(
8466.1
8446.2
8386.46
8286.77
8146.96
7966.78
7745.92
7483.99
7180.58
6835.18
6447.28
6016.28
5541.6
5022.58
4458.57
3848.9
1835.54
1787.68
1741.39
1696.57
)


20
(
9021.79
9000.09
8934.93
8826.21
8673.74
8477.26
8236.43
7950.87
7620.1
7243.63
6820.89
6351.27
5834.13
5268.81
4654.61
3990.84
1799.05
1746.93
1696.52
1647.71
)


20
(
9449.43
9426.27
9356.76
9240.78
9078.12
8868.53
8611.65
8307.07
7954.33
7552.88
7102.15
6601.51
6050.3
5447.82
4793.36
4086.19
1751.35
1695.83
1642.12
1590.11
)


20
(
9742.42
9718.19
9645.44
9524.07
9353.87
9134.56
8865.79
8547.14
8178.13
7758.21
7286.78
6763.21
6186.83
5556.92
4872.75
4133.6
1693.33
1635.29
1579.15
1524.78
)


20
(
9896.28
9871.36
9796.56
9671.77
9496.78
9271.3
8994.99
8667.42
8288.11
7856.5
7371.99
6833.95
6241.69
5594.5
4891.66
4132.42
1626.01
1566.39
1508.71
1452.87
)


20
(
9908.7
9883.5
9807.86
9681.67
9504.71
9276.72
8997.34
8666.14
8282.65
7846.32
7356.56
6812.72
6214.14
5560.11
4849.9
4082.79
1550.54
1490.3
1432.02
1375.6
)


20
(
9779.61
9754.54
9679.28
9553.73
9377.67
9150.85
8872.91
8543.44
8161.97
7727.97
7240.85
6699.99
6104.73
5454.38
4748.25
3985.6
1468.23
1408.34
1350.4
1294.29
)


20
(
9511.13
9486.59
9412.94
9290.05
9117.75
8895.76
8623.75
8301.34
7928.05
7503.38
7026.77
6497.61
5915.27
5279.09
4588.39
3842.49
1380.47
1321.89
1265.22
1210.35
)


20
(
9107.5
9083.89
9013.03
8894.81
8729.04
8515.49
8253.82
7943.67
7584.61
7176.14
6717.73
6208.82
5648.8
5037.05
4372.91
3655.75
1288.71
1232.39
1177.9
1125.14
)


20
(
8574.93
8552.63
8485.72
8374.07
8217.54
8015.88
7768.79
7475.94
7136.91
6751.26
6318.48
5838.04
5309.39
4731.93
4105.08
3428.22
1194.31
1141.15
1089.72
1039.92
)


20
(
7921.35
7900.73
7838.84
7735.59
7590.83
7404.34
7175.85
6905.05
6591.56
6234.97
5834.83
5390.65
4901.92
4368.1
3788.66
3163.04
1098.29
1049.16
1001.62
955.595
)


20
(
7156.03
7137.42
7081.57
6988.4
6857.76
6689.47
6483.29
6238.94
5956.08
5634.35
5273.33
4872.61
4431.73
3950.2
3427.55
2863.27
1001.06
956.745
913.874
872.36
)


20
(
6289.27
6272.97
6224.06
6142.47
6028.08
5880.72
5700.19
5486.24
5238.59
4956.92
4640.88
4290.1
3904.19
3482.72
3025.3
2531.48
901.849
863.066
825.55
789.221
)


20
(
5331.42
5317.7
5276.52
5207.83
5111.51
4987.45
4835.46
4655.35
4446.88
4209.79
3943.8
3648.58
3323.83
2969.19
2584.32
2168.88
797.951
765.326
733.766
703.206
)


20
(
4292.59
4281.66
4248.84
4194.1
4117.36
4018.51
3897.43
3753.95
3587.9
3399.07
3187.25
2952.2
2693.66
2411.38
2105.09
1774.51
683.725
657.768
632.659
608.346
)


20
(
3181.99
3174
3150.02
3110.01
3053.93
2981.7
2893.24
2788.44
2667.18
2529.33
2374.74
2203.23
2014.66
1808.83
1585.57
1344.7
550.051
531.142
512.851
495.139
)


20
(
2010.42
2005.46
1990.58
1965.77
1931
1886.23
1831.43
1766.55
1691.52
1606.28