/*--------------------------------*- C++ -*----------------------------------*\
| =========                 |                                                 |
| \\      /  F ield         | OpenFOAM: The Open Source CFD Toolbox           |
|  \\    /   O peration     | Version:  2212                                  |
|   \\  /    A nd           | Website:  www.openfoam.com                      |
|    \\/     M anipulation  |                                                 |
\*---------------------------------------------------------------------------*/
FoamFile
{
    version     2.0;
    format      ascii;
    arch        "LSB;label=32;scalar=64";
    class       surfaceScalarField;
    location    "73/fluidRegion";
    object      alphaRhoPhi;
}
// * * * * * * * * * * * * * * * * * * * * * * * * * * * * * * * * * * * * * //

dimensions      [1 0 -1 0 0 0 0];

oriented        oriented;

internalField   nonuniform List<scalar> 
661
(
-0.00584938
-3.0922e-12
-0.00584948
-4.065e-12
-0.00584961
-4.67028e-12
-0.00584975
-5.1554e-12
-0.00584986
-5.0729e-12
-0.00584991
-3.90723e-12
-0.00584991
-1.37825e-12
-0.00584987
2.06653e-12
-0.00584981
5.53499e-12
-0.00584976
8.1286e-12
-0.00584973
9.14285e-12
-0.00584973
8.40214e-12
-0.00584973
6.16253e-12
-0.00584973
3.01978e-12
-0.0058497
-1.8689e-13
-0.00584963
-2.72492e-12
-0.00584953
-4.07399e-12
-0.00584942
-4.05536e-12
-0.0058493
-2.75305e-12
-0.00584922
-5.8998e-13
-0.00584919
1.85777e-12
-0.00584922
3.90609e-12
-0.00584932
4.52579e-12
-0.00584947
1.20575e-12
-5.39971e-12
-0.00584938
-0.00584948
-0.00584961
-0.00584975
-0.00584986
-0.00584991
-0.00584991
-0.00584987
-0.00584981
-0.00584976
-0.00584973
-0.00584973
-0.00584973
-0.00584973
-0.0058497
-0.00584963
-0.00584953
-0.00584942
-0.0058493
-0.00584922
-0.00584919
-0.00584922
-0.00584932
-0.00584947
-0.00939699
6.46079e-07
-0.00939722
3.12542e-07
-0.00939749
3.47029e-07
-0.00939773
3.22164e-07
-0.00939796
3.02845e-07
-0.00939818
2.85919e-07
-0.00939838
2.71099e-07
-0.00939857
2.56769e-07
-0.00939875
2.38977e-07
-0.00939891
2.10038e-07
-0.00939902
1.57722e-07
-0.00939907
6.50003e-08
-0.009399
-8.53647e-08
-0.00939874
-3.01082e-07
-0.00939823
-5.82614e-07
-0.00939743
-9.11377e-07
-0.00939629
-1.26141e-06
-0.00939481
-1.61627e-06
-0.00939297
-1.98752e-06
-0.00939069
-2.42522e-06
-0.00938783
-3.02077e-06
-0.00938413
-3.86998e-06
-0.00937928
-5.00288e-06
-0.00937354
-5.89427e-06
-7.20494e-06
-0.00931274
-1.67749e-08
-1.76439e-08
-0.00931229
-7.97274e-08
-8.33136e-08
-0.00931182
-7.73348e-08
-8.10692e-08
-0.00931138
-6.86513e-08
-7.27212e-08
-0.00931098
-6.13045e-08
-6.57326e-08
-0.0093106
-5.44314e-08
-5.93346e-08
-0.00931025
-4.79638e-08
-5.34652e-08
-0.00930993
-4.146e-08
-4.76493e-08
-0.00930964
-3.38067e-08
-4.08589e-08
-0.00930939
-2.27889e-08
-3.09332e-08
-0.00930922
-4.64716e-09
-1.41386e-08
-0.0093092
2.56292e-08
1.45858e-08
-0.00930942
7.28185e-08
5.96167e-08
-0.00930997
1.44277e-07
1.28297e-07
-0.00931098
2.38112e-07
2.18516e-07
-0.00931254
3.5023e-07
3.25935e-07
-0.00931467
4.73028e-07
4.42482e-07
-0.00931741
6.01612e-07
5.62841e-07
-0.00932079
7.40646e-07
6.90768e-07
-0.00932493
9.07542e-07
8.43638e-07
-0.00933011
1.13401e-06
1.05166e-06
-0.00933674
1.44567e-06
1.34364e-06
-0.00934525
1.82494e-06
1.70102e-06
-0.00935492
1.96083e-06
1.83303e-06
1.91038e-06
1.82798e-06
-0.0094108
3.19343e-07
-0.00941112
3.07119e-07
-0.00941145
3.03112e-07
-0.00941174
2.7859e-07
-0.009412
2.57574e-07
-0.00941225
2.38742e-07
-0.00941247
2.21503e-07
-0.00941267
2.03907e-07
-0.00941285
1.81352e-07
-0.00941299
1.45243e-07
-0.00941307
8.19945e-08
-0.00941303
-2.55474e-08
-0.0094128
-1.95511e-07
-0.00941229
-4.37418e-07
-0.00941141
-7.49052e-07
-0.00941008
-1.11026e-06
-0.00940827
-1.49413e-06
-0.00940595
-1.88554e-06
-0.00940309
-2.30067e-06
-0.00939958
-2.79645e-06
-0.00939518
-3.46897e-06
-0.00938954
-4.4132e-06
-0.00938236
-5.57268e-06
-0.00937432
-6.27538e-06
-6.56167e-06
-0.00933163
2.61999e-09
-0.00933137
1.24253e-09
-0.0093311
1.38891e-09
-0.00933085
1.38591e-09
-0.00933063
1.42657e-09
-0.00933042
1.43248e-09
-0.00933023
1.36362e-09
-0.00933006
1.28187e-09
-0.0093299
1.11514e-09
-0.00932978
8.23396e-10
-0.00932971
4.54807e-10
-0.00932974
-4.6731e-11
-0.00932992
-7.73118e-10
-0.00933032
-1.75986e-09
-0.00933102
-3.13963e-09
-0.00933207
-4.97437e-09
-0.00933349
-7.23512e-09
-0.00933529
-9.83786e-09
-0.0093375
-1.29355e-08
-0.0093402
-1.62758e-08
-0.00934357
-1.96226e-08
-0.00934787
-2.31375e-08
-0.00935333
-2.70649e-08
-0.0093595
-2.75692e-08
-2.5178e-08
-0.00933165
-3.13644e-07
-0.00933138
-3.04472e-07
-0.00933111
-3.00011e-07
-0.00933087
-2.7543e-07
-0.00933064
-2.5427e-07
-0.00933043
-2.35348e-07
-0.00933024
-2.18103e-07
-0.00933007
-2.00514e-07
-0.00932991
-1.78083e-07
-0.00932979
-1.42245e-07
-0.00932972
-7.93609e-08
-0.00932975
2.77635e-08
-0.00932993
1.96966e-07
-0.00933033
4.37768e-07
-0.00933103
7.47803e-07
-0.00933208
1.10681e-06
-0.0093335
1.48786e-06
-0.0093353
1.87577e-06
-0.00933751
2.28616e-06
-0.00934021
2.7759e-06
-0.00934358
3.44043e-06
-0.00934788
4.37401e-06
-0.00935335
5.51752e-06
-0.00935951
6.211e-06
6.49252e-06
-0.0094108
1.56675e-08
-0.00941113
8.09756e-08
-0.00941145
7.85232e-08
-0.00941174
6.99939e-08
-0.00941201
6.28713e-08
-0.00941225
5.62774e-08
-0.00941247
5.01559e-08
-0.00941268
4.41067e-08
-0.00941285
3.70043e-08
-0.00941299
2.66712e-08
-0.00941307
9.41311e-09
-0.00941303
-1.98068e-08
-0.0094128
-6.54743e-08
-0.00941229
-1.35135e-07
-0.0094114
-2.26761e-07
-0.00941008
-3.36204e-07
-0.00940826
-4.55733e-07
-0.00940594
-5.80462e-07
-0.00940308
-7.15278e-07
-0.00939957
-8.77955e-07
-0.00939517
-1.10037e-06
-0.00938952
-1.40961e-06
-0.00938234
-1.79058e-06
-0.0093743
-1.93207e-06
-1.88791e-06
-0.00931274
-6.45834e-07
-1.99593e-08
-0.0093123
-3.12172e-07
-8.36457e-08
-0.00931182
-3.46653e-07
-8.15432e-08
-0.00931138
-3.21777e-07
-7.31132e-08
-0.00931098
-3.02403e-07
-6.60727e-08
-0.0093106
-2.85438e-07
-5.95633e-08
-0.00931025
-2.70589e-07
-5.3495e-08
-0.00930993
-2.56214e-07
-4.74275e-08
-0.00930964
-2.3841e-07
-4.02472e-08
-0.00930939
-2.09485e-07
-2.97609e-08
-0.00930922
-1.57164e-07
-1.22339e-08
-0.0093092
-6.44808e-08
1.72854e-08
-0.00930942
8.5717e-08
6.3784e-08
-0.00930997
3.01108e-07
1.34504e-07
-0.00931098
5.81908e-07
2.27711e-07
-0.00931254
9.09312e-07
3.39553e-07
-0.00931467
1.25693e-06
4.62718e-07
-0.00931741
1.60745e-06
5.93019e-07
-0.00932079
1.97049e-06
7.36556e-07
-0.00932493
2.39331e-06
9.13313e-07
-0.00933011
2.96201e-06
1.1576e-06
-0.00933674
3.76866e-06
1.49923e-06
-0.00934525
4.83098e-06
1.92132e-06
-0.00935492
5.65911e-06
2.09851e-06
6.94538e-06
2.0786e-06
-0.00939699
-0.00939722
-0.00939749
-0.00939773
-0.00939796
-0.00939818
-0.00939838
-0.00939857
-0.00939875
-0.00939891
-0.00939902
-0.00939907
-0.009399
-0.00939874
-0.00939823
-0.00939743
-0.00939629
-0.00939481
-0.00939297
-0.00939069
-0.00938784
-0.00938413
-0.00937928
-0.00937354
-0.00933163
-3.15207e-07
-2.30798e-11
-0.00933137
-3.02227e-07
-1.92565e-09
-0.0093311
-2.97908e-07
-1.97778e-09
-0.00933085
-2.73081e-07
-2.16782e-09
-0.00933063
-2.51661e-07
-2.4337e-09
-0.00933042
-2.32385e-07
-2.7545e-09
-0.00933023
-2.14681e-07
-3.13146e-09
-0.00933006
-1.96551e-07
-3.63037e-09
-0.0093299
-1.73431e-07
-4.24334e-09
-0.00932978
-1.36707e-07
-4.9893e-09
-0.00932971
-7.27466e-08
-5.99927e-09
-0.00932974
3.57328e-08
-7.06275e-09
-0.00932992
2.06747e-07
-8.92329e-09
-0.00933032
4.49945e-07
-1.12725e-08
-0.00933102
7.63266e-07
-1.44818e-08
-0.00933207
1.12687e-06
-1.90103e-08
-0.00933349
1.51474e-06
-2.57351e-08
-0.00933529
1.91299e-06
-3.5906e-08
-0.0093375
2.3402e-06
-5.15049e-08
-0.0093402
2.85694e-06
-7.52765e-08
-0.00934357
3.56639e-06
-1.11843e-07
-0.00934787
4.56726e-06
-1.60942e-07
-0.00935333
5.80665e-06
-2.22231e-07
-0.00935951
6.58515e-06
-2.65537e-07
6.87528e-06
-2.49067e-07
-0.0094108
-0.00941112
-0.00941144
-0.00941174
-0.009412
-0.00941225
-0.00941247
-0.00941267
-0.00941285
-0.00941299
-0.00941307
-0.00941303
-0.0094128
-0.00941229
-0.00941141
-0.00941008
-0.00940827
-0.00940595
-0.00940309
-0.00939958
-0.00939518
-0.00938954
-0.00938236
-0.00937433
-0.0094108
3.15104e-07
-0.00941113
3.06051e-07
-0.00941145
3.01642e-07
-0.00941174
2.77137e-07
-0.00941201
2.56156e-07
-0.00941225
2.37404e-07
-0.00941247
2.20312e-07
-0.00941268
2.02951e-07
-0.00941285
1.80737e-07
-0.00941299
1.45102e-07
-0.00941307
8.24888e-08
-0.00941303
-2.45299e-08
-0.0094128
-1.93152e-07
-0.00941229
-4.33454e-07
-0.00941141
-7.43058e-07
-0.00941008
-1.10172e-06
-0.00940826
-1.48255e-06
-0.00940595
-1.87084e-06
-0.00940308
-2.28367e-06
-0.00939957
-2.77996e-06
-0.00939517
-3.45984e-06
-0.00938953
-4.4229e-06
-0.00938234
-5.61886e-06
-0.0093743
-6.36901e-06
-6.67229e-06
-0.00933165
-0.00933138
-0.00933111
-0.00933087
-0.00933064
-0.00933043
-0.00933024
-0.00933007
-0.00932991
-0.00932979
-0.00932972
-0.00932975
-0.00932993
-0.00933034
-0.00933103
-0.00933208
-0.0093335
-0.0093353
-0.00933751
-0.00934021
-0.00934358
-0.00934789
-0.00935335
-0.00935952
)
;

boundaryField
{
    outletCentralUnloaded
    {
        type            calculated;
        value           nonuniform List<scalar> 2(0.00584935 0.00584935);
    }
    inletCentralUnloaded
    {
        type            calculated;
        value           nonuniform List<scalar> 2(-0.00587369 -0.00587369);
    }
    outletFuelElement
    {
        type            calculated;
        value           nonuniform List<scalar> 
12
(
0.00939642
0.0093134
0.00941052
0.00933192
0.00933193
0.00941053
0.0093134
0.00939642
0.00933192
0.00941052
0.00941053
0.00933193
)
;
    }
    inletFuelElement
    {
        type            calculated;
        value           nonuniform List<scalar> 
12
(
-0.00953891
-0.00953892
-0.00953891
-0.00953891
-0.00953892
-0.00953891
-0.00953892
-0.00953891
-0.00953891
-0.00953891
-0.00953891
-0.00953892
)
;
    }
    defaultFaces
    {
        type            calculated;
        value           nonuniform List<scalar> 
450
(
1.29221e-23
-2.81091e-23
0
7.86054e-24
3.04392e-25
0
1.21115e-23
1.42311e-24
0
-1.83794e-23
-1.23453e-23
0
-9.31765e-24
-1.65234e-23
0
-1.52869e-23
-1.01319e-23
0
-1.76252e-23
-7.9353e-24
0
-1.67691e-23
-2.18207e-24
0
-1.6286e-23
-1.88528e-24
0
-1.36507e-23
-2.29929e-24
0
-1.19991e-23
-1.78722e-24
0
-4.47074e-24
-2.21381e-24
0
5.54287e-24
3.56872e-24
0
1.97714e-23
4.60872e-24
0
4.11471e-23
9.94835e-24
0
6.69041e-23
1.48208e-23
0
6.30531e-23
-1.11891e-23
0
1.33492e-22
4.0554e-23
0
1.05282e-22
-4.09983e-23
0
-7.69759e-23
-1.18524e-22
0
-8.05148e-23
-4.7516e-23
0
1.8705e-22
-7.76765e-23
0
-1.03001e-22
7.27818e-23
0
-2.83412e-22
-1.04022e-22
0
-2.50004e-22
-3.30327e-22
0
6.47832e-24
0
1.13092e-23
0
0
0
7.97191e-24
0
-2.06959e-24
0
4.32745e-24
0
6.83433e-24
0
6.0409e-24
0
-6.45827e-24
0
4.87445e-24
0
3.41022e-24
0
-8.33188e-25
0
-7.41141e-24
0
-2.08602e-23
0
-2.85727e-23
0
-4.41484e-23
0
5.2022e-23
0
-9.36661e-23
0
3.82614e-23
0
-4.7997e-23
0
-1.236e-22
0
2.45332e-22
0
1.66038e-22
0
-7.50011e-23
0
-2.8828e-22
0
0
0
3.80747e-24
-7.85479e-24
4.07791e-24
0
-4.48788e-24
-4.75981e-24
5.08826e-24
-5.48595e-24
0
4.10229e-25
0
1.64363e-23
9.38287e-24
2.17552e-23
-5.12988e-23
3.08103e-23
-3.7791e-23
4.74599e-23
6.11931e-23
-1.6223e-22
0
0
0
0
0
0
0
0
0
0
0
0
0
0
0
0
0
0
0
0
0
0
0
0
0
0
0
0
-4.62737e-24
1.11057e-23
3.76974e-24
7.53949e-24
7.72755e-24
1.54551e-23
-7.9719e-24
-5.97893e-24
8.27834e-24
-6.20875e-24
-1.08186e-23
-2.16372e-24
-6.83432e-24
-9.11243e-24
-4.83272e-24
-4.83272e-24
9.04156e-24
-5.16661e-24
-4.17809e-24
-5.57079e-24
-1.51565e-24
0
8.33187e-25
8.33187e-25
5.55855e-24
5.55855e-24
1.25161e-23
8.34408e-24
2.85726e-23
2.85726e-23
3.31113e-23
3.31113e-23
-3.90165e-23
6.50274e-23
6.2444e-23
6.2444e-23
-1.53045e-22
1.14784e-22
-1.43991e-22
-4.79969e-23
-3.09e-23
-1.236e-22
-1.63554e-22
2.45331e-22
-1.66038e-22
-2.21384e-22
0
-2.25003e-22
-2.8828e-22
-4.80467e-23
5.58936e-24
0
1.47704e-23
2.04113e-24
0
0
8.67615e-24
0
-3.08317e-23
-2.94095e-23
0
7.95155e-24
9.70156e-24
0
0
-2.48125e-23
0
4.3163e-24
-2.40237e-23
0
4.54444e-24
-2.01888e-23
0
4.82019e-24
-8.77141e-24
0
-1.03064e-23
-1.87542e-23
0
2.77815e-24
-1.41592e-23
0
3.02342e-24
-6.14178e-24
0
8.31029e-25
7.17104e-24
-0
0
3.33853e-23
-0
-4.16145e-24
4.82887e-23
-0
-1.90011e-23
8.08412e-23
-0
-1.10105e-23
5.69649e-23
-0
-2.59511e-23
1.49884e-22
-0
0
9.12175e-23
-0
-3.81844e-23
-6.4059e-23
-0
4.79098e-23
-6.18417e-24
-0
6.17024e-23
1.77284e-22
-0
2.45015e-22
-1.40517e-22
-0
-1.10588e-22
-1.19012e-22
-0
7.49605e-23
-1.97774e-22
-0
9.60773e-23
0
0
-3.80747e-24
-3.9274e-24
0
-4.26296e-24
-4.48788e-24
-4.75981e-24
0
-2.74297e-24
-1.4925e-24
8.20457e-25
0
0
0
2.17552e-23
-5.12988e-23
0
-1.13373e-22
-4.74599e-23
-6.11931e-23
-2.43345e-22
-2.20072e-22
1.49496e-22
0
1.20312e-23
0
1.13092e-23
0
-7.72756e-24
0
1.19579e-23
0
-4.13917e-24
0
6.49118e-24
0
6.83433e-24
0
9.66544e-24
0
1.29165e-24
0
1.3927e-24
0
3.0313e-24
0
-8.33188e-25
-0
-5.55855e-24
-0
-1.25161e-23
-0
-9.52422e-24
-0
-4.41484e-23
-0
6.50275e-23
-0
-3.1222e-23
-0
1.14784e-22
-0
-1.43991e-22
-0
-1.236e-22
-0
1.63554e-22
-0
5.5346e-23
-0
-3.00004e-22
-0
-2.8828e-22
-0
-8.32926e-24
7.40379e-24
-3.76974e-24
7.53949e-24
-7.72755e-24
1.15913e-23
-7.9719e-24
-2.19227e-23
2.06958e-24
4.13917e-24
-4.32745e-24
-1.73098e-23
-9.11243e-24
-1.36686e-23
-2.41636e-24
-1.69145e-23
2.5833e-24
-7.74991e-24
-2.7854e-24
-9.74888e-24
-3.0313e-24
-6.0626e-24
4.16594e-25
3.31648e-24
0
1.66756e-23
4.17204e-24
4.17204e-23
9.52421e-24
6.19073e-23
2.20742e-23
8.82968e-23
0
9.10384e-23
3.1222e-23
1.5611e-22
-3.82613e-23
1.14784e-22
0
-7.19954e-23
0
-6.18e-23
4.08885e-23
2.04443e-22
1.66038e-22
-1.66038e-22
7.5001e-23
-2.25003e-22
0
-1.92187e-22
-0
-0
-0
-0
-0
-0
-0
-0
-0
-0
-0
0
0
0
0
0
0
0
0
0
0
0
0
0
0
)
;
    }
    baffle_master
    {
        type            calculated;
        value           nonuniform List<scalar> 
150
(
1.04863e-30
0
0
5.36169e-30
0
0
5.23432e-29
0
6.21254e-29
5.34892e-29
0
-6.21305e-29
-3.16859e-28
0
-1.86407e-28
5.89691e-29
0
-6.21408e-29
-3.28185e-30
0
0
-2.92376e-29
0
0
-1.11512e-28
0
1.24312e-28
-6.2205e-29
0
-1.24323e-28
3.69669e-29
0
1.24333e-28
-5.23564e-29
0
0
2.15484e-30
0
0
-1.2485e-29
0
6.21821e-29
2.19714e-30
0
0
3.79242e-29
0
-6.21923e-29
4.34413e-28
0
2.4879e-28
-2.97011e-29
0
0
1.88396e-28
0
1.24415e-28
-1.3954e-30
0
0
1.38358e-29
0
-3.11091e-29
2.38793e-28
0
1.8667e-28
2.66222e-29
0
0
-1.00042e-29
0
1.55583e-29
2.81723e-29
0
0
6.21152e-29
-1.67673e-28
0
6.21203e-29
-1.27604e-28
0
0
-1.86011e-28
0
6.21305e-29
-2.52412e-28
0
0
9.38044e-29
0
0
-1.7128e-28
0
3.1073e-29
-8.23589e-29
0
-3.10755e-29
9.50657e-29
-0
0
1.50256e-28
-0
-1.24323e-28
3.85337e-28
-0
0
3.08294e-28
-0
-1.24344e-28
3.06724e-28
-0
-1.24354e-28
3.4999e-28
-0
-6.21821e-29
7.9675e-29
-0
0
-6.2607e-30
0
6.21923e-29
-1.23728e-28
0
-1.86592e-28
-1.2805e-28
0
-6.22026e-29
-1.78667e-28
0
0
2.01621e-29
0
-7.77662e-30
1.70281e-29
0
-3.11091e-29
-5.66113e-29
-0
1.24447e-28
-2.07839e-28
-0
1.24457e-28
1.01746e-28
-0
0
-4.83621e-29
-0
0
8.60526e-29
0
)
;
    }
    baffle_slave
    {
        type            calculated;
        value           nonuniform List<scalar> 
150
(
1.50572e-24
-0
0
1.157e-24
-0
0
3.31985e-24
-0
0
1.58984e-24
-0
0
-1.58722e-23
-0
-8.15582e-24
-3.45111e-24
-0
0
1.11787e-24
-0
-4.48788e-24
-2.07474e-24
-0
0
2.85151e-24
-0
-2.54413e-24
6.83177e-25
-0
2.74297e-24
7.43443e-25
-0
-1.4925e-24
0
0
0
4.54438e-25
0
0
1.53513e-24
0
0
3.50557e-24
0
0
4.74178e-24
0
0
-8.46677e-23
0
-1.28247e-22
1.91927e-24
0
-3.08103e-23
-8.00575e-23
0
-7.55821e-23
-1.18315e-23
0
-4.74599e-23
-2.67054e-23
0
0
1.66956e-22
0
8.11151e-23
-6.86688e-24
0
1.10036e-22
4.66775e-24
0
-1.49496e-22
-7.1982e-23
0
-9.59993e-23
-6.08077e-24
1.90913e-23
0
-7.7538e-24
6.47922e-24
0
-1.99375e-24
8.89246e-24
0
-6.83675e-24
6.84856e-24
0
3.1527e-24
-1.46024e-23
0
-8.33934e-24
9.68966e-24
0
-2.14264e-24
9.64163e-24
0
-4.71769e-24
9.48453e-24
0
8.4001e-24
8.71294e-24
0
-2.41267e-24
7.68574e-24
0
-4.03793e-24
5.2041e-24
0
-1.70126e-25
3.26944e-24
0
2.9336e-24
-7.38462e-25
0
6.66613e-24
-6.8761e-24
0
1.62539e-23
-1.56655e-23
0
3.78013e-25
-2.18461e-23
0
-4.91006e-23
-3.1351e-23
0
-6.53588e-24
-4.03046e-23
0
-8.37118e-24
-7.65255e-24
0
5.7387e-23
3.54944e-23
0
-4.56864e-23
6.1041e-23
0
-2.46768e-22
1.08774e-22
0
-3.26412e-22
-1.0987e-22
0
-3.82004e-23
7.46841e-23
0
6.52547e-23
7.79805e-23
0
)
;
    }
}


// ************************************************************************* //
