/*--------------------------------*- C++ -*----------------------------------*\
| =========                 |                                                 |
| \\      /  F ield         | OpenFOAM: The Open Source CFD Toolbox           |
|  \\    /   O peration     | Version:  2212                                  |
|   \\  /    A nd           | Website:  www.openfoam.com                      |
|    \\/     M anipulation  |                                                 |
\*---------------------------------------------------------------------------*/
FoamFile
{
    version     2.0;
    format      ascii;
    arch        "LSB;label=32;scalar=64";
    class       surfaceScalarField;
    location    "73/fluidRegion";
    object      alphaPhi;
}
// * * * * * * * * * * * * * * * * * * * * * * * * * * * * * * * * * * * * * //

dimensions      [0 3 -1 0 0 0 0];

oriented        oriented;

internalField   nonuniform List<scalar> 
661
(
-0.000538944
-2.84917e-13
-0.000538909
-3.74521e-13
-0.000538877
-4.30253e-13
-0.000538845
-4.74906e-13
-0.000538811
-4.67268e-13
-0.000538771
-3.59867e-13
-0.000538727
-1.2693e-13
-0.000538678
1.90302e-13
-0.000538628
5.09662e-13
-0.000538578
7.48418e-13
-0.000538531
8.41732e-13
-0.000538485
7.73474e-13
-0.000538441
5.67256e-13
-0.000538396
2.77945e-13
-0.000538349
-1.72003e-14
-0.000538299
-2.50765e-13
-0.000538246
-3.74884e-13
-0.00053819
-3.73139e-13
-0.000538135
-2.53291e-13
-0.000538083
-5.42759e-14
-0.000538035
1.70894e-13
-0.000537993
3.59285e-13
-0.000537959
4.16251e-13
-0.00053793
1.10888e-13
-4.9655e-13
-0.000538944
-0.000538909
-0.000538877
-0.000538845
-0.000538811
-0.000538771
-0.000538727
-0.000538678
-0.000538628
-0.000538578
-0.000538531
-0.000538485
-0.000538441
-0.000538396
-0.000538349
-0.000538299
-0.000538246
-0.00053819
-0.000538135
-0.000538083
-0.000538035
-0.000537993
-0.000537959
-0.00053793
-0.020231
1.41445e-06
-0.0198028
6.71997e-07
-0.0192582
7.28055e-07
-0.0186062
6.55227e-07
-0.0178563
5.93184e-07
-0.0170186
5.35706e-07
-0.0161032
4.82467e-07
-0.0151206
4.30848e-07
-0.0140816
3.751e-07
-0.0129973
3.05772e-07
-0.0118795
2.10991e-07
-0.0107411
7.9089e-08
-0.00959646
-9.34105e-08
-0.00846113
-2.92604e-07
-0.00735204
-4.95963e-07
-0.00628637
-6.69298e-07
-0.00528032
-7.85844e-07
-0.00434804
-8.38431e-07
-0.00350112
-8.40791e-07
-0.00274928
-8.17208e-07
-0.00210124
-7.8977e-07
-0.00156637
-7.63686e-07
-0.00115537
-7.2824e-07
-0.000879351
-6.32003e-07
-6.01948e-07
-0.020361
-3.66787e-08
-3.85787e-08
-0.0199318
-1.71203e-07
-1.78904e-07
-0.0193851
-1.62038e-07
-1.69862e-07
-0.01873
-1.39445e-07
-1.47712e-07
-0.0179764
-1.19922e-07
-1.28584e-07
-0.0171341
-1.01852e-07
-1.11026e-07
-0.0162135
-8.52485e-08
-9.50264e-08
-0.015225
-6.94772e-08
-7.9849e-08
-0.0141794
-5.29938e-08
-6.40484e-08
-0.013088
-3.31324e-08
-4.49734e-08
-0.0119626
-6.20853e-09
-1.88889e-08
-0.0108161
3.11434e-08
1.77241e-08
-0.00966294
7.95783e-08
6.5151e-08
-0.00851882
1.40035e-07
1.24525e-07
-0.00740089
2.02444e-07
1.85783e-07
-0.00632657
2.5689e-07
2.3907e-07
-0.00531232
2.94348e-07
2.75341e-07
-0.00437253
3.11741e-07
2.91651e-07
-0.00351895
3.13001e-07
2.91923e-07
-0.0027614
3.05527e-07
2.84014e-07
-0.00210868
2.96246e-07
2.74734e-07
-0.00157022
2.85098e-07
2.64976e-07
-0.00115682
2.65521e-07
2.47491e-07
-0.000879546
2.10189e-07
1.96491e-07
1.59592e-07
1.52708e-07
-0.0202097
6.97063e-07
-0.0197818
6.58361e-07
-0.0192376
6.33997e-07
-0.0185862
5.64879e-07
-0.017837
5.02962e-07
-0.0170001
4.45929e-07
-0.0160856
3.92974e-07
-0.015104
3.41075e-07
-0.0140661
2.83754e-07
-0.0129829
2.10775e-07
-0.0118664
1.09339e-07
-0.0107293
-3.09859e-08
-0.00958599
-2.1326e-07
-0.00845205
-4.23768e-07
-0.00734436
-6.35679e-07
-0.00628004
-8.12903e-07
-0.00527525
-9.28138e-07
-0.00434413
-9.75433e-07
-0.00349823
-9.70783e-07
-0.00274725
-9.40112e-07
-0.00209991
-9.05108e-07
-0.00156556
-8.69427e-07
-0.00115493
-8.10192e-07
-0.000879133
-6.72398e-07
-5.48093e-07
-0.0203321
5.76045e-09
-0.019903
2.6831e-09
-0.0193567
2.92656e-09
-0.0187023
2.83108e-09
-0.0179494
2.80657e-09
-0.0171081
2.69586e-09
-0.0161886
2.43766e-09
-0.0152014
2.1606e-09
-0.0141573
1.75825e-09
-0.0130674
1.20414e-09
-0.0119437
6.11184e-10
-0.0107991
-5.71188e-11
-0.00964781
-8.49826e-10
-0.00850568
-1.71801e-09
-0.00738975
-2.6845e-09
-0.00631739
-3.6688e-09
-0.00530501
-4.52605e-09
-0.00436693
-5.12337e-09
-0.00351488
-5.49218e-09
-0.00275864
-5.50259e-09
-0.00210699
-5.14522e-09
-0.00156936
-4.57683e-09
-0.00115651
-3.94659e-09
-0.000879528
-2.959e-09
-2.10414e-09
-0.0203321
-6.84624e-07
-0.019903
-6.52686e-07
-0.0193567
-6.27512e-07
-0.0187023
-5.58472e-07
-0.0179494
-4.9651e-07
-0.0171081
-4.3959e-07
-0.0161886
-3.86943e-07
-0.0152014
-3.354e-07
-0.0141573
-2.78639e-07
-0.0130675
-2.06424e-07
-0.0119438
-1.05827e-07
-0.0107991
3.36738e-08
-0.00964782
2.14847e-07
-0.00850569
4.24107e-07
-0.00738976
6.34619e-07
-0.0063174
8.10375e-07
-0.00530502
9.24239e-07
-0.00436694
9.70379e-07
-0.00351488
9.64661e-07
-0.00275864
9.33206e-07
-0.002107
8.97662e-07
-0.00156936
8.61708e-07
-0.00115651
8.02173e-07
-0.000879529
6.65499e-07
5.42316e-07
-0.0202098
3.42572e-08
-0.0197819
1.73884e-07
-0.0192377
1.64528e-07
-0.0185862
1.42173e-07
-0.017837
1.22987e-07
-0.0170001
1.05306e-07
-0.0160856
8.91447e-08
-0.015104
7.39124e-08
-0.0140661
5.80061e-08
-0.0129829
3.87768e-08
-0.0118664
1.25758e-08
-0.0107293
-2.40683e-08
-0.009586
-7.15524e-08
-0.00845206
-1.31162e-07
-0.00734437
-1.92794e-07
-0.00628004
-2.46601e-07
-0.00527526
-2.83586e-07
-0.00434413
-3.00782e-07
-0.00349823
-3.02281e-07
-0.00274725
-2.95567e-07
-0.00209991
-2.8746e-07
-0.00156556
-2.77986e-07
-0.00115493
-2.60521e-07
-0.000879131
-2.07107e-07
-1.57716e-07
-0.020361
-1.41391e-06
-4.36414e-08
-0.0199318
-6.71201e-07
-1.79617e-07
-0.0193851
-7.27266e-07
-1.70856e-07
-0.01873
-6.54441e-07
-1.48508e-07
-0.0179764
-5.92319e-07
-1.29249e-07
-0.0171341
-5.34803e-07
-1.11454e-07
-0.0162135
-4.8156e-07
-9.50794e-08
-0.015225
-4.29917e-07
-7.94772e-08
-0.0141794
-3.74211e-07
-6.30896e-08
-0.013088
-3.04967e-07
-4.3269e-08
-0.0119626
-2.10244e-07
-1.63443e-08
-0.0108161
-7.84569e-08
2.10045e-08
-0.00966294
9.3796e-08
6.97051e-08
-0.00851882
2.9263e-07
1.3055e-07
-0.00740089
4.95362e-07
1.93601e-07
-0.00632657
6.67781e-07
2.49058e-07
-0.00531232
7.83051e-07
2.87933e-07
-0.00437253
8.33854e-07
3.07288e-07
-0.00351895
8.33586e-07
3.11273e-07
-0.0027614
8.06456e-07
3.0747e-07
-0.00210868
7.74408e-07
3.02408e-07
-0.00157022
7.43694e-07
2.95661e-07
-0.00115682
7.03218e-07
2.79544e-07
-0.000879546
6.06789e-07
2.24948e-07
5.80263e-07
1.73645e-07
-0.020231
-0.0198028
-0.0192582
-0.0186062
-0.0178563
-0.0170186
-0.0161032
-0.0151206
-0.0140816
-0.0129973
-0.0118795
-0.0107411
-0.00959646
-0.00846113
-0.00735204
-0.00628637
-0.00528032
-0.00434804
-0.00350112
-0.00274928
-0.00210124
-0.00156637
-0.00115537
-0.000879351
-0.0203321
-6.88035e-07
-5.07443e-11
-0.019903
-6.47873e-07
-4.1582e-09
-0.0193567
-6.23112e-07
-4.16737e-09
-0.0187023
-5.53709e-07
-4.42833e-09
-0.0179494
-4.91415e-07
-4.78796e-09
-0.0171081
-4.34054e-07
-5.18386e-09
-0.0161886
-3.80873e-07
-5.59792e-09
-0.0152014
-3.2877e-07
-6.11902e-09
-0.0141573
-2.71361e-07
-6.69051e-09
-0.0130674
-1.98387e-07
-7.2964e-09
-0.0119437
-9.70069e-08
-8.06202e-09
-0.0107991
4.33396e-08
-8.63273e-09
-0.00964781
2.25517e-07
-9.80865e-09
-0.00850568
4.35903e-07
-1.10044e-08
-0.00738975
6.47741e-07
-1.23825e-08
-0.00631739
8.25066e-07
-1.40209e-08
-0.00530501
9.40936e-07
-1.6099e-08
-0.00436693
9.89636e-07
-1.86992e-08
-0.00351488
9.87462e-07
-2.18681e-08
-0.00275864
9.6045e-07
-2.54497e-08
-0.00210699
9.30527e-07
-2.93262e-08
-0.00156936
8.99779e-07
-3.1836e-08
-0.00115651
8.44207e-07
-3.24057e-08
-0.000879528
7.0559e-07
-2.85e-08
5.74288e-07
-2.08146e-08
-0.0202097
-0.0197818
-0.0192376
-0.0185862
-0.017837
-0.0170001
-0.0160856
-0.015104
-0.0140661
-0.0129829
-0.0118664
-0.0107293
-0.00958599
-0.00845205
-0.00734436
-0.00628004
-0.00527525
-0.00434413
-0.00349823
-0.00274725
-0.00209991
-0.00156556
-0.00115493
-0.000879133
-0.0202098
6.87809e-07
-0.0197819
6.56071e-07
-0.0192377
6.30923e-07
-0.0185862
5.61933e-07
-0.017837
5.00193e-07
-0.0170001
4.43429e-07
-0.0160856
3.90862e-07
-0.015104
3.39476e-07
-0.0140661
2.82792e-07
-0.0129829
2.1057e-07
-0.0118664
1.09998e-07
-0.0107293
-2.97518e-08
-0.009586
-2.10688e-07
-0.00845206
-4.19927e-07
-0.00734437
-6.30592e-07
-0.00628004
-8.06648e-07
-0.00527526
-9.20943e-07
-0.00434413
-9.67831e-07
-0.00349823
-9.63611e-07
-0.00274725
-9.3457e-07
-0.00209991
-9.02724e-07
-0.00156556
-8.71338e-07
-0.00115493
-8.16906e-07
-0.000879131
-6.8243e-07
-5.57333e-07
-0.0203321
-0.019903
-0.0193567
-0.0187023
-0.0179494
-0.0171081
-0.0161886
-0.0152014
-0.0141573
-0.0130675
-0.0119438
-0.0107991
-0.00964782
-0.00850569
-0.00738976
-0.0063174
-0.00530502
-0.00436694
-0.00351488
-0.00275864
-0.002107
-0.00156936
-0.00115651
-0.000879529
)
;

boundaryField
{
    outletCentralUnloaded
    {
        type            calculated;
        value           nonuniform List<scalar> 2(0.000538986 0.000538986);
    }
    inletCentralUnloaded
    {
        type            calculated;
        value           uniform -0.000540134;
    }
    outletFuelElement
    {
        type            calculated;
        value           nonuniform List<scalar> 
12
(
0.0205719
0.0207051
0.0205511
0.0206753
0.0206754
0.0205512
0.0207051
0.0205719
0.0206753
0.0205511
0.0205512
0.0206754
)
;
    }
    inletFuelElement
    {
        type            calculated;
        value           nonuniform List<scalar> 
12
(
-0.000722059
-0.00072206
-0.000722059
-0.000722059
-0.00072206
-0.000722059
-0.00072206
-0.000722059
-0.000722059
-0.000722059
-0.000722059
-0.00072206
)
;
    }
    defaultFaces
    {
        type            calculated;
        value           nonuniform List<scalar> 
450
(
2.80749e-23
-6.10709e-23
0
1.6771e-23
6.49441e-25
0
2.52122e-23
2.96245e-24
0
-3.70878e-23
-2.49116e-23
0
-1.81063e-23
-3.21086e-23
0
-2.84137e-23
-1.88322e-23
0
-3.11153e-23
-1.40089e-23
0
-2.79104e-23
-3.63182e-24
0
-2.53548e-23
-2.93508e-24
0
-1.97101e-23
-3.31992e-24
0
-1.592e-23
-2.3712e-24
0
-5.39503e-24
-2.67149e-24
0
6.01552e-24
3.87304e-24
0
1.90583e-23
4.44248e-24
0
3.47465e-23
8.40084e-24
0
4.87489e-23
1.0799e-23
0
3.89854e-23
-6.91816e-24
0
6.87524e-23
2.08866e-23
0
4.42403e-23
-1.72278e-23
0
-2.57799e-23
-3.96948e-23
0
-2.09375e-23
-1.23563e-23
0
3.67484e-23
-1.52605e-23
0
-1.49447e-23
1.056e-23
0
-3.03324e-23
-1.1133e-23
0
-2.0876e-23
-2.75831e-23
0
1.40397e-23
0
2.40681e-23
0
0
0
1.60454e-23
0
-4.01135e-24
0
8.0227e-24
0
1.2034e-23
0
1.00284e-23
0
-1.00284e-23
0
7.01986e-24
0
4.51277e-24
0
-1.00284e-24
0
-8.0227e-24
0
-2.00567e-23
0
-2.40681e-23
0
-3.20908e-23
0
3.20908e-23
0
-4.81362e-23
0
1.60454e-23
0
-1.60454e-23
0
-3.20908e-23
0
4.81362e-23
0
2.40681e-23
0
-8.0227e-24
0
-2.40681e-23
0
0
0
8.0227e-24
-1.60454e-23
8.0227e-24
0
-8.0227e-24
-8.0227e-24
8.0227e-24
-8.0227e-24
0
5.01419e-25
0
1.60454e-23
8.0227e-24
1.60454e-23
-3.20908e-23
1.60454e-23
-1.60454e-23
1.60454e-23
1.60454e-23
-3.20908e-23
0
0
0
0
0
0
0
0
0
0
0
0
0
0
0
0
0
0
0
0
0
0
0
0
0
0
0
0
-1.00284e-23
2.40681e-23
8.0227e-24
1.60454e-23
1.60454e-23
3.20908e-23
-1.60454e-23
-1.2034e-23
1.60454e-23
-1.2034e-23
-2.00567e-23
-4.01135e-24
-1.2034e-23
-1.60454e-23
-8.0227e-24
-8.0227e-24
1.40397e-23
-8.0227e-24
-6.01702e-24
-8.0227e-24
-2.00567e-24
0
1.00284e-24
1.00284e-24
6.01702e-24
6.01702e-24
1.2034e-23
8.0227e-24
2.40681e-23
2.40681e-23
2.40681e-23
2.40681e-23
-2.40681e-23
4.01135e-23
3.20908e-23
3.20908e-23
-6.41816e-23
4.81362e-23
-4.81362e-23
-1.60454e-23
-8.0227e-24
-3.20908e-23
-3.20908e-23
4.81362e-23
-2.40681e-23
-3.20908e-23
0
-2.40681e-23
-2.40681e-23
-4.01135e-24
1.21437e-23
0
3.20908e-23
4.3549e-24
0
0
1.80609e-23
0
-6.41816e-23
-5.93453e-23
0
1.60454e-23
1.88523e-23
0
0
-4.6119e-23
0
8.0227e-24
-4.24112e-23
0
8.0227e-24
-3.36022e-23
0
8.0227e-24
-1.36557e-23
0
-1.60454e-23
-2.70791e-23
0
4.01135e-24
-1.87859e-23
0
4.01135e-24
-7.41154e-24
0
1.00284e-24
7.78253e-24
-0
0
3.21811e-23
-0
-4.01135e-24
4.07772e-23
-0
-1.60454e-23
5.8904e-23
-0
-8.0227e-24
3.5221e-23
-0
-1.60454e-23
7.7195e-23
-0
0
3.83303e-23
-0
-1.60454e-23
-2.14539e-23
-0
1.60454e-23
-1.60816e-24
-0
1.60454e-23
3.48298e-23
-0
4.81362e-23
-2.03879e-23
-0
-1.60454e-23
-1.27373e-23
-0
8.0227e-24
-1.65147e-23
-0
8.0227e-24
0
0
-8.0227e-24
-8.0227e-24
0
-8.0227e-24
-8.0227e-24
-8.0227e-24
0
-4.01135e-24
-2.00567e-24
1.00284e-24
0
0
0
1.60454e-23
-3.20908e-23
0
-4.81362e-23
-1.60454e-23
-1.60454e-23
-4.81362e-23
-3.20908e-23
1.60454e-23
0
2.60738e-23
0
2.40681e-23
0
-1.60454e-23
0
2.40681e-23
0
-8.0227e-24
0
1.2034e-23
0
1.2034e-23
0
1.60454e-23
0
2.00567e-24
0
2.00567e-24
0
4.01135e-24
0
-1.00284e-24
-0
-6.01702e-24
-0
-1.2034e-23
-0
-8.0227e-24
-0
-3.20908e-23
-0
4.01135e-23
-0
-1.60454e-23
-0
4.81362e-23
-0
-4.81362e-23
-0
-3.20908e-23
-0
3.20908e-23
-0
8.0227e-24
-0
-3.20908e-23
-0
-2.40681e-23
-0
-1.80511e-23
1.60454e-23
-8.0227e-24
1.60454e-23
-1.60454e-23
2.40681e-23
-1.60454e-23
-4.41248e-23
4.01135e-24
8.0227e-24
-8.0227e-24
-3.20908e-23
-1.60454e-23
-2.40681e-23
-4.01135e-24
-2.80794e-23
4.01135e-24
-1.2034e-23
-4.01135e-24
-1.40397e-23
-4.01135e-24
-8.0227e-24
5.01419e-25
3.99176e-24
0
1.80511e-23
4.01135e-24
4.01135e-23
8.0227e-24
5.21475e-23
1.60454e-23
6.41816e-23
0
5.61589e-23
1.60454e-23
8.0227e-23
-1.60454e-23
4.81362e-23
0
-2.40681e-23
0
-1.60454e-23
8.0227e-24
4.01135e-23
2.40681e-23
-2.40681e-23
8.0227e-24
-2.40681e-23
0
-1.60454e-23
-0
-0
-0
-0
-0
-0
-0
-0
-0
-0
-0
0
0
0
0
0
0
0
0
0
0
0
0
0
0
)
;
    }
    baffle_master
    {
        type            calculated;
        value           nonuniform List<scalar> 
150
(
9.66212e-32
0
0
4.93989e-31
0
0
4.82215e-30
0
5.72334e-30
4.92732e-30
0
-5.72334e-30
-2.91861e-29
0
-1.717e-29
5.43122e-30
0
-5.72334e-30
-3.02243e-31
0
0
-2.69242e-30
0
0
-1.0268e-29
0
1.14467e-29
-5.72736e-30
0
-1.14467e-29
3.40334e-30
0
1.14467e-29
-4.81977e-30
0
0
1.98351e-31
0
0
-1.14914e-30
0
5.72334e-30
2.02212e-31
0
0
3.49003e-30
0
-5.72334e-30
3.99743e-29
0
2.28934e-29
-2.73284e-30
0
0
1.73331e-29
0
1.14467e-29
-1.28372e-31
0
0
1.27273e-30
0
-2.86167e-30
2.19643e-29
0
1.717e-29
2.44853e-30
0
0
-9.20046e-31
0
1.43084e-30
2.59068e-30
0
0
5.72334e-30
-1.54495e-29
0
5.72334e-30
-1.17565e-29
0
0
-1.71364e-29
0
5.72334e-30
-2.32517e-29
0
0
8.64037e-30
0
0
-1.57754e-29
0
2.86167e-30
-7.58487e-30
0
-2.86167e-30
8.75437e-30
-0
0
1.38356e-29
-0
-1.14467e-29
3.54788e-29
-0
0
2.8383e-29
-0
-1.14467e-29
2.82361e-29
-0
-1.14467e-29
3.22163e-29
-0
-5.72334e-30
7.33342e-30
-0
0
-5.76198e-31
0
5.72334e-30
-1.13862e-29
0
-1.717e-29
-1.17831e-29
0
-5.72334e-30
-1.64394e-29
0
0
1.85499e-30
0
-7.15418e-31
1.56651e-30
0
-2.86167e-30
-5.20758e-30
-0
1.14467e-29
-1.91172e-29
-0
1.14467e-29
9.35792e-30
-0
0
-4.44766e-30
-0
0
7.91328e-30
0
)
;
    }
    baffle_slave
    {
        type            calculated;
        value           nonuniform List<scalar> 
150
(
3.3219e-24
-0
0
2.50709e-24
-0
0
7.01986e-24
-0
0
3.25922e-24
-0
0
-3.13387e-23
-0
-1.60454e-23
-6.51844e-24
-0
0
2.00567e-24
-0
-8.0227e-24
-3.50993e-24
-0
0
4.51277e-24
-0
-4.01135e-24
1.00284e-24
-0
4.01135e-24
1.00284e-24
-0
-2.00567e-24
0
0
0
5.01419e-25
0
0
1.50426e-24
0
0
3.00851e-24
0
0
3.50993e-24
0
0
-5.31504e-23
0
-8.0227e-23
1.00284e-24
0
-1.60454e-23
-3.40965e-23
0
-3.20908e-23
-4.01135e-24
0
-1.60454e-23
-7.01986e-24
0
0
3.30936e-23
0
1.60454e-23
-1.00284e-24
0
1.60454e-23
5.01419e-25
0
-1.60454e-23
-6.01702e-24
0
-8.0227e-24
-1.33695e-23
4.21192e-23
0
-1.67434e-23
1.40397e-23
0
-4.20101e-24
1.88032e-23
0
-1.39658e-23
1.40397e-23
0
6.20249e-24
-2.88316e-23
0
-1.56943e-23
1.83018e-23
0
-3.83027e-24
1.72989e-23
0
-7.9517e-24
1.60454e-23
0
1.32445e-23
1.3789e-23
0
-3.52831e-24
1.12819e-23
0
-5.4263e-24
7.01986e-24
0
-2.07944e-25
4.01135e-24
0
3.22467e-24
-8.14805e-25
0
6.50758e-24
-6.73781e-24
0
1.38977e-23
-1.34443e-23
0
2.788e-25
-1.61708e-23
0
-3.07157e-23
-1.96807e-23
0
-3.40376e-24
-2.10596e-23
0
-3.55425e-24
-3.25922e-24
0
1.94016e-23
1.2034e-23
0
-1.19794e-23
1.60454e-23
0
-4.88133e-23
2.1561e-23
0
-4.75973e-23
-1.60454e-23
0
-4.10005e-24
8.0227e-24
0
5.45336e-24
6.51844e-24
0
)
;
    }
}


// ************************************************************************* //
