/*--------------------------------*- C++ -*----------------------------------*\
| =========                 |                                                 |
| \\      /  F ield         | OpenFOAM: The Open Source CFD Toolbox           |
|  \\    /   O peration     | Version:  2212                                  |
|   \\  /    A nd           | Website:  www.openfoam.com                      |
|    \\/     M anipulation  |                                                 |
\*---------------------------------------------------------------------------*/
FoamFile
{
    version     2.0;
    format      ascii;
    arch        "LSB;label=32;scalar=64";
    class       volScalarField;
    location    "73/fluidRegion";
    object      Tcav.nuclearFuelPin;
}
// * * * * * * * * * * * * * * * * * * * * * * * * * * * * * * * * * * * * * //

dimensions      [0 0 0 1 0 0 0];

internalField   nonuniform List<scalar> 
350
(
0
0
0
0
0
0
0
0
0
0
0
0
0
0
0
0
0
0
0
0
0
0
0
0
0
0
0
0
0
0
0
0
0
0
0
0
0
0
0
0
0
0
0
0
0
0
0
0
0
0
1845.85
1883.93
1909.07
1921.27
1920.64
1907.46
1882.17
1845.31
1797.61
1739.91
1673.19
1598.54
1517.2
1430.49
1339.86
1246.77
1152.6
1058.42
964.641
870.424
772.858
665.649
538.043
377.925
186.899
1874.3
1913
1938.53
1950.88
1950.19
1936.72
1910.91
1873.34
1824.73
1765.93
1697.95
1621.89
1539
1450.64
1358.25
1263.35
1167.36
1071.41
975.949
880.201
781.246
672.706
543.612
381.544
188.122
1841.23
1879.23
1904.33
1916.52
1915.92
1902.81
1877.61
1840.88
1793.34
1735.83
1669.32
1594.91
1513.81
1427.38
1337.02
1244.22
1150.34
1056.44
962.918
868.94
771.594
664.596
537.224
377.398
186.713
1867.9
1906.44
1931.87
1944.17
1943.48
1930.06
1904.36
1866.94
1818.52
1759.97
1692.27
1616.53
1533.99
1446
1354.01
1259.52
1163.95
1068.41
973.334
877.94
779.305
671.072
542.321
380.704
187.839
1867.9
1906.44
1931.87
1944.17
1943.48
1930.06
1904.36
1866.94
1818.52
1759.97
1692.27
1616.53
1533.99
1446
1354.01
1259.52
1163.95
1068.41
973.334
877.94
779.305
671.072
542.321
380.704
187.839
1841.23
1879.23
1904.33
1916.52
1915.92
1902.81
1877.61
1840.88
1793.34
1735.83
1669.32
1594.91
1513.81
1427.38
1337.02
1244.22
1150.34
1056.44
962.919
868.941
771.594
664.597
537.225
377.398
186.713
1874.3
1913
1938.53
1950.88
1950.19
1936.72
1910.91
1873.34
1824.73
1765.93
1697.95
1621.89
1539
1450.64
1358.25
1263.35
1167.36
1071.41
975.949
880.201
781.246
672.706
543.612
381.544
188.122
1845.85
1883.93
1909.07
1921.27
1920.64
1907.46
1882.17
1845.31
1797.61
1739.91
1673.19
1598.54
1517.2
1430.49
1339.86
1246.77
1152.6
1058.42
964.641
870.424
772.858
665.649
538.044
377.925
186.899
1867.9
1906.44
1931.87
1944.17
1943.48
1930.06
1904.36
1866.94
1818.52
1759.97
1692.27
1616.53
1533.99
1446
1354.01
1259.52
1163.95
1068.41
973.334
877.94
779.305
671.072
542.321
380.704
187.839
1841.23
1879.23
1904.33
1916.52
1915.92
1902.81
1877.61
1840.88
1793.34
1735.83
1669.32
1594.91
1513.81
1427.38
1337.02
1244.22
1150.34
1056.44
962.918
868.94
771.594
664.596
537.224
377.398
186.713
1841.23
1879.23
1904.33
1916.52
1915.92
1902.81
1877.61
1840.88
1793.34
1735.83
1669.32
1594.91
1513.81
1427.38
1337.02
1244.22
1150.34
1056.44
962.918
868.941
771.594
664.597
537.225
377.398
186.713
1867.9
1906.44
1931.87
1944.17
1943.48
1930.06
1904.36
1866.94
1818.52
1759.97
1692.27
1616.53
1533.99
1446
1354.01
1259.52
1163.95
1068.41
973.334
877.94
779.305
671.072
542.321
380.704
187.839
)
;

boundaryField
{
    outletCentralUnloaded
    {
        type            zeroGradient;
    }
    inletCentralUnloaded
    {
        type            zeroGradient;
    }
    outletFuelElement
    {
        type            zeroGradient;
    }
    inletFuelElement
    {
        type            zeroGradient;
    }
    defaultFaces
    {
        type            zeroGradient;
    }
    baffle_master
    {
        type            zeroGradient;
    }
    baffle_slave
    {
        type            zeroGradient;
    }
}


// ************************************************************************* //
