/*--------------------------------*- C++ -*----------------------------------*\
| =========                 |                                                 |
| \\      /  F ield         | OpenFOAM: The Open Source CFD Toolbox           |
|  \\    /   O peration     | Version:  2212                                  |
|   \\  /    A nd           | Website:  www.openfoam.com                      |
|    \\/     M anipulation  |                                                 |
\*---------------------------------------------------------------------------*/
FoamFile
{
    version     2.0;
    format      ascii;
    arch        "LSB;label=32;scalar=64";
    class       volScalarField;
    location    "73/fluidRegion";
    object      Tfi.nuclearFuelPin;
}
// * * * * * * * * * * * * * * * * * * * * * * * * * * * * * * * * * * * * * //

dimensions      [0 0 0 1 0 0 0];

internalField   nonuniform List<scalar> 
350
(
0
0
0
0
0
0
0
0
0
0
0
0
0
0
0
0
0
0
0
0
0
0
0
0
0
0
0
0
0
0
0
0
0
0
0
0
0
0
0
0
0
0
0
0
0
0
0
0
0
0
2425.31
3613.72
4761.91
5852.15
6867.58
7792.44
8612.35
9314.57
9888.15
10324.1
10615.7
10758.3
10749.8
10590.3
10282.4
9831.05
9243.23
8527.8
7694.93
6755.55
5719.97
4596.76
3391.08
2107.91
766.643
2460.4
3662.61
4824.04
5926.79
6953.79
7889.1
8718.19
9428.16
10007.9
10448.5
10742.9
10886.6
10877.4
10715.4
10403.2
9945.96
9350.66
8626.34
7783.33
6832.74
5785.02
4648.85
3429.33
2131.35
774.507
2419.63
3605.87
4751.96
5840.23
6853.84
7777.05
8595.52
9296.52
9869.12
10304.4
10595.5
10738
10729.6
10570.5
10263.3
9812.84
9226.21
8512.19
7680.93
6743.33
5709.68
4588.54
3385.06
2104.23
765.4
2452.47
3651.49
4809.86
5909.72
6934.04
7866.93
8693.89
9402.06
9980.4
10419.9
10713.6
10857.1
10848
10686.6
10375.4
9919.5
9325.92
8603.64
7762.97
6814.96
5770.04
4636.85
3420.52
2125.95
772.695
2452.47
3651.49
4809.86
5909.72
6934.04
7866.93
8693.89
9402.06
9980.4
10419.9
10713.6
10857.1
10848
10686.6
10375.4
9919.5
9325.92
8603.64
7762.97
6814.96
5770.04
4636.85
3420.52
2125.95
772.696
2419.63
3605.87
4751.97
5840.24
6853.84
7777.05
8595.52
9296.52
9869.12
10304.4
10595.5
10738
10729.6
10570.5
10263.3
9812.85
9226.21
8512.19
7680.93
6743.33
5709.68
4588.54
3385.06
2104.23
765.4
2460.4
3662.6
4824.04
5926.79
6953.79
7889.1
8718.19
9428.16
10007.9
10448.5
10742.9
10886.6
10877.4
10715.4
10403.2
9945.96
9350.66
8626.34
7783.33
6832.74
5785.02
4648.85
3429.34
2131.35
774.507
2425.31
3613.72
4761.91
5852.15
6867.58
7792.44
8612.35
9314.57
9888.15
10324.1
10615.7
10758.3
10749.8
10590.3
10282.4
9831.05
9243.23
8527.8
7694.93
6755.55
5719.97
4596.76
3391.09
2107.91
766.643
2452.47
3651.49
4809.86
5909.72
6934.04
7866.93
8693.89
9402.06
9980.4
10419.9
10713.6
10857.1
10848
10686.6
10375.4
9919.5
9325.92
8603.64
7762.97
6814.96
5770.04
4636.85
3420.52
2125.95
772.696
2419.63
3605.87
4751.96
5840.24
6853.84
7777.05
8595.52
9296.52
9869.12
10304.4
10595.5
10738
10729.6
10570.5
10263.3
9812.84
9226.21
8512.19
7680.93
6743.33
5709.68
4588.54
3385.06
2104.23
765.4
2419.63
3605.87
4751.97
5840.24
6853.84
7777.05
8595.52
9296.52
9869.12
10304.4
10595.5
10738
10729.6
10570.5
10263.3
9812.84
9226.21
8512.19
7680.93
6743.33
5709.68
4588.54
3385.06
2104.23
765.4
2452.47
3651.49
4809.86
5909.72
6934.04
7866.93
8693.89
9402.06
9980.4
10419.9
10713.6
10857.1
10848
10686.6
10375.4
9919.5
9325.92
8603.64
7762.97
6814.96
5770.04
4636.85
3420.52
2125.95
772.695
)
;

boundaryField
{
    outletCentralUnloaded
    {
        type            zeroGradient;
    }
    inletCentralUnloaded
    {
        type            zeroGradient;
    }
    outletFuelElement
    {
        type            zeroGradient;
    }
    inletFuelElement
    {
        type            zeroGradient;
    }
    defaultFaces
    {
        type            zeroGradient;
    }
    baffle_master
    {
        type            zeroGradient;
    }
    baffle_slave
    {
        type            zeroGradient;
    }
}


// ************************************************************************* //
