/*--------------------------------*- C++ -*----------------------------------*\
| =========                 |                                                 |
| \\      /  F ield         | OpenFOAM: The Open Source CFD Toolbox           |
|  \\    /   O peration     | Version:  2212                                  |
|   \\  /    A nd           | Website:  www.openfoam.com                      |
|    \\/     M anipulation  |                                                 |
\*---------------------------------------------------------------------------*/
FoamFile
{
    version     2.0;
    format      ascii;
    arch        "LSB;label=32;scalar=64";
    class       volScalarField;
    location    "73/fluidRegion";
    object      Tfo.nuclearFuelPin;
}
// * * * * * * * * * * * * * * * * * * * * * * * * * * * * * * * * * * * * * //

dimensions      [0 0 0 1 0 0 0];

internalField   nonuniform List<scalar> 
350
(
0
0
0
0
0
0
0
0
0
0
0
0
0
0
0
0
0
0
0
0
0
0
0
0
0
0
0
0
0
0
0
0
0
0
0
0
0
0
0
0
0
0
0
0
0
0
0
0
0
0
2022.74
2411.95
2779.9
3121.16
3430.68
3703.83
3936.53
4125.28
4267.22
4360.21
4402.86
4394.53
4335.41
4226.49
4069.54
3867.08
3622.23
3338.42
3019.03
2666.83
2282.94
1865.6
1408.92
905.996
363.862
2053.22
2447.07
2819.33
3164.52
3477.52
3753.67
3988.81
4179.42
4322.62
4416.24
4458.88
4449.9
4389.5
4278.66
4119.2
3913.68
3665.27
3377.52
3053.87
2697.19
2308.63
1886.41
1424.47
915.664
367.112
2017.8
2406.29
2773.57
3114.22
3423.21
3695.9
3928.23
4116.69
4258.44
4351.35
4394.01
4385.79
4326.88
4218.27
4061.72
3859.75
3615.46
3332.27
3013.56
2662.07
2278.92
1862.36
1406.51
904.506
363.353
2046.36
2439.12
2810.37
3154.65
3466.83
3742.27
3976.84
4167.01
4309.91
4403.37
4446
4437.17
4377.05
4266.64
4107.76
3902.94
3655.35
3368.5
3045.84
2690.19
2302.7
1881.61
1420.88
913.432
366.363
2046.36
2439.12
2810.37
3154.65
3466.83
3742.27
3976.84
4167.01
4309.91
4403.37
4446
4437.17
4377.05
4266.64
4107.76
3902.94
3655.35
3368.5
3045.84
2690.19
2302.7
1881.61
1420.88
913.431
366.363
2017.8
2406.29
2773.57
3114.23
3423.21
3695.9
3928.23
4116.69
4258.44
4351.35
4394.01
4385.79
4326.89
4218.27
4061.72
3859.75
3615.46
3332.27
3013.56
2662.07
2278.92
1862.36
1406.52
904.506
363.353
2053.22
2447.07
2819.33
3164.52
3477.52
3753.67
3988.81
4179.42
4322.62
4416.24
4458.88
4449.9
4389.5
4278.66
4119.2
3913.68
3665.27
3377.52
3053.87
2697.19
2308.63
1886.41
1424.47
915.664
367.112
2022.74
2411.95
2779.9
3121.16
3430.68
3703.83
3936.53
4125.28
4267.22
4360.21
4402.85
4394.53
4335.41
4226.49
4069.54
3867.08
3622.23
3338.42
3019.03
2666.83
2282.94
1865.6
1408.92
905.996
363.862
2046.36
2439.12
2810.37
3154.65
3466.83
3742.27
3976.84
4167.01
4309.91
4403.37
4446
4437.17
4377.05
4266.64
4107.76
3902.94
3655.35
3368.5
3045.84
2690.19
2302.7
1881.61
1420.88
913.432
366.363
2017.8
2406.29
2773.57
3114.23
3423.21
3695.9
3928.23
4116.69
4258.44
4351.35
4394.01
4385.79
4326.88
4218.27
4061.72
3859.75
3615.46
3332.27
3013.56
2662.07
2278.92
1862.36
1406.51
904.505
363.353
2017.8
2406.29
2773.57
3114.23
3423.21
3695.9
3928.23
4116.69
4258.44
4351.35
4394.01
4385.79
4326.89
4218.27
4061.72
3859.75
3615.46
3332.27
3013.56
2662.07
2278.92
1862.36
1406.52
904.506
363.353
2046.36
2439.12
2810.37
3154.65
3466.83
3742.27
3976.84
4167.01
4309.9
4403.37
4446
4437.17
4377.05
4266.64
4107.76
3902.94
3655.35
3368.5
3045.84
2690.19
2302.7
1881.61
1420.88
913.431
366.363
)
;

boundaryField
{
    outletCentralUnloaded
    {
        type            zeroGradient;
    }
    inletCentralUnloaded
    {
        type            zeroGradient;
    }
    outletFuelElement
    {
        type            zeroGradient;
    }
    inletFuelElement
    {
        type            zeroGradient;
    }
    defaultFaces
    {
        type            zeroGradient;
    }
    baffle_master
    {
        type            zeroGradient;
    }
    baffle_slave
    {
        type            zeroGradient;
    }
}


// ************************************************************************* //
