/*--------------------------------*- C++ -*----------------------------------*\
| =========                 |                                                 |
| \\      /  F ield         | OpenFOAM: The Open Source CFD Toolbox           |
|  \\    /   O peration     | Version:  2212                                  |
|   \\  /    A nd           | Website:  www.openfoam.com                      |
|    \\/     M anipulation  |                                                 |
\*---------------------------------------------------------------------------*/
FoamFile
{
    version     2.0;
    format      ascii;
    arch        "LSB;label=32;scalar=64";
    class       scalarFieldField;
    location    "73/fluidRegion";
    object      Trad.nuclearFuelPin;
}
// * * * * * * * * * * * * * * * * * * * * * * * * * * * * * * * * * * * * * //


350
(
0()
0()
0()
0()
0()
0()
0()
0()
0()
0()
0()
0()
0()
0()
0()
0()
0()
0()
0()
0()
0()
0()
0()
0()
0()
0()
0()
0()
0()
0()
0()
0()
0()
0()
0()
0()
0()
0()
0()
0()
0()
0()
0()
0()
0()
0()
0()
0()
0()
0()

20
(
2425.31
2423.52
2418.16
2409.21
2396.69
2380.59
2360.91
2337.65
2310.81
2280.4
2246.4
2208.83
2167.68
2122.94
2074.63
2022.74
1851.96
1847.89
1843.96
1840.14
)


20
(
3613.72
3608.38
3592.36
3565.66
3528.27
3480.2
3421.45
3352.01
3271.9
3181.1
3079.62
2967.45
2844.6
2711.07
2566.85
2411.95
1902.17
1890.03
1878.28
1866.9
)


20
(
4761.91
4753.1
4726.67
4682.63
4620.97
4541.69
4444.79
4330.28
4198.15
4048.4
3881.03
3696.04
3493.43
3273.21
3035.36
2779.9
1939.15
1919.13
1899.75
1880.99
)


20
(
5852.15
5840.02
5803.6
5742.92
5657.95
5548.71
5415.2
5257.41
5075.35
4869.01
4638.39
4383.5
4104.33
3800.88
3473.16
3121.16
1962.72
1935.12
1908.43
1882.57
)


20
(
6867.58
6852.3
6806.48
6730.1
6623.18
6485.71
6317.68
6119.11
5889.98
5630.31
5340.08
5019.3
4667.97
4286.09
3873.66
3430.68
1972.8
1938.08
1904.48
1871.94
)


20
(
7792.44
7774.27
7719.75
7628.89
7501.69
7338.15
7138.27
6902.04
6629.46
6320.55
5975.29
5593.69
5175.74
4721.45
4230.81
3703.83
1969.52
1928.21
1888.24
1849.54
)


20
(
8612.35
8591.57
8529.23
8425.32
8279.85
8092.82
7864.23
7594.07
7282.35
6929.07
6534.22
6097.81
5619.84
5100.3
4539.2
3936.53
1953.14
1905.89
1860.18
1815.92
)


20
(
9314.57
9291.51
9222.32
9107
8945.56
8737.99
8484.29
8184.46
7838.51
7446.43
7008.23
6523.89
5993.43
5416.84
4794.12
4125.28
1924.07
1871.64
1820.91
1771.79
)


20
(
9888.15
9863.17
9788.22
9663.31
9488.44
9263.6
8988.8
8664.04
8289.31
7864.62
7389.96
6865.34
6290.76
5666.21
4991.7
4267.22
1882.93
1826.13
1771.18
1717.97
)


20
(
10324.1
10297.6
10218.1
10085.6
9900.03
9661.47
9369.91
9025.33
8627.73
8177.13
7673.51
7116.87
6507.23
5844.57
5128.9
4360.21
1830.43
1770.17
1711.87
1655.41
)


20
(
10615.7
10588.1
10505.3
10367.2
10173.9
9925.39
9621.65
9262.69
8848.5
8379.09
7854.45
7274.58
6639.49
5949.17
5203.63
4402.86
1767.49
1704.71
1643.98
1585.16
)


20
(
10758.3
10730
10645.2
10503.8
10305.8
10051.2
9740.13
9372.44
8948.19
8467.37
7929.98
7336.03
6685.51
5978.41
5214.76
4394.53
1695.13
1630.83
1568.62
1508.38
)


20
(
10749.8
10721.3
10635.8
10493.2
10293.7
10037.1
9723.5
9352.89
8925.27
8440.63
7898.97
7300.29
6644.6
5931.89
5162.16
4335.41
1614.56
1549.74
1487.04
1426.32
)


20
(
10590.3
10562
10477.2
10335.8
10137.8
9883.22
9572.1
9204.41
8780.16
8299.34
7761.95
7167.99
6517.47
5810.37
5046.71
4226.49
1527.08
1462.78
1400.57
1340.33
)


20
(
10282.4
10254.8
10172
10033.9
9840.62
9592.1
9288.36
8929.4
8515.21
8045.79
7521.15
6941.28
6306.18
5615.86
4870.31
4069.54
1434.16
1371.38
1310.65
1251.83
)


20
(
9831.05
9804.54
9725.03
9592.49
9406.95
9168.39
8876.82
8532.24
8134.64
7684.03
7180.4
6623.77
6014.12
5351.45
4635.77
3867.08
1337.29
1277.02
1218.73
1162.27
)


20
(
9243.23
9218.24
9143.3
9018.39
8843.51
8618.67
8343.87
8019.1
7644.37
7219.67
6745.01
6220.38
5645.79
5021.23
4346.71
3622.23
1237.91
1181.12
1126.17
1072.96
)


20
(
8527.8
8504.73
8435.54
8320.22
8158.78
7951.2
7697.5
7397.67
7051.71
6659.62
6221.41
5737.07
5206.6
4630
4007.27
3338.42
1137.19
1084.75
1034.03
984.899
)


20
(
7694.93
7674.15
7611.8
7507.89
7362.42
7175.39
6946.79
6676.62
6364.9
6011.61
5616.76
5180.34
4702.36
4182.81
3621.7
3019.03
1035.61
988.364
942.656
898.39
)


20
(
6755.55
6737.38
6682.86
6592
6464.79
6301.25
6101.35
5865.12
5592.54
5283.61
4938.34
4556.73
4138.77
3684.47
3193.82
2666.83
932.482
891.168
851.2
812.493
)


20
(
5719.97
5704.69
5658.87
5582.49
5475.56
5338.08
5170.05
4971.46
4742.33
4482.64
4192.4
3871.61
3520.27
3138.38
2725.94
2282.94
825.025
790.296
756.698
724.161
)


20
(
4596.76
4584.62
4548.21
4487.52
4402.55
4293.3
4159.78
4001.98
3819.9
3613.55
3382.92
3128.01
2848.82
2545.36
2217.62
1865.6
707.102
679.505
652.808
626.953
)


20
(
3391.08
3382.28
3355.85
3311.8
3250.13
3170.85
3073.94
2959.42
2827.27
2677.51
2510.13
2325.12
2122.5
1902.26
1664.4
1408.92
568.128
548.1
528.724
509.959
)


20
(
2107.91
2102.57
2086.55
2059.84
2022.44
1974.37
1915.61
1846.16
1766.03
1675.22
1573.73
1461.55
1338.69
1205.14
1060.91
905.996
396.168
384.023
372.274
360.896
)


20
(
766.643
764.853
759.483
750.532
738.001
721.89
702.198
678.926
652.074
621.642
587.629
550.036
508.863
464.11
415.776
363.862
193.012
188.942
185.005
181.192
)


20
(
2460.4
2458.59
2453.16
2444.12
2431.45
2415.16
2395.26
2371.73
2344.59
2313.83
2279.44
2241.44
2199.82
2154.57
2105.71
2053.22
1880.48
1876.37
1872.39
1868.53
)


20
(
3662.61
3657.2
3641
3613.99
3576.17
3527.55
3468.13
3397.9
3316.86
3225.02
3122.38
3008.93
2884.67
2749.61
2603.75
2447.07
1931.45
1919.17
1907.29
1895.78
)


20
(
4824.04
4815.13
4788.4
4743.86
4681.49
4601.3
4503.29
4387.47
4253.82
4102.36
3933.07
3745.96
3541.04
3318.29
3077.72
2819.33
1968.96
1948.7
1929.1
1910.12
)


20
(
5926.79
5914.52
5877.69
5816.3
5730.37
5619.88
5484.84
5325.24
5141.09
4932.39
4699.13
4441.32
4158.95
3852.03
3520.55
3164.52
1992.81
1964.9
1937.89
1911.74
)


20
(
6953.79
6938.34
6891.99
6814.74
6706.59
6567.54
6397.59
6196.74
5964.99
5702.34
5408.79
5084.34
4728.99
4342.74
3925.58
3477.52
2002.95
1967.82
1933.84
1900.93
)


20
(
7889.1
7870.72
7815.58
7723.68
7595.03
7429.61
7227.44
6988.5
6712.81
6400.35
6051.14
5665.17
5242.43
4782.94
4286.68
3753.67
1999.49
1957.7
1917.28
1878.13
)


20
(
8718.19
8697.17
8634.11
8529.02
8381.88
8192.71
7961.49
7688.24
7372.95
7015.62
6616.25
6174.84
5691.4
5165.91
4598.38
3988.81
1982.69
1934.9
1888.67
1843.9
)


20
(
9428.16
9404.83
9334.85
9218.21
9054.92
8844.97
8588.36
8285.11
7935.19
7538.62
7095.39
6605.51
6068.97
5485.78
4855.93
4179.42
1953
1899.97
1848.66
1798.97
)


20
(
10007.9
9982.67
9906.87
9780.53
9603.65
9376.24
9098.29
8769.81
8390.79
7961.23
7481.14
6950.51
6369.34
5737.64
5055.4
4322.62
1911.02
1853.57
1797.99
1744.17
)


20
(
10448.5
10421.7
10341.2
10207.2
10019.5
9778.23
9483.33
9134.8
8732.65
8276.88
7767.49
7204.49
6587.86
5917.61
5193.74
4416.24
1857.49
1796.54
1737.57
1680.46
)


20
(
10742.9
10715
10631.2
10491.5
10296
10044.7
9737.46
9374.39
8955.45
8480.66
7950.01
7363.5
6721.14
6022.91
5268.83
4458.88
1793.33
1729.83
1668.4
1608.91
)


20
(
10886.6
10858
10772.2
10629.1
10428.9
10171.4
9856.73
9484.84
9055.73
8569.4
8025.86
7425.1
6767.12
6051.93
5279.53
4449.9
1719.59
1654.55
1591.63
1530.69
)


20
(
10877.4
10848.5
10762
10617.8
10416
10156.5
9839.31
9464.45
9031.93
8541.74
7993.87
7388.34
6725.13
6004.26
5225.71
4389.5
1637.47
1571.92
1508.5
1447.08
)


20
(
10715.4
10686.8
10600.9
10457.9
10257.7
10000.2
9685.5
9313.6
8884.49
8398.16
7854.62
7253.86
6595.88
5880.69
5108.28
4278.66
1548.33
1483.29
1420.37
1359.44
)


20
(
10403.2
10375.3
10291.5
10151.9
9956.38
9705.02
9397.8
9034.73
8615.79
8141
7610.34
7023.83
6381.46
5683.23
4929.14
4119.2
1453.63
1390.13
1328.7
1269.21
)


20
(
9945.96
9919.15
9838.72
9704.67
9517
9275.71
8980.8
8632.27
8230.12
7774.35
7264.95
6701.94
6085.31
5415.05
4691.17
3913.68
1354.9
1293.95
1234.98
1177.88
)


20
(
9350.66
9325.39
9249.59
9123.25
8946.37
8718.95
8441
8112.51
7733.49
7303.93
6823.83
6293.19
5712.02
5080.31
4398.06
3665.27
1253.65
1196.2
1140.63
1086.8
)


20
(
8626.34
8603.01
8533.03
8416.39
8253.09
8043.14
7786.53
7483.27
7133.35
6736.77
6293.53
5803.64
5267.1
4683.89
4054.03
3377.52
1151.07
1098.04
1046.73
997.038
)


20
(
7783.33
7762.31
7699.25
7594.15
7447.02
7257.84
7026.62
6753.36
6438.07
6080.73
5681.35
5239.94
4756.48
4230.99
3663.45
3053.87
1047.73
999.943
953.712
908.939
)


20
(
6832.74
6814.36
6759.22
6667.32
6538.66
6373.23
6171.05
5932.11
5656.41
5343.94
4994.72
4608.73
4185.99
3726.48
3230.21
2697.19
942.97
901.183
860.757
821.607
)


20
(
5785.02
5769.57
5723.22
5645.97
5537.81
5398.76
5228.8
5027.94
4796.19
4533.52
4239.96
3915.5
3560.13
3173.87
2756.7
2308.63
834.011
798.884
764.901
731.991
)


20
(
4648.85
4636.57
4599.74
4538.35
4452.41
4341.91
4206.86
4047.25
3863.09
3654.37
3421.1
3163.27
2880.89
2573.95
2242.46
1886.41
714.634
686.721
659.718
633.566
)


20
(
3429.33
3420.42
3393.69
3349.14
3286.77
3206.57
3108.56
2992.72
2859.06
2707.58
2538.28
2351.16
2146.22
1923.46
1682.87
1424.47
574.041
553.783
534.185
515.206
)


20
(
2131.35
2125.94
2109.74
2082.72
2044.9
1996.27
1936.84
1866.6
1785.55
1693.7
1591.04
1477.58
1353.31
1218.23
1072.35
915.664
399.996
387.712
375.828
364.32
)


20
(
774.507
772.696
767.264
758.211
745.537
729.241
709.324
685.785
658.625
627.844
593.442
555.419
513.774
468.508
419.621
367.112
194.305
190.189
186.206
182.35
)


20
(
2419.63
2417.85
2412.49
2403.56
2391.06
2374.99
2355.35
2332.13
2305.34
2274.98
2241.05
2203.55
2162.47
2117.82
2069.59
2017.8
1847.33
1843.27
1839.34
1835.53
)


20
(
3605.87
3600.54
3584.54
3557.89
3520.57
3472.59
3413.94
3344.64
3264.67
3174.03
3072.74
2960.77
2838.15
2704.86
2560.91
2406.29
1897.44
1885.32
1873.59
1862.23
)


20
(
4751.96
4743.17
4716.79
4672.83
4611.28
4532.15
4435.43
4321.12
4189.23
4039.75
3872.69
3688.04
3485.8
3265.98
3028.57
2773.57
1934.36
1914.37
1895.03
1876.3
)


20
(
5840.23
5828.12
5791.77
5731.2
5646.39
5537.35
5404.08
5246.58
5064.85
4858.88
4628.69
4374.26
4095.6
3792.71
3465.58
3114.22
1957.89
1930.35
1903.7
1877.89
)


20
(
6853.84
6838.59
6792.85
6716.61
6609.88
6472.66
6304.94
6106.73
5878.02
5618.82
5329.12
5008.93
4658.24
4277.06
3865.38
3423.21
1967.99
1933.33
1899.79
1867.31
)


20
(
7777.05
7758.91
7704.49
7613.8
7486.84
7323.59
7124.07
6888.27
6616.2
6307.84
5963.22
5582.31
5165.12
4711.66
4221.92
3695.9
1964.75
1923.52
1883.62
1844.99
)


20
(
8595.52
8574.78
8512.55
8408.83
8263.63
8076.94
7848.76
7579.1
7267.94
6915.3
6521.18
6085.56
5608.46
5089.87
4529.79
3928.23
1948.45
1901.29
1855.66
1811.48
)


20
(
9296.52
9273.5
9204.44
9089.33
8928.18
8720.99
8467.75
8168.48
7823.15
7431.79
6994.38
6510.93
5981.44
5405.9
4784.32
4116.69
1919.5
1867.16
1816.53
1767.49
)


20
(
9869.12
9844.19
9769.38
9644.7
9470.14
9245.72
8971.42
8647.25
8273.2
7849.29
7375.5
6851.83
6278.3
5654.89
4981.6
4258.44
1878.5
1821.81
1766.96
1713.85
)


20
(
10304.4
10277.9
10198.6
10066.3
9881.06
9642.94
9351.91
9007.96
8611.09
8161.3
7658.6
7102.98
6494.45
5833
5118.63
4351.35
1826.18
1766.03
1707.84
1651.48
)


20
(
10595.5
10568
10485.3
10347.5
10154.5
9906.47
9603.28
9244.98
8831.54
8362.98
7839.3
7260.49
6626.56
5937.5
5193.32
4394.01
1763.44
1700.78
1640.16
1581.45
)


20
(
10738
10709.8
10625.1
10483.9
10286.3
10032.2
9721.64
9354.62
8931.15
8451.2
7914.8
7321.93
6672.59
5966.79
5204.52
4385.79
1691.32
1627.13
1565.04
1504.9
)


20
(
10729.6
10701.1
10615.7
10473.5
10274.3
10018.2
9705.15
9335.22
8908.37
8424.61
7883.94
7286.36
6631.86
5920.45
5152.12
4326.88
1610.99
1546.3
1483.71
1423.1
)


20
(
10570.5
10542.2
10457.6
10316.4
10118.8
9864.68
9554.13
9187.11
8763.63
8283.69
7747.28
7154.41
6505.07
5799.27
5037
4218.27
1523.79
1459.6
1397.51
1337.37
)


20
(
10263.3
10235.7
10153
10015.2
9822.28
9574.21
9271.03
8912.72
8499.28
8030.72
7507.03
6928.22
6294.29
5605.22
4861.03
4061.72
1431.15
1368.49
1307.86
1249.16
)


20
(
9812.84
9786.39
9707.01
9574.72
9389.51
9151.39
8860.35
8516.4
8119.52
7669.74
7167.03
6611.41
6002.87
5341.42
4627.04
3859.75
1334.57
1274.42
1216.23
1159.87
)


20
(
9226.21
9201.27
9126.46
9001.78
8827.22
8602.79
8328.49
8004.31
7630.26
7206.34
6732.55
6208.88
5635.33
5011.92
4338.62
3615.46
1235.5
1178.8
1123.96
1070.84
)


20
(
8512.19
8489.17
8420.1
8304.99
8143.84
7936.64
7683.4
7384.12
7038.79
6647.42
6210.01
5726.55
5197.05
4621.5
3999.91
3332.27
1135.06
1082.72
1032.09
983.049
)


20
(
7680.93
7660.19
7597.95
7494.24
7349.03
7162.33
6934.15
6664.48
6353.33
6000.68
5606.55
5170.93
4693.82
4175.22
3615.13
3013.56
1033.76
986.597
940.973
896.788
)


20
(
6743.33
6725.19
6670.77
6580.08
6453.11
6289.86
6090.33
5854.52
5582.44
5274.08
4929.44
4548.52
4131.33
3677.85
3188.1
2662.07
930.885
889.646
849.751
811.115
)


20
(
5709.68
5694.43
5648.69
5572.45
5465.72
5328.49
5160.76
4962.54
4733.82
4474.61
4184.9
3864.7
3514
3132.8
2721.11
2278.92
823.665
788.999
755.463
722.985
)


20
(
4588.54
4576.42
4540.07
4479.49
4394.68
4285.63
4152.35
3994.84
3813.09
3607.12
3376.91
3122.46
2843.79
2540.88
2213.74
1862.36
705.974
678.427
651.778
625.97
)


20
(
3385.06
3376.27
3349.89
3305.92
3244.37
3165.22
3068.5
2954.18
2822.28
2672.79
2505.71
2321.04
2118.79
1898.95
1661.53
1406.51
567.255
547.262
527.922
509.191
)


20
(
2104.23
2098.9
2082.9
2056.24
2018.92
1970.93
1912.27
1842.96
1762.98
1672.33
1571.02
1459.05
1336.41
1203.1
1059.14
904.506
395.607
383.485
371.757
360.4
)


20
(
765.4
763.613
758.252
749.318
736.809
720.728
701.072
677.842
651.039
620.662
586.712
549.188
508.089
463.418
415.172
363.353
192.815
188.752
184.822
181.016
)


20
(
2452.47
2450.67
2445.26
2436.23
2423.6
2407.35
2387.5
2364.04
2336.97
2306.28
2271.99
2234.08
2192.57
2147.44
2098.71
2046.36
1874.07
1869.97
1866
1862.15
)


20
(
3651.49
3646.1
3629.94
3603
3565.28
3516.79
3457.52
3387.47
3306.65
3215.05
3112.67
2999.52
2875.59
2740.88
2595.39
2439.12
1924.85
1912.6
1900.74
1889.27
)


20
(
4809.86
4800.97
4774.31
4729.88
4667.68
4587.7
4489.95
4374.42
4241.13
4090.06
3921.21
3734.59
3530.2
3308.03
3068.09
2810.37
1962.22
1942.01
1922.47
1903.54
)


20
(
5909.72
5897.47
5860.74
5799.52
5713.8
5603.6
5468.91
5309.73
5126.06
4917.9
4685.25
4428.11
4146.48
3840.36
3509.75
3154.65
1985.99
1958.15
1931.22
1905.13
)


20
(
6934.04
6918.63
6872.4
6795.35
6687.48
6548.8
6379.29
6178.96
5947.82
5685.85
5393.07
5069.46
4715.03
4329.79
3913.72
3466.83
1996.1
1961.07
1927.17
1894.35
)


20
(
7866.93
7848.59
7793.6
7701.94
7573.62
7408.63
7206.99
6968.67
6693.7
6382.06
6033.76
5648.79
5227.16
4768.86
4273.9
3742.27
1992.67
1950.99
1910.67
1871.62
)


20
(
8693.89
8672.93
8610.03
8505.21
8358.46
8169.78
7939.17
7666.63
7352.16
6995.76
6597.43
6157.18
5674.99
5150.87
4584.82
3976.84
1975.95
1928.29
1882.18
1837.52
)


20
(
9402.06
9378.79
9308.99
9192.66
9029.79
8820.39
8564.46
8261.99
7912.99
7517.45
7075.38
6586.77
6051.64
5469.96
4841.75
4167.01
1946.4
1893.5
1842.32
1792.76
)


20
(
9980.4
9955.2
9879.59
9753.58
9577.17
9350.35
9073.13
8745.5
8367.47
7939.03
7460.19
6930.94
6351.29
5721.24
5040.77
4309.91
1904.59
1847.29
1791.86
1738.18
)


20
(
10419.9
10393.1
10312.9
10179.2
9992.04
9751.38
9457.25
9109.63
8708.53
8253.95
7745.89
7184.35
6569.32
5900.82
5178.84
4403.37
1851.29
1790.49
1731.68
1674.73
)


20
(
10713.6
10685.8
10602.2
10462.9
10267.9
10017.2
9710.82
9348.69
8930.85
8457.3
7928.03
7343.05
6702.36
6005.95
5253.84
4446
1787.4
1724.07
1662.8
1603.46
)


20
(
10857.1
10828.6
10743
10600.3
10400.6
10143.8
9829.9
9458.98
9030.98
8545.92
8003.8
7404.6
6748.35
6035.02
5264.63
4437.17
1713.97
1649.1
1586.34
1525.57
)


20
(
10848
10819.2
10733
10589.2
10387.8
10129
9812.65
9438.78
9007.38
8518.46
7972.03
7368.07
6706.6
5987.6
5211.09
4377.05
1632.2
1566.82
1503.56
1442.3
)


20
(
10686.6
10658
10572.4
10429.8
10230.1
9973.26
9659.39
9288.46
8860.47
8375.41
7833.28
7234.09
6577.83
5864.5
5094.11
4266.64
1543.44
1478.57
1415.81
1355.04
)


20
(
10375.4
10347.6
10264
10124.7
9929.73
9679.02
9372.6
9010.47
8592.63
8119.07
7589.8
7004.82
6364.12
5667.72
4915.59
4107.76
1449.14
1385.81
1324.54
1265.21
)


20
(
9919.5
9892.76
9812.54
9678.84
9491.66
9251
8956.86
8609.23
8208.13
7753.55
7245.48
6683.93
6068.91
5400.4
4678.41
3902.94
1350.84
1290.04
1231.23
1174.27
)


20
(
9325.92
9300.72
9225.11
9099.1
8922.68
8695.86
8418.63
8091
7712.96
7284.52
6805.67
6276.42
5696.76
5066.7
4386.23
3655.35
1250.02
1192.72
1137.29
1083.6
)


20
(
8603.64
8580.38
8510.57
8394.24
8231.37
8021.96
7766.02
7463.55
7114.54
6719
6276.92
5788.31
5253.16
4671.48
4043.26
3368.5
1147.86
1094.97
1043.79
994.232
)


20
(
7762.97
7742.01
7679.11
7574.29
7427.53
7238.85
7008.23
6735.69
6421.21
6064.81
5666.47
5226.21
4744.01
4219.88
3653.83
3045.84
1044.93
997.266
951.155
906.5
)


20
(
6814.96
6796.63
6741.63
6649.97
6521.64
6356.65
6155
5916.68
5641.69
5330.04
4981.73
4596.75
4175.11
3716.8
3221.83
2690.19
940.545
898.866
858.546
819.498
)


20
(
5770.04
5754.63
5708.4
5631.35
5523.47
5384.78
5215.27
5014.93
4783.78
4521.8
4229
3905.39
3550.95
3165.69
2749.61
2302.7
831.932
796.897
763.003
730.179
)


20
(
4636.85
4624.6
4587.87
4526.64
4440.92
4330.71
4196.01
4036.82
3853.14
3644.96
3412.3
3155.14
2873.5
2567.36
2236.73
1881.61
712.891
685.051
658.118
632.034
)


20
(
3420.52
3411.63
3384.97
3340.54
3278.32
3198.34
3100.58
2985.04
2851.74
2700.65
2531.79
2345.16
2140.75
1918.57
1678.61
1420.88
572.671
552.466
532.919
513.989
)


20
(
2125.95
2120.56
2104.39
2077.45
2039.72
1991.22
1931.94
1861.89
1781.05
1689.44
1587.05
1473.88
1349.94
1215.21
1069.71
913.432
399.108
386.856
375.003
363.525
)


20
(
772.695
770.89
765.472
756.442
743.801
727.547
707.682
684.205
657.116
626.415
592.103
554.178
512.642
467.494
418.734
366.363
194.006
189.901
185.929
182.082
)


20
(
2452.47
2450.67
2445.26
2436.23
2423.6
2407.35
2387.5
2364.04
2336.97
2306.28
2271.99
2234.08
2192.57
2147.44
2098.71
2046.36
1874.07
1869.97
1866
1862.15
)


20
(
3651.49
3646.1
3629.94
3603
3565.28
3516.79
3457.52
3387.47
3306.65
3215.05
3112.67
2999.52
2875.59
2740.88
2595.39
2439.12
1924.85
1912.6
1900.74
1889.27
)


20
(
4809.86
4800.97
4774.31
4729.88
4667.68
4587.7
4489.95
4374.42
4241.13
4090.06
3921.21
3734.59
3530.2
3308.03
3068.09
2810.37
1962.22
1942.01
1922.47
1903.54
)


20
(
5909.72
5897.47
5860.74
5799.52
5713.8
5603.6
5468.91
5309.73
5126.06
4917.9
4685.25
4428.11
4146.48
3840.36
3509.75
3154.65
1985.99
1958.15
1931.22
1905.13
)


20
(
6934.04
6918.63
6872.4
6795.35
6687.48
6548.79
6379.29
6178.96
5947.82
5685.85
5393.07
5069.46
4715.03
4329.79
3913.72
3466.83
1996.1
1961.07
1927.17
1894.35
)


20
(
7866.93
7848.59
7793.6
7701.94
7573.62
7408.63
7206.99
6968.67
6693.7
6382.06
6033.76
5648.79
5227.16
4768.86
4273.9
3742.27
1992.67
1950.99
1910.67
1871.62
)


20
(
8693.89
8672.93
8610.03
8505.21
8358.46
8169.78
7939.17
7666.63
7352.16
6995.76
6597.43
6157.18
5674.99
5150.87
4584.82
3976.84
1975.95
1928.29
1882.18
1837.52
)


20
(
9402.06
9378.79
9308.99
9192.66
9029.79
8820.39
8564.46
8261.99
7912.99
7517.45
7075.38
6586.77
6051.63
5469.96
4841.75
4167.01
1946.4
1893.5
1842.32
1792.76
)


20
(
9980.4
9955.2
9879.59
9753.58
9577.17
9350.35
9073.13
8745.5
8367.47
7939.03
7460.19
6930.94
6351.29
5721.24
5040.77
4309.91
1904.59
1847.29
1791.86
1738.18
)


20
(
10419.9
10393.1
10312.9
10179.2
9992.04
9751.38
9457.25
9109.63
8708.53
8253.95
7745.89
7184.35
6569.32
5900.82
5178.84
4403.37
1851.29
1790.49
1731.68
1674.73
)


20
(
10713.6
10685.8
10602.2
10462.9
10267.9
10017.2
9710.82
9348.69
8930.85
8457.3
7928.03
7343.05
6702.36
6005.95
5253.84
4446
1787.4
1724.07
1662.8
1603.46
)


20
(
10857.1
10828.6
10743
10600.3
10400.6
10143.8
9829.9
9458.98
9030.98
8545.92
8003.8
7404.6
6748.35
6035.02
5264.63
4437.17
1713.97
1649.1
1586.34
1525.57
)


20
(
10848
10819.2
10733
10589.2
10387.8
10129
9812.65
9438.78
9007.38
8518.46
7972.03
7368.07
6706.6
5987.6
5211.09
4377.05
1632.2
1566.82
1503.56
1442.3
)


20
(
10686.6
10658
10572.4
10429.8
10230.1
9973.25
9659.39
9288.46
8860.47
8375.41
7833.28
7234.09
6577.83
5864.5
5094.1
4266.64
1543.44
1478.57
1415.81
1355.04
)


20
(
10375.4
10347.6
10264
10124.7
9929.73
9679.02
9372.6
9010.47
8592.63
8119.07
7589.8
7004.82
6364.12
5667.72
4915.59
4107.76
1449.14
1385.81
1324.54
1265.21
)


20
(
9919.5
9892.76
9812.54
9678.84
9491.66
9251
8956.86
8609.23
8208.13
7753.55
7245.48
6683.93
6068.91
5400.4
4678.41
3902.94
1350.84
1290.04
1231.23
1174.27
)


20
(
9325.92
9300.72
9225.11
9099.1
8922.68
8695.86
8418.63
8091
7712.96
7284.52
6805.67
6276.42
5696.76
5066.7
4386.23
3655.35
1250.02
1192.72
1137.29
1083.6
)


20
(
8603.64
8580.38
8510.57
8394.24
8231.37
8021.96
7766.02
7463.55
7114.54
6719
6276.92
5788.31
5253.16
4671.47
4043.26
3368.5
1147.86
1094.97
1043.79
994.232
)


20
(
7762.97
7742.01
7679.11
7574.29
7427.53
7238.85
7008.23
6735.69
6421.21
6064.81
5666.47
5226.21
4744.01
4219.88
3653.83
3045.84
1044.93
997.266
951.155
906.499
)


20
(
6814.96
6796.63
6741.63
6649.97
6521.64
6356.65
6155
5916.68
5641.69
5330.04
4981.73
4596.75
4175.11
3716.8
3221.83
2690.19
940.545
898.866
858.546
819.498
)


20
(
5770.04
5754.63
5708.4
5631.35
5523.47
5384.78
5215.27
5014.93
4783.78
4521.8
4229
3905.39
3550.95
3165.69
2749.61
2302.7
831.932
796.897
763.003
730.179
)


20
(
4636.85
4624.6
4587.87
4526.64
4440.92
4330.71
4196.01
4036.82
3853.14
3644.96
3412.3
3155.14
2873.5
2567.36
2236.73
1881.61
712.891
685.051
658.118
632.035
)


20
(
3420.52
3411.63
3384.97
3340.54
3278.33
3198.34
3100.58
2985.05
2851.74
2700.65
2531.79
2345.16
2140.75
1918.57
1678.61
1420.88
572.672
552.466
532.919
513.989
)


20
(
2125.95
2120.56
2104.39
2077.45
2039.72
1991.22
1931.94
1861.89
1781.05
1689.44
1587.05
1473.88
1349.94
1215.21
1069.71
913.431
399.108
386.856
375.003
363.525
)


20
(
772.696
770.89
765.472
756.442
743.801
727.547
707.682
684.205
657.116
626.415
592.103
554.178
512.642
467.494
418.734
366.363
194.006
189.901
185.929
182.082
)


20
(
2419.63
2417.85
2412.49
2403.56
2391.06
2374.99
2355.35
2332.13
2305.34
2274.98
2241.05
2203.55
2162.47
2117.82
2069.6
2017.8
1847.33
1843.27
1839.34
1835.53
)


20
(
3605.87
3600.54
3584.55
3557.89
3520.57
3472.59
3413.94
3344.64
3264.67
3174.03
3072.74
2960.78
2838.15
2704.86
2560.91
2406.29
1897.44
1885.32
1873.59
1862.24
)


20
(
4751.97
4743.17
4716.8
4672.83
4611.28
4532.15
4435.43
4321.12
4189.23
4039.75
3872.69
3688.04
3485.8
3265.98
3028.57
2773.57
1934.36
1914.37
1895.03
1876.3
)


20
(
5840.24
5828.12
5791.78
5731.2
5646.39
5537.35
5404.08
5246.58
5064.85
4858.88
4628.69
4374.26
4095.6
3792.71
3465.58
3114.23
1957.89
1930.35
1903.7
1877.9
)


20
(
6853.84
6838.59
6792.85
6716.61
6609.88
6472.66
6304.94
6106.73
5878.02
5618.82
5329.12
5008.93
4658.24
4277.06
3865.38
3423.21
1967.99
1933.33
1899.79
1867.31
)


20
(
7777.05
7758.91
7704.5
7613.8
7486.84
7323.59
7124.07
6888.27
6616.2
6307.85
5963.22
5582.31
5165.13
4711.66
4221.92
3695.9
1964.75
1923.52
1883.62
1844.99
)


20
(
8595.52
8574.78
8512.55
8408.83
8263.63
8076.94
7848.76
7579.1
7267.95
6915.31
6521.18
6085.57
5608.46
5089.87
4529.8
3928.23
1948.45
1901.29
1855.67
1811.48
)


20
(
9296.52
9273.5
9204.44
9089.33
8928.18
8720.99
8467.75
8168.48
7823.16
7431.79
6994.38
6510.93
5981.44
5405.9
4784.32
4116.69
1919.5
1867.16
1816.53
1767.49
)


20
(
9869.12
9844.19
9769.38
9644.7
9470.14
9245.72
8971.42
8647.25
8273.2
7849.29
7375.5
6851.83
6278.3
5654.89
4981.6
4258.44
1878.5
1821.81
1766.96
1713.85
)


20
(
10304.4
10277.9
10198.6
10066.3
9881.07
9642.95
9351.91
9007.96
8611.09
8161.3
7658.6
7102.99
6494.45
5833
5118.63
4351.35
1826.19
1766.03
1707.84
1651.49
)


20
(
10595.5
10568
10485.3
10347.5
10154.5
9906.47
9603.29
9244.98
8831.54
8362.99
7839.3
7260.49
6626.56
5937.5
5193.32
4394.01
1763.44
1700.78
1640.16
1581.45
)


20
(
10738
10709.8
10625.1
10483.9
10286.3
10032.2
9721.64
9354.63
8931.15
8451.2
7914.8
7321.93
6672.59
5966.79
5204.52
4385.79
1691.32
1627.13
1565.04
1504.91
)


20
(
10729.6
10701.1
10615.8
10473.5
10274.3
10018.2
9705.15
9335.22
8908.37
8424.61
7883.94
7286.36
6631.86
5920.45
5152.12
4326.89
1610.99
1546.3
1483.71
1423.1
)


20
(
10570.5
10542.2
10457.6
10316.4
10118.8
9864.68
9554.13
9187.11
8763.63
8283.69
7747.28
7154.41
6505.07
5799.27
5037
4218.27
1523.79
1459.6
1397.51
1337.38
)


20
(
10263.3
10235.7
10153
10015.2
9822.28
9574.22
9271.03
8912.72
8499.28
8030.72
7507.03
6928.22
6294.29
5605.22
4861.04
4061.72
1431.15
1368.49
1307.86
1249.16
)


20
(
9812.85
9786.39
9707.01
9574.72
9389.52
9151.39
8860.35
8516.4
8119.53
7669.74
7167.03
6611.41
6002.87
5341.42
4627.04
3859.75
1334.57
1274.42
1216.23
1159.87
)


20
(
9226.21
9201.27
9126.46
9001.78
8827.22
8602.79
8328.49
8004.31
7630.27
7206.34
6732.55
6208.88
5635.33
5011.92
4338.63
3615.46
1235.5
1178.8
1123.96
1070.84
)


20
(
8512.19
8489.17
8420.1
8304.99
8143.84
7936.64
7683.41
7384.12
7038.79
6647.42
6210.01
5726.55
5197.05
4621.5
3999.91
3332.27
1135.06
1082.72
1032.09
983.05
)


20
(
7680.93
7660.19
7597.96
7494.24
7349.03
7162.34
6934.15
6664.48
6353.33
6000.68
5606.55
5170.93
4693.82
4175.22
3615.14
3013.56
1033.76
986.598
940.974
896.789
)


20
(
6743.33
6725.19
6670.77
6580.08
6453.11
6289.86
6090.33
5854.52
5582.44
5274.08
4929.44
4548.52
4131.33
3677.85
3188.1
2662.07
930.886
889.647
849.752
811.116
)


20
(
5709.68
5694.43
5648.69
5572.45
5465.72
5328.49
5160.76
4962.54
4733.82
4474.61
4184.9
3864.7
3514
3132.8
2721.11
2278.92
823.666
789
755.464
722.986
)


20
(
4588.54
4576.42
4540.07
4479.49
4394.68
4285.63
4152.35
3994.84
3813.1
3607.12
3376.91
3122.46
2843.79
2540.88
2213.74
1862.36
705.975
678.428
651.779
625.971
)


20
(
3385.06
3376.27
3349.89
3305.92
3244.37
3165.23
3068.5
2954.18
2822.28
2672.79
2505.71
2321.05
2118.79
1898.96
1661.53
1406.52
567.255
547.263
527.923
509.192
)


20
(
2104.23
2098.9
2082.9
2056.24
2018.92
1970.93
1912.27
1842.96
1762.98
1672.33
1571.02
1459.05
1336.41
1203.1
1059.14
904.506
395.608
383.485
371.758
360.4
)


20
(
765.4
763.613
758.252
749.318
736.81
720.728
701.072
677.843
651.04
620.663
586.712
549.188
508.09
463.418
415.172
363.353
192.815
188.752
184.822
181.016
)


20
(
2460.4
2458.59
2453.16
2444.12
2431.45
2415.16
2395.26
2371.73
2344.59
2313.83
2279.44
2241.44
2199.82
2154.57
2105.71
2053.22
1880.48
1876.37
1872.39
1868.53
)


20
(
3662.6
3657.2
3641
3613.99
3576.17
3527.55
3468.13
3397.9
3316.86
3225.02
3122.38
3008.93
2884.67
2749.61
2603.75
2447.07
1931.45
1919.17
1907.29
1895.78
)


20
(
4824.04
4815.13
4788.4
4743.86
4681.49
4601.3
4503.3
4387.47
4253.82
4102.36
3933.07
3745.96
3541.04
3318.29
3077.72
2819.33
1968.96
1948.7
1929.1
1910.12
)


20
(
5926.79
5914.52
5877.69
5816.31
5730.37
5619.88
5484.84
5325.24
5141.09
4932.39
4699.13
4441.32
4158.95
3852.03
3520.55
3164.52
1992.81
1964.9
1937.89
1911.74
)


20
(
6953.79
6938.34
6891.99
6814.74
6706.59
6567.54
6397.59
6196.74
5964.99
5702.34
5408.79
5084.34
4728.99
4342.74
3925.58
3477.52
2002.95
1967.82
1933.84
1900.93
)


20
(
7889.1
7870.72
7815.58
7723.68
7595.03
7429.61
7227.44
6988.5
6712.81
6400.35
6051.14
5665.17
5242.43
4782.94
4286.68
3753.67
1999.49
1957.7
1917.28
1878.13
)


20
(
8718.19
8697.17
8634.11
8529.02
8381.88
8192.71
7961.49
7688.24
7372.95
7015.62
6616.25
6174.84
5691.4
5165.91
4598.38
3988.81
1982.69
1934.9
1888.67
1843.9
)


20
(
9428.16
9404.83
9334.85
9218.21
9054.92
8844.97
8588.36
8285.1
7935.19
7538.62
7095.39
6605.51
6068.97
5485.78
4855.93
4179.42
1953
1899.97
1848.66
1798.97
)


20
(
10007.9
9982.67
9906.87
9780.53
9603.65
9376.24
9098.29
8769.81
8390.79
7961.23
7481.14
6950.51
6369.34
5737.64
5055.4
4322.62
1911.02
1853.57
1797.99
1744.17
)


20
(
10448.5
10421.7
10341.2
10207.2
10019.5
9778.23
9483.33
9134.8
8732.65
8276.88
7767.49
7204.49
6587.86
5917.61
5193.74
4416.24
1857.49
1796.54
1737.57
1680.46
)


20
(
10742.9
10715
10631.2
10491.5
10296
10044.7
9737.46
9374.38
8955.45
8480.66
7950.01
7363.5
6721.14
6022.91
5268.83
4458.88
1793.33
1729.83
1668.4
1608.91
)


20
(
10886.6
10858
10772.2
10629.1
10428.9
10171.4
9856.73
9484.84
9055.73
8569.4
8025.86
7425.1
6767.12
6051.93
5279.53
4449.9
1719.59
1654.55
1591.63
1530.69
)


20
(
10877.4
10848.5
10762
10617.8
10416
10156.5
9839.31
9464.45
9031.93
8541.74
7993.87
7388.34
6725.13
6004.26
5225.71
4389.5
1637.47
1571.92
1508.5
1447.08
)


20
(
10715.4
10686.8
10600.9
10457.9
10257.6
10000.2
9685.5
9313.6
8884.49
8398.16
7854.61
7253.85
6595.88
5880.69
5108.28
4278.66
1548.33
1483.29
1420.37
1359.44
)


20
(
10403.2
10375.3
10291.5
10151.9
9956.38
9705.02
9397.8
9034.73
8615.79
8140.99
7610.34
7023.83
6381.46
5683.23
4929.14
4119.2
1453.63
1390.13
1328.7
1269.21
)


20
(
9945.96
9919.15
9838.72
9704.67
9517
9275.71
8980.8
8632.27
8230.12
7774.35
7264.95
6701.94
6085.31
5415.05
4691.17
3913.68
1354.9
1293.95
1234.98
1177.88
)


20
(
9350.66
9325.39
9249.59
9123.25
8946.37
8718.95
8441
8112.51
7733.49
7303.93
6823.83
6293.19
5712.02
5080.31
4398.06
3665.27
1253.65
1196.2
1140.63
1086.8
)


20
(
8626.34
8603.01
8533.03
8416.39
8253.09
8043.14
7786.53
7483.27
7133.34
6736.77
6293.53
5803.64
5267.1
4683.89
4054.03
3377.52
1151.07
1098.04
1046.73
997.038
)


20
(
7783.33
7762.31
7699.25
7594.15
7447.02
7257.84
7026.62
6753.36
6438.07
6080.73
5681.35
5239.94
4756.48
4230.99
3663.45
3053.87
1047.73
999.943
953.712
908.939
)


20
(
6832.74
6814.36
6759.22
6667.32
6538.66
6373.23
6171.05
5932.11
5656.41
5343.94
4994.72
4608.73
4185.99
3726.48
3230.21
2697.19
942.97
901.183
860.757
821.607
)


20
(
5785.02
5769.57
5723.22
5645.97
5537.81
5398.76
5228.8
5027.94
4796.18
4533.52
4239.96
3915.5
3560.13
3173.87
2756.7
2308.63
834.011
798.883
764.901
731.991
)


20
(
4648.85
4636.57
4599.74
4538.35
4452.41
4341.91
4206.86
4047.25
3863.09
3654.37
3421.1
3163.27
2880.89
2573.95
2242.46
1886.41
714.634
686.721
659.718
633.566
)


20
(
3429.34
3420.43
3393.69
3349.14
3286.77
3206.57
3108.56
2992.72
2859.06
2707.58
2538.28
2351.16
2146.22
1923.46
1682.87
1424.47
574.041
553.783
534.185
515.206
)


20
(
2131.35
2125.94
2109.74
2082.72
2044.9
1996.27
1936.84
1866.6
1785.55
1693.7
1591.04
1477.58
1353.31
1218.23
1072.35
915.664
399.996
387.712
375.828
364.32
)


20
(
774.507
772.696
767.264
758.211
745.537
729.241