/*--------------------------------*- C++ -*----------------------------------*\
| =========                 |                                                 |
| \\      /  F ield         | OpenFOAM: The Open Source CFD Toolbox           |
|  \\    /   O peration     | Version:  2212                                  |
|   \\  /    A nd           | Website:  www.openfoam.com                      |
|    \\/     M anipulation  |                                                 |
\*---------------------------------------------------------------------------*/
FoamFile
{
    version     2.0;
    format      ascii;
    arch        "LSB;label=32;scalar=64";
    class       volScalarField;
    location    "56/neutroRegion";
    object      fluxStar21;
}
// * * * * * * * * * * * * * * * * * * * * * * * * * * * * * * * * * * * * * //

dimensions      [0 -2 -1 0 0 0 0];

internalField   nonuniform List<scalar> 
350
(
-1.52712e+16
-4.55728e+16
-7.51554e+16
-1.03553e+17
-1.30317e+17
-1.55026e+17
-1.77291e+17
-1.96759e+17
-2.13124e+17
-2.26128e+17
-2.35566e+17
-2.41289e+17
-2.43206e+17
-2.41289e+17
-2.35566e+17
-2.26128e+17
-2.13124e+17
-1.96759e+17
-1.77291e+17
-1.55026e+17
-1.30317e+17
-1.03553e+17
-7.51554e+16
-4.55728e+16
-1.52712e+16
-1.52712e+16
-4.55728e+16
-7.51554e+16
-1.03553e+17
-1.30317e+17
-1.55026e+17
-1.77291e+17
-1.96759e+17
-2.13124e+17
-2.26128e+17
-2.35566e+17
-2.41289e+17
-2.43206e+17
-2.41289e+17
-2.35566e+17
-2.26128e+17
-2.13124e+17
-1.96759e+17
-1.77291e+17
-1.55026e+17
-1.30317e+17
-1.03553e+17
-7.51554e+16
-4.55728e+16
-1.52712e+16
4.81693e+15
1.43748e+16
2.3706e+16
3.26633e+16
4.11055e+16
4.88994e+16
5.59221e+16
6.20629e+16
6.7225e+16
7.13268e+16
7.43038e+16
7.6109e+16
7.67139e+16
7.6109e+16
7.43038e+16
7.13268e+16
6.7225e+16
6.20629e+16
5.59221e+16
4.88994e+16
4.11055e+16
3.26633e+16
2.3706e+16
1.43748e+16
4.81693e+15
2.67513e+15
7.98315e+15
1.31653e+16
1.81398e+16
2.28283e+16
2.71567e+16
3.10568e+16
3.44672e+16
3.7334e+16
3.9612e+16
4.12653e+16
4.22679e+16
4.26038e+16
4.22679e+16
4.12653e+16
3.9612e+16
3.7334e+16
3.44672e+16
3.10568e+16
2.71567e+16
2.28283e+16
1.81398e+16
1.31653e+16
7.98315e+15
2.67513e+15
5.15613e+15
1.53871e+16
2.53754e+16
3.49634e+16
4.40001e+16
5.23427e+16
5.986e+16
6.64332e+16
7.19587e+16
7.63494e+16
7.9536e+16
8.14683e+16
8.21158e+16
8.14683e+16
7.9536e+16
7.63494e+16
7.19587e+16
6.64332e+16
5.986e+16
5.23427e+16
4.40001e+16
3.49634e+16
2.53754e+16
1.53871e+16
5.15613e+15
3.21459e+15
9.59303e+15
1.58202e+16
2.17979e+16
2.74318e+16
3.26331e+16
3.73197e+16
4.14178e+16
4.48627e+16
4.76e+16
4.95867e+16
5.07914e+16
5.11951e+16
5.07914e+16
4.95867e+16
4.76e+16
4.48627e+16
4.14178e+16
3.73197e+16
3.26331e+16
2.74318e+16
2.17979e+16
1.58202e+16
9.59303e+15
3.21459e+15
3.21459e+15
9.59304e+15
1.58202e+16
2.17979e+16
2.74318e+16
3.26331e+16
3.73197e+16
4.14178e+16
4.48627e+16
4.76e+16
4.95867e+16
5.07914e+16
5.11951e+16
5.07914e+16
4.95867e+16
4.76e+16
4.48627e+16
4.14178e+16
3.73197e+16
3.26331e+16
2.74318e+16
2.17979e+16
1.58202e+16
9.59304e+15
3.21459e+15
5.15613e+15
1.53871e+16
2.53754e+16
3.49634e+16
4.40001e+16
5.23427e+16
5.986e+16
6.64332e+16
7.19587e+16
7.63494e+16
7.9536e+16
8.14683e+16
8.21158e+16
8.14683e+16
7.9536e+16
7.63494e+16
7.19587e+16
6.64332e+16
5.986e+16
5.23427e+16
4.40001e+16
3.49634e+16
2.53754e+16
1.53871e+16
5.15613e+15
2.67513e+15
7.98315e+15
1.31653e+16
1.81398e+16
2.28283e+16
2.71567e+16
3.10568e+16
3.44672e+16
3.7334e+16
3.9612e+16
4.12653e+16
4.22678e+16
4.26038e+16
4.22678e+16
4.12653e+16
3.9612e+16
3.7334e+16
3.44672e+16
3.10568e+16
2.71567e+16
2.28283e+16
1.81398e+16
1.31653e+16
7.98316e+15
2.67513e+15
4.81694e+15
1.43748e+16
2.3706e+16
3.26634e+16
4.11056e+16
4.88994e+16
5.59221e+16
6.20629e+16
6.72249e+16
7.13268e+16
7.43037e+16
7.61089e+16
7.67138e+16
7.61089e+16
7.43037e+16
7.13268e+16
6.72249e+16
6.20629e+16
5.59221e+16
4.88994e+16
4.11056e+16
3.26634e+16
2.3706e+16
1.43748e+16
4.81694e+15
3.2146e+15
9.59305e+15
1.58202e+16
2.17979e+16
2.74318e+16
3.26331e+16
3.73197e+16
4.14178e+16
4.48627e+16
4.76e+16
4.95867e+16
5.07913e+16
5.1195e+16
5.07913e+16
4.95867e+16
4.76e+16
4.48627e+16
4.14178e+16
3.73197e+16
3.26331e+16
2.74318e+16
2.17979e+16
1.58203e+16
9.59305e+15
3.2146e+15
5.15614e+15
1.53871e+16
2.53754e+16
3.49634e+16
4.40001e+16
5.23428e+16
5.986e+16
6.64332e+16
7.19587e+16
7.63494e+16
7.95359e+16
8.14682e+16
8.21157e+16
8.14682e+16
7.95359e+16
7.63494e+16
7.19587e+16
6.64332e+16
5.986e+16
5.23428e+16
4.40001e+16
3.49634e+16
2.53754e+16
1.53871e+16
5.15614e+15
5.15613e+15
1.53871e+16
2.53754e+16
3.49634e+16
4.40001e+16
5.23427e+16
5.986e+16
6.64332e+16
7.19587e+16
7.63494e+16
7.9536e+16
8.14683e+16
8.21158e+16
8.14683e+16
7.9536e+16
7.63494e+16
7.19587e+16
6.64332e+16
5.986e+16
5.23427e+16
4.40001e+16
3.49634e+16
2.53754e+16
1.53871e+16
5.15613e+15
3.21459e+15
9.59304e+15
1.58202e+16
2.17979e+16
2.74318e+16
3.26331e+16
3.73197e+16
4.14178e+16
4.48627e+16
4.76e+16
4.95867e+16
5.07914e+16
5.11951e+16
5.07914e+16
4.95867e+16
4.76e+16
4.48627e+16
4.14178e+16
3.73197e+16
3.26331e+16
2.74318e+16
2.17979e+16
1.58202e+16
9.59304e+15
3.21459e+15
)
;

boundaryField
{
    outletCentralUnloaded
    {
        type            fixedValue;
        value           uniform 0;
    }
    inletCentralUnloaded
    {
        type            fixedValue;
        value           uniform 0;
    }
    outletFuelElement
    {
        type            fixedValue;
        value           uniform 0;
    }
    inletFuelElement
    {
        type            fixedValue;
        value           uniform 0;
    }
    defaultFaces
    {
        type            zeroGradient;
    }
}


// ************************************************************************* //
