/*--------------------------------*- C++ -*----------------------------------*\
| =========                 |                                                 |
| \\      /  F ield         | OpenFOAM: The Open Source CFD Toolbox           |
|  \\    /   O peration     | Version:  2212                                  |
|   \\  /    A nd           | Website:  www.openfoam.com                      |
|    \\/     M anipulation  |                                                 |
\*---------------------------------------------------------------------------*/
FoamFile
{
    version     2.0;
    format      ascii;
    arch        "LSB;label=32;scalar=64";
    class       volScalarField;
    location    "56/neutroRegion";
    object      TClad;
}
// * * * * * * * * * * * * * * * * * * * * * * * * * * * * * * * * * * * * * //

dimensions      [0 0 0 1 0 0 0];

internalField   nonuniform List<scalar> 
350
(
0
0
0
0
0
0
0
0
0
0
0
0
0
0
0
0
0
0
0
0
0
0
0
0
0
0
0
0
0
0
0
0
0
0
0
0
0
0
0
0
0
0
0
0
0
0
0
0
0
0
1845.21
1883.33
1908.51
1920.74
1920.15
1907.01
1881.74
1844.92
1797.25
1739.58
1672.89
1598.27
1516.95
1430.27
1339.66
1246.59
1152.44
1058.29
964.521
870.321
772.757
665.548
537.963
377.893
186.935
1873.64
1912.38
1937.95
1950.34
1949.68
1936.25
1910.48
1872.94
1824.35
1765.59
1697.64
1621.61
1538.74
1450.41
1358.04
1263.17
1167.2
1071.27
975.826
880.095
781.142
672.603
543.529
381.51
188.158
1840.59
1878.63
1903.77
1915.99
1915.43
1902.36
1877.19
1840.49
1792.98
1735.5
1669.02
1594.63
1513.57
1427.15
1336.82
1244.04
1150.18
1056.3
962.799
868.837
771.492
664.495
537.144
377.366
186.749
1867.25
1905.83
1931.29
1943.63
1942.98
1929.6
1903.93
1866.54
1818.16
1759.63
1691.96
1616.25
1533.73
1445.77
1353.81
1259.34
1163.79
1068.27
973.212
877.835
779.202
670.969
542.239
380.671
187.875
1867.25
1905.83
1931.29
1943.63
1942.98
1929.6
1903.93
1866.54
1818.16
1759.63
1691.96
1616.25
1533.73
1445.77
1353.81
1259.34
1163.79
1068.27
973.212
877.835
779.202
670.969
542.239
380.671
187.875
1840.59
1878.63
1903.77
1916
1915.43
1902.36
1877.19
1840.5
1792.99
1735.5
1669.02
1594.63
1513.57
1427.15
1336.82
1244.04
1150.18
1056.31
962.799
868.838
771.493
664.496
537.145
377.366
186.749
1873.64
1912.38
1937.95
1950.34
1949.68
1936.25
1910.48
1872.94
1824.35
1765.59
1697.64
1621.61
1538.74
1450.41
1358.04
1263.17
1167.2
1071.27
975.826
880.095
781.142
672.603
543.529
381.51
188.158
1845.21
1883.33
1908.51
1920.74
1920.15
1907.01
1881.74
1844.92
1797.25
1739.58
1672.89
1598.27
1516.95
1430.27
1339.66
1246.59
1152.44
1058.29
964.521
870.321
772.757
665.548
537.963
377.893
186.935
1867.25
1905.83
1931.29
1943.63
1942.98
1929.6
1903.93
1866.54
1818.16
1759.63
1691.96
1616.25
1533.73
1445.77
1353.81
1259.34
1163.79
1068.27
973.212
877.835
779.202
670.969
542.239
380.671
187.875
1840.59
1878.63
1903.77
1915.99
1915.43
1902.36
1877.19
1840.49
1792.98
1735.5
1669.02
1594.63
1513.57
1427.15
1336.82
1244.04
1150.18
1056.3
962.799
868.837
771.492
664.495
537.144
377.366
186.749
1840.59
1878.63
1903.77
1916
1915.43
1902.36
1877.19
1840.5
1792.99
1735.5
1669.02
1594.63
1513.57
1427.15
1336.82
1244.04
1150.18
1056.31
962.799
868.838
771.493
664.496
537.145
377.367
186.749
1867.25
1905.83
1931.29
1943.63
1942.98
1929.6
1903.93
1866.54
1818.16
1759.63
1691.96
1616.25
1533.73
1445.77
1353.81
1259.34
1163.79
1068.27
973.212
877.835
779.202
670.969
542.239
380.671
187.875
)
;

boundaryField
{
    outletCentralUnloaded
    {
        type            zeroGradient;
    }
    inletCentralUnloaded
    {
        type            zeroGradient;
    }
    outletFuelElement
    {
        type            zeroGradient;
    }
    inletFuelElement
    {
        type            zeroGradient;
    }
    defaultFaces
    {
        type            zeroGradient;
    }
}


// ************************************************************************* //
