/*--------------------------------*- C++ -*----------------------------------*\
| =========                 |                                                 |
| \\      /  F ield         | OpenFOAM: The Open Source CFD Toolbox           |
|  \\    /   O peration     | Version:  2212                                  |
|   \\  /    A nd           | Website:  www.openfoam.com                      |
|    \\/     M anipulation  |                                                 |
\*---------------------------------------------------------------------------*/
FoamFile
{
    version     2.0;
    format      ascii;
    arch        "LSB;label=32;scalar=64";
    class       volScalarField;
    location    "56/neutroRegion";
    object      TFuel;
}
// * * * * * * * * * * * * * * * * * * * * * * * * * * * * * * * * * * * * * //

dimensions      [0 0 0 1 0 0 0];

internalField   nonuniform List<scalar> 
350
(
0
0
0
0
0
0
0
0
0
0
0
0
0
0
0
0
0
0
0
0
0
0
0
0
0
0
0
0
0
0
0
0
0
0
0
0
0
0
0
0
0
0
0
0
0
0
0
0
0
0
2220.16
3007.24
3763.6
4477.74
5138.69
5736.3
6261.37
6705.78
7062.67
7326.49
7493.15
7560.08
7526.27
7392.31
7160.37
6834.16
6418.74
5920.23
5345.4
4701.09
3992.89
3224.29
2395.02
1504.05
564.513
2252.86
3049.13
3814.26
4536.6
5205.06
5809.38
6340.25
6789.46
7150.06
7416.47
7584.55
7651.7
7616.89
7480.72
7245.42
6914.73
6493.81
5988.9
5406.88
4754.74
4038.15
3260.65
2421.85
1520.57
570.057
2214.87
3000.49
3755.49
4468.33
5128.1
5724.67
6248.83
6692.5
7048.8
7312.22
7478.67
7545.57
7511.93
7378.32
7146.92
6821.42
6406.87
5909.38
5335.69
4692.61
3985.75
3218.57
2390.81
1501.47
563.638
2245.49
3039.62
3802.72
4523.15
5189.87
5792.63
6322.15
6770.25
7129.99
7395.79
7563.53
7630.62
7596.03
7460.37
7225.83
6896.17
6476.51
5973.08
5392.72
4742.38
4027.72
3252.27
2415.67
1516.76
568.779
2245.49
3039.62
3802.72
4523.15
5189.87
5792.63
6322.15
6770.25
7129.99
7395.79
7563.53
7630.62
7596.03
7460.37
7225.83
6896.17
6476.51
5973.08
5392.72
4742.37
4027.72
3252.27
2415.67
1516.76
568.779
2214.87
3000.5
3755.49
4468.33
5128.1
5724.67
6248.83
6692.5
7048.8
7312.22
7478.67
7545.57
7511.93
7378.32
7146.92
6821.42
6406.87
5909.38
5335.69
4692.62
3985.75
3218.57
2390.81
1501.47
563.639
2252.86
3049.13
3814.27
4536.6
5205.06
5809.38
6340.25
6789.46
7150.06
7416.47
7584.55
7651.69
7616.88
7480.72
7245.42
6914.73
6493.81
5988.9
5406.88
4754.74
4038.15
3260.65
2421.85
1520.57
570.057
2220.16
3007.24
3763.61
4477.74
5138.69
5736.3
6261.37
6705.78
7062.67
7326.49
7493.15
7560.08
7526.27
7392.31
7160.37
6834.16
6418.74
5920.23
5345.4
4701.09
3992.89
3224.29
2395.02
1504.05
564.513
2245.49
3039.62
3802.72
4523.15
5189.87
5792.63
6322.15
6770.25
7129.99
7395.79
7563.53
7630.62
7596.03
7460.37
7225.83
6896.17
6476.51
5973.08
5392.72
4742.38
4027.72
3252.27
2415.67
1516.76
568.779
2214.87
3000.49
3755.49
4468.33
5128.1
5724.67
6248.83
6692.49
7048.8
7312.22
7478.67
7545.57
7511.93
7378.32
7146.92
6821.42
6406.87
5909.38
5335.69
4692.61
3985.75
3218.57
2390.81
1501.47
563.638
2214.87
3000.5
3755.49
4468.33
5128.1
5724.67
6248.83
6692.5
7048.8
7312.22
7478.67
7545.57
7511.93
7378.32
7146.92
6821.42
6406.87
5909.38
5335.69
4692.62
3985.75
3218.57
2390.81
1501.47
563.638
2245.49
3039.62
3802.72
4523.15
5189.87
5792.63
6322.15
6770.25
7129.99
7395.79
7563.53
7630.62
7596.03
7460.37
7225.83
6896.17
6476.51
5973.08
5392.72
4742.38
4027.72
3252.27
2415.67
1516.76
568.779
)
;

boundaryField
{
    outletCentralUnloaded
    {
        type            zeroGradient;
    }
    inletCentralUnloaded
    {
        type            zeroGradient;
    }
    outletFuelElement
    {
        type            zeroGradient;
    }
    inletFuelElement
    {
        type            zeroGradient;
    }
    defaultFaces
    {
        type            zeroGradient;
    }
}


// ************************************************************************* //
