/*--------------------------------*- C++ -*----------------------------------*\
| =========                 |                                                 |
| \\      /  F ield         | OpenFOAM: The Open Source CFD Toolbox           |
|  \\    /   O peration     | Version:  2212                                  |
|   \\  /    A nd           | Website:  www.openfoam.com                      |
|    \\/     M anipulation  |                                                 |
\*---------------------------------------------------------------------------*/
FoamFile
{
    version     2.0;
    format      ascii;
    arch        "LSB;label=32;scalar=64";
    class       surfaceScalarField;
    location    "48/fluidRegion";
    object      alphaRhoPhi;
}
// * * * * * * * * * * * * * * * * * * * * * * * * * * * * * * * * * * * * * //

dimensions      [1 0 -1 0 0 0 0];

oriented        oriented;

internalField   nonuniform List<scalar> 
661
(
-0.00584961
1.69346e-12
-0.00584964
1.2359e-12
-0.00584967
-4.64642e-13
-0.00584969
-1.91337e-12
-0.0058497
-2.2913e-12
-0.00584969
-1.76199e-12
-0.00584968
-9.68216e-13
-0.00584967
-4.16611e-13
-0.00584965
-1.9546e-13
-0.00584963
-1.11325e-13
-0.00584961
1.07412e-13
-0.00584958
5.30183e-13
-0.00584956
9.67837e-13
-0.00584954
1.10538e-12
-0.00584953
7.58971e-13
-0.00584952
2.84632e-14
-0.00584951
-6.62135e-13
-0.0058495
-8.49824e-13
-0.00584948
-2.74779e-13
-0.00584947
9.27697e-13
-0.00584946
2.32075e-12
-0.00584948
3.42483e-12
-0.00584951
3.6769e-12
-0.00584956
1.06788e-12
-4.85229e-12
-0.00584961
-0.00584964
-0.00584967
-0.00584969
-0.0058497
-0.00584969
-0.00584968
-0.00584967
-0.00584965
-0.00584963
-0.00584961
-0.00584958
-0.00584956
-0.00584954
-0.00584953
-0.00584952
-0.00584951
-0.0058495
-0.00584948
-0.00584947
-0.00584946
-0.00584948
-0.00584951
-0.00584956
-0.00939466
6.45288e-07
-0.00939489
3.13555e-07
-0.00939516
3.48442e-07
-0.0093954
3.23393e-07
-0.00939563
3.03928e-07
-0.00939585
2.86861e-07
-0.00939605
2.71898e-07
-0.00939624
2.57411e-07
-0.00939642
2.39439e-07
-0.00939658
2.10296e-07
-0.0093967
1.57777e-07
-0.00939674
6.49006e-08
-0.00939667
-8.54854e-08
-0.00939641
-3.00984e-07
-0.00939591
-5.81969e-07
-0.0093951
-9.09833e-07
-0.00939396
-1.25867e-06
-0.00939248
-1.61212e-06
-0.00939064
-1.98187e-06
-0.00938837
-2.41805e-06
-0.00938551
-3.01216e-06
-0.00938181
-3.85989e-06
-0.00937697
-4.98997e-06
-0.00937124
-5.88008e-06
-7.18578e-06
-0.00931051
-1.82827e-08
-1.72181e-08
-0.00931006
-8.1599e-08
-8.30029e-08
-0.00930958
-7.92274e-08
-8.05561e-08
-0.00930914
-7.06404e-08
-7.2035e-08
-0.00930874
-6.34372e-08
-6.48535e-08
-0.00930836
-5.67548e-08
-5.82313e-08
-0.00930801
-5.05238e-08
-5.20894e-08
-0.00930768
-4.43048e-08
-4.59432e-08
-0.00930739
-3.69958e-08
-3.87271e-08
-0.00930714
-2.64143e-08
-2.82464e-08
-0.00930698
-8.79398e-09
-1.07349e-08
-0.00930696
2.08949e-08
1.8809e-08
-0.00930717
6.72064e-08
6.50227e-08
-0.00930773
1.37595e-07
1.35218e-07
-0.00930874
2.30057e-07
2.27427e-07
-0.00931029
3.40461e-07
3.3756e-07
-0.00931243
4.61158e-07
4.57915e-07
-0.00931517
5.87223e-07
5.83677e-07
-0.00931854
7.23168e-07
7.19165e-07
-0.00932268
8.86323e-07
8.82116e-07
-0.00932786
1.10783e-06
1.10259e-06
-0.00933449
1.41375e-06
1.40711e-06
-0.00934299
1.78535e-06
1.77491e-06
-0.00935265
1.91854e-06
1.90509e-06
1.87693e-06
1.86459e-06
-0.00940845
3.18643e-07
-0.00940878
3.07416e-07
-0.0094091
3.03312e-07
-0.00940939
2.78534e-07
-0.00940966
2.57281e-07
-0.00940991
2.38223e-07
-0.00941013
2.2076e-07
-0.00941034
2.02942e-07
-0.00941051
1.80163e-07
-0.00941066
1.43839e-07
-0.00941073
8.0427e-08
-0.00941069
-2.72891e-08
-0.00941046
-1.9708e-07
-0.00940995
-4.38522e-07
-0.00940907
-7.49285e-07
-0.00940774
-1.1092e-06
-0.00940593
-1.49142e-06
-0.00940362
-1.88091e-06
-0.00940076
-2.29388e-06
-0.00939725
-2.78707e-06
-0.00939285
-3.45572e-06
-0.00938722
-4.39347e-06
-0.00938004
-5.54187e-06
-0.00937202
-6.23382e-06
-6.5116e-06
-0.00932938
1.91374e-09
-0.00932911
4.81124e-10
-0.00932884
6.09205e-10
-0.00932859
5.86512e-10
-0.00932837
6.1316e-10
-0.00932816
6.16638e-10
-0.00932797
5.64169e-10
-0.00932779
5.28622e-10
-0.00932764
4.56005e-10
-0.00932751
3.32074e-10
-0.00932744
2.23708e-10
-0.00932747
1.06478e-10
-0.00932765
-3.75758e-11
-0.00932806
-2.24224e-10
-0.00932876
-4.96296e-10
-0.0093298
-8.59344e-10
-0.00933122
-1.23597e-09
-0.00933302
-1.51914e-09
-0.00933523
-1.89811e-09
-0.00933793
-2.23145e-09
-0.0093413
-2.48641e-09
-0.0093456
-3.20889e-09
-0.00935106
-4.85514e-09
-0.00935723
-5.47718e-09
-7.44567e-09
-0.00932939
-3.14742e-07
-0.00932912
-3.06687e-07
-0.00932885
-3.02192e-07
-0.00932861
-2.77424e-07
-0.00932838
-2.56093e-07
-0.00932817
-2.37001e-07
-0.00932798
-2.19565e-07
-0.0093278
-2.01747e-07
-0.00932765
-1.79019e-07
-0.00932752
-1.42799e-07
-0.00932746
-7.94482e-08
-0.00932748
2.82044e-08
-0.00932766
1.97902e-07
-0.00932807
4.39166e-07
-0.00932877
7.4961e-07
-0.00932982
1.10905e-06
-0.00933123
1.49075e-06
-0.00933303
1.87977e-06
-0.00933525
2.29198e-06
-0.00933795
2.78431e-06
-0.00934131
3.45193e-06
-0.00934562
4.38773e-06
-0.00935108
5.5319e-06
-0.00935724
6.22168e-06
6.49394e-06
-0.00940845
1.65957e-08
-0.00940878
8.21488e-08
-0.0094091
7.96289e-08
-0.0094094
7.10793e-08
-0.00940966
6.39426e-08
-0.00940991
5.73214e-08
-0.00941013
5.11551e-08
-0.00941034
4.50232e-08
-0.00941052
3.77955e-08
-0.00941066
2.72764e-08
-0.00941073
9.76033e-09
-0.00941069
-1.98025e-08
-0.00941046
-6.59758e-08
-0.00940995
-1.36248e-07
-0.00940907
-2.28637e-07
-0.00940774
-3.39035e-07
-0.00940593
-4.59748e-07
-0.00940361
-5.85867e-07
-0.00940075
-7.22082e-07
-0.00939724
-8.85768e-07
-0.00939284
-1.10783e-06
-0.0093872
-1.41464e-06
-0.00938002
-1.78749e-06
-0.009372
-1.91955e-06
-1.86635e-06
-0.00931051
-6.45336e-07
-1.92643e-08
-0.00931006
-3.1352e-07
-8.30543e-08
-0.00930958
-3.48397e-07
-8.07921e-08
-0.00930914
-3.23344e-07
-7.22399e-08
-0.00930874
-3.03834e-07
-6.508e-08
-0.00930836
-2.86748e-07
-5.8451e-08
-0.00930801
-2.71777e-07
-5.22629e-08
-0.00930768
-2.5727e-07
-4.60839e-08
-0.00930739
-2.39303e-07
-3.87982e-08
-0.00930714
-2.10185e-07
-2.82044e-08
-0.00930698
-1.57646e-07
-1.06119e-08
-0.00930696
-6.47463e-08
1.90174e-08
-0.00930717
8.56566e-08
6.53508e-08
-0.00930773
3.0112e-07
1.35742e-07
-0.00930874
5.81982e-07
2.28264e-07
-0.00931029
9.09629e-07
3.38847e-07
-0.00931243
1.25817e-06
4.59801e-07
-0.00931517
1.6112e-06
5.86264e-07
-0.00931854
1.98003e-06
7.23004e-07
-0.00932268
2.41456e-06
8.87823e-07
-0.00932786
3.00549e-06
1.11156e-06
-0.00933449
3.84825e-06
1.42071e-06
-0.00934299
4.96836e-06
1.79711e-06
-0.00935265
5.85238e-06
1.93203e-06
7.15294e-06
1.90428e-06
-0.00939466
-0.00939489
-0.00939516
-0.0093954
-0.00939563
-0.00939585
-0.00939605
-0.00939624
-0.00939642
-0.00939658
-0.0093967
-0.00939675
-0.00939667
-0.00939641
-0.00939591
-0.0093951
-0.00939396
-0.00939248
-0.00939064
-0.00938837
-0.00938551
-0.00938181
-0.00937697
-0.00937124
-0.00932938
-3.17404e-07
8.77281e-10
-0.00932911
-3.05714e-07
-8.97931e-10
-0.00932884
-3.01505e-07
-8.35429e-10
-0.00932859
-2.76675e-07
-8.85725e-10
-0.00932837
-2.55323e-07
-9.71316e-10
-0.00932816
-2.36189e-07
-1.06142e-09
-0.00932797
-2.18685e-07
-1.14099e-09
-0.00932779
-2.00808e-07
-1.25619e-09
-0.00932764
-1.77998e-07
-1.37063e-09
-0.00932751
-1.4169e-07
-1.48996e-09
-0.00932744
-7.82398e-08
-1.64761e-09
-0.00932747
2.9547e-08
-1.85868e-09
-0.00932765
1.99382e-07
-2.13154e-09
-0.00932806
4.40875e-07
-2.47835e-09
-0.00932876
7.51671e-07
-2.90657e-09
-0.0093298
1.11162e-06
-3.44913e-09
-0.00933122
1.49411e-06
-4.30066e-09
-0.00933302
1.88428e-06
-5.58218e-09
-0.00933523
2.29847e-06
-7.46024e-09
-0.00933793
2.79382e-06
-9.93806e-09
-0.0093413
3.4669e-06
-1.42119e-08
-0.0093456
4.41029e-06
-1.89935e-08
-0.00935106
5.56645e-06
-2.53913e-08
-0.00935722
6.26517e-06
-2.88705e-08
6.55473e-06
-3.8409e-08
-0.00940845
-0.00940877
-0.0094091
-0.00940939
-0.00940966
-0.00940991
-0.00941013
-0.00941033
-0.00941051
-0.00941066
-0.00941073
-0.00941069
-0.00941046
-0.00940995
-0.00940907
-0.00940774
-0.00940593
-0.00940362
-0.00940076
-0.00939725
-0.00939285
-0.00938721
-0.00938004
-0.00937202
-0.00940845
3.15132e-07
-0.00940878
3.07127e-07
-0.0094091
3.02634e-07
-0.0094094
2.77877e-07
-0.00940966
2.56641e-07
-0.00940991
2.376e-07
-0.00941013
2.20181e-07
-0.00941034
2.02421e-07
-0.00941052
1.79721e-07
-0.00941066
1.43476e-07
-0.00941073
8.01633e-08
-0.00941069
-2.74308e-08
-0.00941046
-1.97027e-07
-0.00940995
-4.38245e-07
-0.00940907
-7.48728e-07
-0.00940774
-1.1083e-06
-0.00940593
-1.4901e-06
-0.00940361
-1.87917e-06
-0.00940075
-2.29183e-06
-0.00939724
-2.78486e-06
-0.00939284
-3.45466e-06
-0.0093872
-4.39527e-06
-0.00938002
-5.54887e-06
-0.009372
-6.24639e-06
-6.51213e-06
-0.00932939
-0.00932912
-0.00932885
-0.00932861
-0.00932838
-0.00932817
-0.00932798
-0.0093278
-0.00932765
-0.00932753
-0.00932746
-0.00932748
-0.00932767
-0.00932807
-0.00932877
-0.00932982
-0.00933123
-0.00933304
-0.00933525
-0.00933795
-0.00934131
-0.00934562
-0.00935108
-0.00935724
)
;

boundaryField
{
    outletCentralUnloaded
    {
        type            calculated;
        value           nonuniform List<scalar> 2(0.0058496 0.0058496);
    }
    inletCentralUnloaded
    {
        type            calculated;
        value           nonuniform List<scalar> 2(-0.0058737 -0.0058737);
    }
    outletFuelElement
    {
        type            calculated;
        value           nonuniform List<scalar> 
12
(
0.00939408
0.00931116
0.00940817
0.00932966
0.00932967
0.00940818
0.00931116
0.00939408
0.00932966
0.00940817
0.00940818
0.00932967
)
;
    }
    inletFuelElement
    {
        type            calculated;
        value           nonuniform List<scalar> 
12
(
-0.00953683
-0.00953684
-0.00953682
-0.00953682
-0.00953684
-0.00953683
-0.00953684
-0.00953683
-0.00953682
-0.00953682
-0.00953683
-0.00953684
)
;
    }
    defaultFaces
    {
        type            calculated;
        value           nonuniform List<scalar> 
450
(
6.04001e-24
-3.48161e-24
0
8.31495e-24
-2.41394e-24
0
1.82599e-23
-5.51871e-24
0
-2.55416e-23
-8.52678e-24
0
-6.59036e-24
-2.24597e-23
0
-1.44241e-23
-1.00652e-23
0
-1.3589e-23
-1.10361e-23
0
-1.26435e-23
-9.51768e-24
0
-5.54828e-24
-4.43887e-24
0
-1.55268e-23
-8.38972e-24
0
-1.20784e-23
-3.67163e-24
0
-4.41463e-24
-6.05815e-25
0
3.41046e-24
5.03637e-24
0
2.01726e-23
1.24189e-23
0
4.71233e-23
1.31357e-23
0
5.95384e-23
2.18024e-23
0
7.86765e-23
-5.18118e-25
0
1.11733e-22
3.89018e-23
0
7.28325e-23
-1.39553e-22
0
-9.43296e-23
-7.85812e-23
0
-8.54131e-23
-3.56301e-23
0
2.09512e-22
-2.00214e-22
0
-1.32623e-22
-6.51355e-23
0
-1.8844e-22
-1.14339e-22
0
-2.44322e-22
-3.30458e-22
0
6.48573e-24
0
1.13211e-23
0
3.86754e-24
0
9.97388e-24
0
-6.21397e-24
0
1.08271e-23
0
2.27978e-24
0
4.83606e-24
0
-2.58499e-24
0
4.18067e-24
0
2.27481e-24
0
-1.66731e-24
0
-7.41535e-24
0
-4.17416e-24
0
-2.85864e-23
0
-4.41685e-23
0
7.80662e-23
0
-9.3703e-23
0
3.82751e-23
0
-1.44037e-22
0
-1.85448e-22
0
1.63583e-22
0
0
0
-1.49979e-22
0
-1.92127e-22
0
0
-3.71925e-24
3.81122e-24
-3.93099e-24
4.08138e-24
-8.53269e-24
-4.49122e-24
-4.76315e-24
5.09162e-24
-8.23408e-24
0
4.10461e-25
0
8.22241e-24
0
4.35307e-23
-1.02642e-22
0
-3.7805e-23
4.74754e-23
0
-3.2452e-22
-1.10041e-22
-7.4737e-23
9.59695e-23
0
0
0
0
0
0
0
0
0
0
0
0
0
0
0
0
0
0
0
0
0
0
0
0
0
-1.01918e-23
3.70613e-24
3.77371e-24
7.54743e-24
7.73507e-24
2.32052e-23
-9.97387e-24
-7.9791e-24
8.28529e-24
-8.28529e-24
-6.49626e-24
-8.66168e-24
-9.11912e-24
-4.55956e-24
-4.83605e-24
-2.41803e-24
1.03399e-23
-5.16997e-24
-4.18067e-24
-2.78711e-24
-1.1374e-24
-2.27481e-24
8.33652e-25
1.87572e-24
3.70767e-24
5.5615e-24
8.34831e-24
8.34831e-24
2.85864e-23
1.90576e-23
2.20842e-23
3.31263e-23
-2.6022e-23
5.20441e-23
6.24686e-23
7.80857e-23
-1.531e-22
1.14825e-22
-1.44036e-22
-7.20182e-23
0
-9.2724e-23
-2.45374e-22
2.45374e-22
-1.10696e-22
-2.21392e-22
0
-1.49979e-22
-2.8819e-22
-1.92127e-22
1.22397e-23
0
0
2.07718e-24
0
0
1.46277e-23
0
-3.08618e-23
-3.02135e-23
0
3.97937e-24
1.03861e-23
0
-4.13203e-24
-2.10494e-23
0
0
-2.32742e-23
0
9.09557e-24
-2.24973e-23
0
9.64705e-24
-9.71814e-24
0
-1.03131e-23
-1.88879e-23
0
0
-1.53411e-23
0
6.0504e-24
-5.98308e-24
0
0
6.04816e-24
-0
-1.84907e-24
3.37754e-23
-0
-4.16357e-24
5.02342e-23
-0
-9.50513e-24
7.15313e-23
-0
-1.10156e-23
3.37235e-23
-0
0
1.54715e-22
-0
0
6.99543e-23
-0
-3.81982e-23
-6.23176e-23
-0
4.7925e-23
-8.24365e-24
-0
0
2.30112e-22
-0
0
-1.32327e-23
-0
0
-8.45294e-23
-0
2.99797e-22
-2.07046e-22
-0
9.60473e-23
0
0
0
-3.93099e-24
4.08138e-24
-4.26635e-24
0
-4.76315e-24
-2.54581e-24
0
-1.49339e-24
4.10461e-25
0
8.22241e-24
0
0
-5.13211e-23
3.08227e-23
-1.13415e-22
0
0
-1.6226e-22
-2.20082e-22
0
0
1.20449e-23
0
7.54743e-24
0
3.86754e-24
0
1.19687e-23
0
-6.21397e-24
0
6.49627e-24
0
6.83935e-24
0
7.25409e-24
0
-2.58499e-24
0
4.18067e-24
0
3.03308e-24
0
-1.66731e-24
0
-7.41535e-24
-0
-1.25225e-23
-0
-9.5288e-24
-0
-4.41685e-23
-0
9.10772e-23
-0
-9.3703e-23
-0
1.14825e-22
-0
-9.60243e-23
-0
-1.85448e-22
-0
1.63583e-22
-0
5.53481e-23
-0
-1.49979e-22
-0
-9.60635e-23
-0
-5.55919e-24
0
-1.13211e-23
1.50949e-23
-7.73507e-24
3.86754e-24
-7.9791e-24
-2.19425e-23
-2.07132e-24
6.21397e-24
-2.16542e-24
-1.94888e-23
-2.27978e-24
-1.59585e-23
-4.83606e-24
-1.69262e-23
0
-1.03399e-23
-4.18067e-24
-9.7549e-24
-2.65394e-24
-5.30789e-24
0
3.43882e-24
5.5615e-24
1.66845e-23
1.25225e-23
4.17415e-23
9.52879e-24
7.14659e-23
3.31263e-23
8.83369e-23
1.3011e-23
6.50551e-23
6.24686e-23
1.40554e-22
-7.65501e-23
1.14825e-22
0
-1.2003e-22
0
-1.23632e-22
-4.08957e-23
2.04478e-22
1.66044e-22
-2.21392e-22
7.49896e-23
-1.12484e-22
0
-1.92127e-22
-0
-0
-0
-0
-0
-0
-0
-0
-0
-0
-0
0
0
0
0
0
0
0
0
0
0
0
0
0
0
)
;
    }
    baffle_master
    {
        type            calculated;
        value           nonuniform List<scalar> 
150
(
3.5513e-30
0
0
1.23883e-29
0
0
-3.03599e-30
0
7.76568e-30
-1.31033e-29
0
0
-1.5223e-28
0
-1.24272e-28
5.43506e-30
0
0
-2.17487e-30
0
1.55365e-29
6.3887e-30
0
7.76891e-30
8.15613e-31
0
0
1.14977e-31
0
0
-1.50753e-30
0
0
4.77691e-30
0
0
-1.26242e-30
0
0
-3.3778e-31
0
0
1.46345e-29
0
1.55468e-29
-1.53348e-31
0
-2.42938e-31
6.49391e-29
0
4.6648e-29
1.18155e-29
0
-1.55506e-29
1.7271e-29
0
1.16639e-29
1.84347e-30
0
-3.11065e-29
-1.86137e-30
0
-3.11091e-29
2.25222e-28
0
1.24447e-28
-4.37734e-30
0
0
1.12315e-29
0
0
-1.09371e-29
0
6.22387e-29
0
5.63503e-29
-0
-3.10602e-29
5.97428e-29
-0
7.76568e-30
-1.51942e-29
0
0
-5.41144e-29
0
3.10679e-29
5.03772e-29
0
0
-6.90232e-29
0
3.10731e-29
-2.92787e-29
0
7.76891e-30
-2.41305e-29
0
0
-4.41095e-30
0
1.94255e-30
-4.41168e-30
0
-1.9427e-30
3.11576e-30
-0
0
1.87003e-29
-0
-1.55442e-29
2.95253e-29
-0
-1.55455e-29
5.07344e-29
-0
1.55468e-29
2.46128e-29
-0
-2.42938e-31
3.87235e-31
-0
-3.10987e-29
-2.46197e-29
0
1.55506e-29
-1.50055e-29
0
-7.77596e-30
-2.20091e-30
0
0
-2.52596e-29
-0
-6.22181e-29
-1.38121e-29
-0
1.8667e-28
-2.64308e-28
-0
0
7.20482e-29
-0
0
-9.7552e-30
-0
-6.22387e-29
1.42677e-28
0
)
;
    }
    baffle_slave
    {
        type            calculated;
        value           nonuniform List<scalar> 
150
(
6.65559e-24
-0
7.30629e-24
3.47472e-25
-0
-3.71925e-24
7.121e-25
-0
3.81122e-24
1.62191e-24
-0
3.93099e-24
-1.53139e-23
-0
-4.08138e-24
2.62361e-24
-0
0
3.14636e-24
-0
4.49123e-24
-1.96497e-24
-0
0
8.32242e-25
-0
2.54581e-24
4.27254e-26
-0
2.74469e-24
1.85972e-24
-0
0
-5.11141e-26
0
0
5.68357e-26
0
3.65125e-24
3.19985e-25
0
8.22241e-24
-1.82672e-24
0
9.38748e-24
-6.43828e-24
0
-2.17653e-23
-7.40168e-23
0
-7.69817e-23
-2.52006e-24
0
0
-6.69847e-23
0
-7.56099e-23
-9.98608e-24
0
-4.74754e-23
-8.58622e-24
0
-6.12095e-23
1.64457e-22
0
8.11299e-23
-4.80705e-23
0
0
-4.66708e-24
0
-7.47371e-23
-2.51109e-23
0
-9.59695e-23
-1.2113e-23
2.12751e-23
0
-3.93184e-25
6.74675e-24
0
-2.27828e-24
8.5452e-24
0
-1.26378e-25
7.92592e-24
0
-7.73049e-24
-1.26768e-23
0
-6.56167e-25
1.26863e-23
0
-6.08421e-24
7.02687e-24
0
-3.29196e-24
4.7456e-24
0
7.60012e-24
7.60907e-24
0
-1.00389e-24
5.46886e-24
0
-7.22864e-25
2.74309e-24
0
2.23667e-25
2.50459e-24
0
-1.86785e-24
-9.37789e-25
0
1.36184e-23
-4.55978e-24
0
2.80484e-23
-1.52714e-23
0
-4.33492e-24
-2.26293e-23
0
-3.92613e-23
-1.88882e-23
0
-3.96653e-23
-4.3246e-23
0
-3.09018e-23
-9.49563e-24
0
1.49914e-24
2.48727e-23
0
-3.43962e-23
3.98305e-23
0
-2.06651e-22
1.05632e-22
0
-1.33815e-22
-1.073e-22
0
-4.8623e-23
4.78375e-23
0
6.49796e-23
1.97889e-22
0
)
;
    }
}


// ************************************************************************* //
