/*--------------------------------*- C++ -*----------------------------------*\
| =========                 |                                                 |
| \\      /  F ield         | OpenFOAM: The Open Source CFD Toolbox           |
|  \\    /   O peration     | Version:  2212                                  |
|   \\  /    A nd           | Website:  www.openfoam.com                      |
|    \\/     M anipulation  |                                                 |
\*---------------------------------------------------------------------------*/
FoamFile
{
    version     2.0;
    format      ascii;
    arch        "LSB;label=32;scalar=64";
    class       volScalarField;
    location    "48/fluidRegion";
    object      heatFlux.structure;
}
// * * * * * * * * * * * * * * * * * * * * * * * * * * * * * * * * * * * * * //

dimensions      [1 0 -3 0 0 0 0];

internalField   nonuniform List<scalar> 
350
(
-258309
-258313
-258317
-258320
-258324
-258326
-258329
-258331
-258334
-258336
-258338
-258340
-258342
-258344
-258347
-258349
-258351
-258354
-258356
-258358
-258360
-258363
-258366
-258371
-258805
-258309
-258313
-258317
-258320
-258324
-258326
-258329
-258331
-258334
-258336
-258338
-258340
-258342
-258344
-258347
-258349
-258351
-258354
-258356
-258358
-258360
-258363
-258366
-258371
-258805
440679
1.33427e+06
2.2067e+06
3.0442e+06
3.83358e+06
4.56239e+06
5.21914e+06
5.79348e+06
6.27636e+06
6.66016e+06
6.93884e+06
7.108e+06
7.16499e+06
7.1089e+06
6.94063e+06
6.66283e+06
6.27987e+06
5.7978e+06
5.2242e+06
4.56817e+06
3.84e+06
3.05127e+06
2.21445e+06
1.34301e+06
450824
445608
1.34944e+06
2.23186e+06
3.07896e+06
3.87739e+06
4.61456e+06
5.27884e+06
5.85976e+06
6.34817e+06
6.73637e+06
7.01825e+06
7.18936e+06
7.247e+06
7.19028e+06
7.02008e+06
6.7391e+06
6.35177e+06
5.86419e+06
5.28401e+06
4.62047e+06
3.88397e+06
3.08621e+06
2.2398e+06
1.35838e+06
455973
439894
1.33186e+06
2.20269e+06
3.03866e+06
3.8266e+06
4.55408e+06
5.20964e+06
5.78293e+06
6.26492e+06
6.64802e+06
6.92619e+06
7.09505e+06
7.15193e+06
7.09594e+06
6.92798e+06
6.65068e+06
6.26842e+06
5.78723e+06
5.21467e+06
4.55984e+06
3.833e+06
3.04571e+06
2.21042e+06
1.34056e+06
450004
444472
1.34595e+06
2.22607e+06
3.07096e+06
3.86731e+06
4.60255e+06
5.26509e+06
5.8445e+06
6.33164e+06
6.71883e+06
6.99997e+06
7.17063e+06
7.22812e+06
7.17155e+06
7.00179e+06
6.72155e+06
6.33522e+06
5.84891e+06
5.27024e+06
4.60843e+06
3.87385e+06
3.07817e+06
2.23397e+06
1.35484e+06
454788
444472
1.34595e+06
2.22607e+06
3.07096e+06
3.8673e+06
4.60255e+06
5.26509e+06
5.8445e+06
6.33164e+06
6.71883e+06
6.99997e+06
7.17063e+06
7.22812e+06
7.17154e+06
7.00179e+06
6.72155e+06
6.33522e+06
5.8489e+06
5.27024e+06
4.60843e+06
3.87385e+06
3.07817e+06
2.23397e+06
1.35484e+06
454788
439894
1.33186e+06
2.20269e+06
3.03866e+06
3.8266e+06
4.55408e+06
5.20964e+06
5.78293e+06
6.26492e+06
6.64802e+06
6.92619e+06
7.09505e+06
7.15193e+06
7.09594e+06
6.92798e+06
6.65068e+06
6.26842e+06
5.78723e+06
5.21467e+06
4.55984e+06
3.833e+06
3.04571e+06
2.21042e+06
1.34056e+06
450004
445608
1.34944e+06
2.23186e+06
3.07896e+06
3.87739e+06
4.61456e+06
5.27884e+06
5.85976e+06
6.34817e+06
6.73637e+06
7.01825e+06
7.18936e+06
7.247e+06
7.19028e+06
7.02008e+06
6.7391e+06
6.35177e+06
5.86419e+06
5.28401e+06
4.62047e+06
3.88397e+06
3.08621e+06
2.2398e+06
1.35838e+06
455973
440679
1.33427e+06
2.2067e+06
3.0442e+06
3.83358e+06
4.56239e+06
5.21914e+06
5.79348e+06
6.27636e+06
6.66016e+06
6.93884e+06
7.108e+06
7.16499e+06
7.1089e+06
6.94063e+06
6.66283e+06
6.27987e+06
5.7978e+06
5.2242e+06
4.56817e+06
3.84e+06
3.05127e+06
2.21445e+06
1.34301e+06
450824
444472
1.34595e+06
2.22607e+06
3.07096e+06
3.8673e+06
4.60255e+06
5.26509e+06
5.8445e+06
6.33164e+06
6.71883e+06
6.99997e+06
7.17063e+06
7.22812e+06
7.17154e+06
7.00179e+06
6.72155e+06
6.33522e+06
5.8489e+06
5.27024e+06
4.60843e+06
3.87385e+06
3.07817e+06
2.23397e+06
1.35484e+06
454788
439893
1.33186e+06
2.20269e+06
3.03866e+06
3.8266e+06
4.55408e+06
5.20964e+06
5.78293e+06
6.26492e+06
6.64802e+06
6.92619e+06
7.09505e+06
7.15193e+06
7.09594e+06
6.92798e+06
6.65068e+06
6.26842e+06
5.78723e+06
5.21467e+06
4.55984e+06
3.833e+06
3.04571e+06
2.21042e+06
1.34056e+06
450004
439894
1.33186e+06
2.20269e+06
3.03866e+06
3.8266e+06
4.55408e+06
5.20964e+06
5.78293e+06
6.26492e+06
6.64802e+06
6.92619e+06
7.09505e+06
7.15193e+06
7.09594e+06
6.92798e+06
6.65068e+06
6.26842e+06
5.78723e+06
5.21467e+06
4.55984e+06
3.833e+06
3.04571e+06
2.21042e+06
1.34056e+06
450004
444472
1.34595e+06
2.22607e+06
3.07096e+06
3.8673e+06
4.60255e+06
5.26509e+06
5.8445e+06
6.33164e+06
6.71883e+06
6.99997e+06
7.17063e+06
7.22812e+06
7.17154e+06
7.00179e+06
6.72154e+06
6.33522e+06
5.8489e+06
5.27024e+06
4.60843e+06
3.87385e+06
3.07817e+06
2.23397e+06
1.35484e+06
454788
)
;

boundaryField
{
    outletCentralUnloaded
    {
        type            zeroGradient;
    }
    inletCentralUnloaded
    {
        type            zeroGradient;
    }
    outletFuelElement
    {
        type            zeroGradient;
    }
    inletFuelElement
    {
        type            zeroGradient;
    }
    defaultFaces
    {
        type            zeroGradient;
    }
    baffle_master
    {
        type            zeroGradient;
    }
    baffle_slave
    {
        type            zeroGradient;
    }
}


// ************************************************************************* //
