/*--------------------------------*- C++ -*----------------------------------*\
| =========                 |                                                 |
| \\      /  F ield         | OpenFOAM: The Open Source CFD Toolbox           |
|  \\    /   O peration     | Version:  2212                                  |
|   \\  /    A nd           | Website:  www.openfoam.com                      |
|    \\/     M anipulation  |                                                 |
\*---------------------------------------------------------------------------*/
FoamFile
{
    version     2.0;
    format      ascii;
    arch        "LSB;label=32;scalar=64";
    class       volScalarField;
    location    "48/fluidRegion";
    object      htc;
}
// * * * * * * * * * * * * * * * * * * * * * * * * * * * * * * * * * * * * * //

dimensions      [1 0 -3 -1 0 0 0];

internalField   nonuniform List<scalar> 
350
(
3101.36
3101.38
3101.41
3101.44
3101.46
3101.48
3101.49
3101.51
3101.52
3101.52
3101.53
3101.54
3101.54
3101.55
3101.56
3101.57
3101.59
3101.6
3101.61
3101.62
3101.63
3101.65
3101.68
3101.71
3106.9
3101.36
3101.38
3101.41
3101.44
3101.46
3101.48
3101.49
3101.51
3101.52
3101.52
3101.53
3101.54
3101.54
3101.55
3101.56
3101.57
3101.59
3101.6
3101.61
3101.62
3101.63
3101.65
3101.68
3101.71
3106.9
27231.7
27151
26964.8
26653.6
26218.7
25662.4
24987.4
24197.8
23298.6
22297
21202.6
20027.7
18787.7
17499.2
16178.8
14840.3
13494.1
12148.2
10811.9
9501.18
8244.24
7087.59
6102.36
5382.21
4943.07
27320.5
27239.4
27053.9
26742.7
26307.4
25750
25073.5
24281.4
23379
22373
21272.9
20091.1
18843
17545.9
16216.9
14870.7
13518.1
12166.8
10825.9
9510.73
8249.21
7088.09
6099.32
5377.97
4941.11
27217.6
27136.5
26950.3
26639.1
26204.4
25648.2
24973.6
24184.4
23285.7
22284.9
21191.4
20017.7
18778.9
17491.7
16172.6
14835.3
13490
12144.9
10809.2
9499.16
8242.84
7086.75
6101.94
5381.95
4942.93
27300.8
27219.9
27034.1
26722.9
26287.6
25730.4
25054.2
24262.7
23360.9
22355.9
21257
20076.8
18830.5
17535.3
16208.3
14863.9
13512.7
12162.6
10822.8
9508.63
8248.17
7088.07
6100.13
5379.07
4941.63
27300.8
27219.9
27034.1
26722.9
26287.6
25730.4
25054.2
24262.7
23360.9
22355.9
21257
20076.8
18830.5
17535.3
16208.3
14863.9
13512.7
12162.6
10822.8
9508.63
8248.17
7088.07
6100.13
5379.07
4941.63
27217.7
27136.5
26950.4
26639.2
26204.4
25648.3
24973.6
24184.4
23285.8
22284.9
21191.4
20017.7
18778.9
17491.7
16172.6
14835.3
13490
12144.9
10809.2
9499.16
8242.83
7086.75
6101.93
5381.93
4942.92
27320.5
27239.4
27053.9
26742.7
26307.4
25750
25073.5
24281.4
23379
22373
21272.9
20091.1
18843
17545.9
16216.9
14870.7
13518.1
12166.8
10825.9
9510.73
8249.21
7088.09
6099.32
5377.97
4941.11
27231.7
27151
26964.8
26653.6
26218.7
25662.4
24987.4
24197.8
23298.6
22297
21202.6
20027.7
18787.7
17499.2
16178.8
14840.3
13494.1
12148.2
10811.9
9501.18
8244.24
7087.59
6102.36
5382.21
4943.07
27300.8
27219.9
27034.1
26722.9
26287.6
25730.4
25054.2
24262.7
23360.9
22355.9
21257
20076.8
18830.5
17535.3
16208.3
14863.9
13512.7
12162.6
10822.8
9508.63
8248.17
7088.07
6100.13
5379.07
4941.63
27217.6
27136.5
26950.3
26639.1
26204.4
25648.2
24973.6
24184.4
23285.7
22284.9
21191.4
20017.7
18778.9
17491.7
16172.6
14835.3
13490
12144.9
10809.2
9499.16
8242.83
7086.75
6101.94
5381.95
4942.93
27217.7
27136.5
26950.4
26639.2
26204.4
25648.3
24973.6
24184.4
23285.8
22284.9
21191.4
20017.7
18778.9
17491.7
16172.6
14835.3
13490
12144.9
10809.2
9499.16
8242.83
7086.75
6101.93
5381.94
4942.92
27300.8
27219.9
27034.1
26722.9
26287.6
25730.4
25054.2
24262.7
23360.9
22355.9
21257
20076.8
18830.5
17535.3
16208.3
14863.9
13512.7
12162.6
10822.8
9508.63
8248.17
7088.07
6100.13
5379.07
4941.63
)
;

boundaryField
{
    outletCentralUnloaded
    {
        type            zeroGradient;
    }
    inletCentralUnloaded
    {
        type            zeroGradient;
    }
    outletFuelElement
    {
        type            zeroGradient;
    }
    inletFuelElement
    {
        type            zeroGradient;
    }
    defaultFaces
    {
        type            zeroGradient;
    }
    baffle_master
    {
        type            zeroGradient;
    }
    baffle_slave
    {
        type            zeroGradient;
    }
}


// ************************************************************************* //
