/*--------------------------------*- C++ -*----------------------------------*\
| =========                 |                                                 |
| \\      /  F ield         | OpenFOAM: The Open Source CFD Toolbox           |
|  \\    /   O peration     | Version:  2212                                  |
|   \\  /    A nd           | Website:  www.openfoam.com                      |
|    \\/     M anipulation  |                                                 |
\*---------------------------------------------------------------------------*/
FoamFile
{
    version     2.0;
    format      ascii;
    arch        "LSB;label=32;scalar=64";
    class       volScalarField;
    location    "48/fluidRegion";
    object      nut;
}
// * * * * * * * * * * * * * * * * * * * * * * * * * * * * * * * * * * * * * //

dimensions      [0 2 -1 0 0 0 0];

internalField   nonuniform List<scalar> 
350
(
0.000537605
0.000537561
0.000537519
0.000537477
0.000537436
0.000537395
0.000537354
0.000537311
0.000537266
0.00053722
0.000537174
0.000537128
0.000537084
0.000537043
0.000537008
0.00053698
0.000536962
0.000536958
0.000536976
0.000537028
0.000537131
0.000537314
0.000537619
0.000538108
0.000539498
0.000537605
0.000537561
0.000537519
0.000537477
0.000537436
0.000537395
0.000537354
0.000537311
0.000537266
0.00053722
0.000537174
0.000537128
0.000537084
0.000537043
0.000537008
0.00053698
0.000536962
0.000536958
0.000536976
0.000537028
0.000537131
0.000537314
0.000537619
0.000538108
0.000539498
0.0104087
0.0101902
0.00991959
0.00959304
0.00921549
0.00879213
0.0083283
0.00782948
0.00730134
0.00674974
0.00618083
0.00560119
0.00501797
0.00443891
0.00387228
0.00332657
0.00280995
0.00232978
0.0018923
0.00150274
0.00116569
0.000885603
0.000666753
0.00051173
0.00041637
0.010476
0.0102563
0.00998477
0.00965675
0.00927733
0.00885169
0.00838522
0.00788343
0.007352
0.00679682
0.00622405
0.00564032
0.00505281
0.00446932
0.00389822
0.00334811
0.00282729
0.00234324
0.0019023
0.00150973
0.00117019
0.000888159
0.000667939
0.00051211
0.000416436
0.0103979
0.0101793
0.00990894
0.00958266
0.00920545
0.00878249
0.00831912
0.00782081
0.00729323
0.00674222
0.00617394
0.00559498
0.00501245
0.00443409
0.00386818
0.00332316
0.00280719
0.00232763
0.00189069
0.00150158
0.00116491
0.000885114
0.000666471
0.000511581
0.00041632
0.0104611
0.0102417
0.0099703
0.00964257
0.00926354
0.00883838
0.00837247
0.00787133
0.00734061
0.00678621
0.0062143
0.00563148
0.00504491
0.00446242
0.00389233
0.00334321
0.00282334
0.00234017
0.00190002
0.00150814
0.00116917
0.000887584
0.000667678
0.000512035
0.000416427
0.0104611
0.0102417
0.0099703
0.00964257
0.00926354
0.00883838
0.00837247
0.00787133
0.00734061
0.00678621
0.0062143
0.00563148
0.00504491
0.00446242
0.00389233
0.00334321
0.00282334
0.00234017
0.00190002
0.00150814
0.00116917
0.000887584
0.000667678
0.000512034
0.000416427
0.0103979
0.0101794
0.00990895
0.00958266
0.00920546
0.0087825
0.00831912
0.00782081
0.00729323
0.00674222
0.00617395
0.00559498
0.00501245
0.0044341
0.00386818
0.00332316
0.00280719
0.00232763
0.00189069
0.00150158
0.0011649
0.000885113
0.00066647
0.00051158
0.00041632
0.010476
0.0102563
0.00998477
0.00965675
0.00927733
0.00885169
0.00838522
0.00788343
0.007352
0.00679682
0.00622405
0.00564032
0.00505281
0.00446932
0.00389822
0.00334811
0.00282729
0.00234324
0.0019023
0.00150973
0.00117019
0.000888159
0.000667939
0.00051211
0.000416436
0.0104087
0.0101902
0.00991959
0.00959304
0.00921549
0.00879213
0.0083283
0.00782948
0.00730134
0.00674974
0.00618083
0.00560119
0.00501797
0.0044389
0.00387228
0.00332657
0.00280995
0.00232978
0.0018923
0.00150274
0.00116569
0.000885604
0.000666754
0.000511731
0.000416371
0.0104611
0.0102417
0.0099703
0.00964257
0.00926354
0.00883838
0.00837247
0.00787133
0.00734061
0.00678621
0.0062143
0.00563148
0.00504491
0.00446242
0.00389233
0.00334321
0.00282334
0.00234017
0.00190002
0.00150814
0.00116917
0.000887584
0.000667678
0.000512035
0.000416428
0.0103979
0.0101794
0.00990894
0.00958266
0.00920545
0.00878249
0.00831912
0.00782081
0.00729323
0.00674222
0.00617394
0.00559498
0.00501245
0.00443409
0.00386818
0.00332316
0.00280719
0.00232763
0.00189069
0.00150158
0.0011649
0.000885112
0.000666469
0.000511578
0.000416318
0.0103979
0.0101794
0.00990895
0.00958266
0.00920546
0.0087825
0.00831912
0.00782081
0.00729323
0.00674222
0.00617395
0.00559498
0.00501245
0.0044341
0.00386818
0.00332316
0.00280719
0.00232763
0.00189069
0.00150158
0.0011649
0.000885113
0.00066647
0.00051158
0.000416319
0.0104611
0.0102417
0.0099703
0.00964257
0.00926354
0.00883838
0.00837247
0.00787133
0.00734061
0.00678621
0.0062143
0.00563148
0.00504491
0.00446241
0.00389233
0.00334321
0.00282334
0.00234017
0.00190002
0.00150814
0.00116917
0.000887585
0.00066768
0.000512037
0.00041643
)
;

boundaryField
{
    outletCentralUnloaded
    {
        type            zeroGradient;
    }
    inletCentralUnloaded
    {
        type            zeroGradient;
    }
    outletFuelElement
    {
        type            zeroGradient;
    }
    inletFuelElement
    {
        type            zeroGradient;
    }
    defaultFaces
    {
        type            zeroGradient;
    }
    baffle_master
    {
        type            calculated;
        value           nonuniform List<scalar> 
150
(
0.000537605
0.000537605
0.000537605
0.000537561
0.000537561
0.000537561
0.000537519
0.000537519
0.000537519
0.000537477
0.000537477
0.000537477
0.000537436
0.000537436
0.000537436
0.000537395
0.000537395
0.000537395
0.000537354
0.000537354
0.000537354
0.000537311
0.000537311
0.000537311
0.000537266
0.000537266
0.000537266
0.00053722
0.00053722
0.00053722
0.000537174
0.000537174
0.000537174
0.000537128
0.000537128
0.000537128
0.000537084
0.000537084
0.000537084
0.000537043
0.000537043
0.000537043
0.000537008
0.000537008
0.000537008
0.00053698
0.00053698
0.00053698
0.000536962
0.000536962
0.000536962
0.000536958
0.000536958
0.000536958
0.000536976
0.000536976
0.000536976
0.000537028
0.000537028
0.000537028
0.000537131
0.000537131
0.000537131
0.000537314
0.000537314
0.000537314
0.000537619
0.000537619
0.000537619
0.000538108
0.000538108
0.000538108
0.000539498
0.000539498
0.000539498
0.000537605
0.000537605
0.000537605
0.000537561
0.000537561
0.000537561
0.000537519
0.000537519
0.000537519
0.000537477
0.000537477
0.000537477
0.000537436
0.000537436
0.000537436
0.000537395
0.000537395
0.000537395
0.000537354
0.000537354
0.000537354
0.000537311
0.000537311
0.000537311
0.000537266
0.000537266
0.000537266
0.00053722
0.00053722
0.00053722
0.000537174
0.000537174
0.000537174
0.000537128
0.000537128
0.000537128
0.000537084
0.000537084
0.000537084
0.000537043
0.000537043
0.000537043
0.000537008
0.000537008
0.000537008
0.00053698
0.00053698
0.00053698
0.000536962
0.000536962
0.000536962
0.000536958
0.000536958
0.000536958
0.000536976
0.000536976
0.000536976
0.000537028
0.000537028
0.000537028
0.000537131
0.000537131
0.000537131
0.000537314
0.000537314
0.000537314
0.000537619
0.000537619
0.000537619
0.000538108
0.000538108
0.000538108
0.000539498
0.000539498
0.000539498
)
;
    }
    baffle_slave
    {
        type            calculated;
        value           nonuniform List<scalar> 
150
(
0.010476
0.0104611
0.0104611
0.0102563
0.0102417
0.0102417
0.00998477
0.0099703
0.0099703
0.00965675
0.00964257
0.00964257
0.00927733
0.00926354
0.00926354
0.00885169
0.00883838
0.00883838
0.00838522
0.00837247
0.00837247
0.00788343
0.00787133
0.00787133
0.007352
0.00734061
0.00734061
0.00679682
0.00678621
0.00678621
0.00622405
0.0062143
0.0062143
0.00564032
0.00563148
0.00563148
0.00505281
0.00504491
0.00504491
0.00446932
0.00446242
0.00446241
0.00389822
0.00389233
0.00389233
0.00334811
0.00334321
0.00334321
0.00282729
0.00282334
0.00282334
0.00234324
0.00234017
0.00234017
0.0019023
0.00190002
0.00190002
0.00150973
0.00150814
0.00150814
0.00117019
0.00116917
0.00116917
0.000888159
0.000887584
0.000887585
0.000667939
0.000667678
0.00066768
0.00051211
0.000512035
0.000512037
0.000416436
0.000416427
0.00041643
0.0104611
0.010476
0.0104611
0.0102417
0.0102563
0.0102417
0.0099703
0.00998477
0.0099703
0.00964257
0.00965675
0.00964257
0.00926354
0.00927733
0.00926354
0.00883838
0.00885169
0.00883838
0.00837247
0.00838522
0.00837247
0.00787133
0.00788343
0.00787133
0.00734061
0.007352
0.00734061
0.00678621
0.00679682
0.00678621
0.0062143
0.00622405
0.0062143
0.00563148
0.00564032
0.00563148
0.00504491
0.00505281
0.00504491
0.00446242
0.00446932
0.00446242
0.00389233
0.00389822
0.00389233
0.00334321
0.00334811
0.00334321
0.00282334
0.00282729
0.00282334
0.00234017
0.00234324
0.00234017
0.00190002
0.0019023
0.00190002
0.00150814
0.00150973
0.00150814
0.00116917
0.00117019
0.00116917
0.000887584
0.000888159
0.000887584
0.000667678
0.000667939
0.000667678
0.000512034
0.00051211
0.000512035
0.000416427
0.000416436
0.000416428
)
;
    }
}


// ************************************************************************* //
