/*--------------------------------*- C++ -*----------------------------------*\
| =========                 |                                                 |
| \\      /  F ield         | OpenFOAM: The Open Source CFD Toolbox           |
|  \\    /   O peration     | Version:  2212                                  |
|   \\  /    A nd           | Website:  www.openfoam.com                      |
|    \\/     M anipulation  |                                                 |
\*---------------------------------------------------------------------------*/
FoamFile
{
    version     2.0;
    format      ascii;
    arch        "LSB;label=32;scalar=64";
    class       volScalarField;
    location    "48/fluidRegion";
    object      p_rgh;
}
// * * * * * * * * * * * * * * * * * * * * * * * * * * * * * * * * * * * * * //

dimensions      [1 -1 -2 0 0 0 0];

internalField   nonuniform List<scalar> 
350
(
3.44743e+06
3.44773e+06
3.44802e+06
3.44832e+06
3.44861e+06
3.44891e+06
3.44921e+06
3.4495e+06
3.44979e+06
3.45009e+06
3.45038e+06
3.45068e+06
3.45097e+06
3.45127e+06
3.45156e+06
3.45186e+06
3.45215e+06
3.45245e+06
3.45275e+06
3.45304e+06
3.45334e+06
3.45364e+06
3.45393e+06
3.45423e+06
3.45451e+06
3.44743e+06
3.44773e+06
3.44802e+06
3.44832e+06
3.44861e+06
3.44891e+06
3.44921e+06
3.4495e+06
3.44979e+06
3.45009e+06
3.45038e+06
3.45068e+06
3.45097e+06
3.45127e+06
3.45156e+06
3.45186e+06
3.45215e+06
3.45245e+06
3.45275e+06
3.45304e+06
3.45334e+06
3.45364e+06
3.45393e+06
3.45423e+06
3.45451e+06
3.47381e+06
3.52557e+06
3.57672e+06
3.62696e+06
3.67599e+06
3.72351e+06
3.76927e+06
3.81303e+06
3.85458e+06
3.89374e+06
3.93034e+06
3.96425e+06
3.99536e+06
4.02359e+06
4.04888e+06
4.07125e+06
4.09072e+06
4.10741e+06
4.12143e+06
4.13297e+06
4.14223e+06
4.14942e+06
4.1548e+06
4.15865e+06
4.16133e+06
3.47381e+06
3.52557e+06
3.57672e+06
3.62696e+06
3.67599e+06
3.72351e+06
3.76927e+06
3.81303e+06
3.85458e+06
3.89374e+06
3.93034e+06
3.96425e+06
3.99536e+06
4.02359e+06
4.04888e+06
4.07125e+06
4.09072e+06
4.10741e+06
4.12143e+06
4.13297e+06
4.14223e+06
4.14942e+06
4.1548e+06
4.15865e+06
4.16133e+06
3.47381e+06
3.52557e+06
3.57672e+06
3.62696e+06
3.67599e+06
3.72351e+06
3.76927e+06
3.81303e+06
3.85458e+06
3.89374e+06
3.93034e+06
3.96425e+06
3.99536e+06
4.02359e+06
4.04888e+06
4.07125e+06
4.09072e+06
4.10741e+06
4.12143e+06
4.13297e+06
4.14223e+06
4.14942e+06
4.1548e+06
4.15865e+06
4.16133e+06
3.47381e+06
3.52557e+06
3.57672e+06
3.62696e+06
3.67599e+06
3.72351e+06
3.76927e+06
3.81303e+06
3.85458e+06
3.89374e+06
3.93034e+06
3.96425e+06
3.99536e+06
4.02359e+06
4.04888e+06
4.07125e+06
4.09072e+06
4.10741e+06
4.12143e+06
4.13297e+06
4.14223e+06
4.14942e+06
4.1548e+06
4.15865e+06
4.16133e+06
3.47381e+06
3.52557e+06
3.57672e+06
3.62696e+06
3.67599e+06
3.72351e+06
3.76927e+06
3.81303e+06
3.85458e+06
3.89374e+06
3.93034e+06
3.96425e+06
3.99536e+06
4.02359e+06
4.04888e+06
4.07125e+06
4.09072e+06
4.10741e+06
4.12143e+06
4.13297e+06
4.14223e+06
4.14942e+06
4.1548e+06
4.15865e+06
4.16133e+06
3.47381e+06
3.52557e+06
3.57672e+06
3.62696e+06
3.67599e+06
3.72351e+06
3.76927e+06
3.81303e+06
3.85458e+06
3.89374e+06
3.93034e+06
3.96425e+06
3.99536e+06
4.02359e+06
4.04888e+06
4.07125e+06
4.09072e+06
4.10741e+06
4.12143e+06
4.13297e+06
4.14223e+06
4.14942e+06
4.1548e+06
4.15865e+06
4.16133e+06
3.47381e+06
3.52557e+06
3.57672e+06
3.62696e+06
3.67599e+06
3.72351e+06
3.76927e+06
3.81303e+06
3.85458e+06
3.89374e+06
3.93034e+06
3.96425e+06
3.99536e+06
4.02359e+06
4.04888e+06
4.07125e+06
4.09072e+06
4.10741e+06
4.12143e+06
4.13297e+06
4.14223e+06
4.14942e+06
4.1548e+06
4.15865e+06
4.16133e+06
3.47381e+06
3.52557e+06
3.57672e+06
3.62696e+06
3.67599e+06
3.72351e+06
3.76927e+06
3.81303e+06
3.85458e+06
3.89374e+06
3.93034e+06
3.96425e+06
3.99536e+06
4.02359e+06
4.04888e+06
4.07125e+06
4.09072e+06
4.10741e+06
4.12143e+06
4.13297e+06
4.14223e+06
4.14942e+06
4.1548e+06
4.15865e+06
4.16133e+06
3.47381e+06
3.52557e+06
3.57672e+06
3.62696e+06
3.67599e+06
3.72351e+06
3.76927e+06
3.81303e+06
3.85458e+06
3.89374e+06
3.93034e+06
3.96425e+06
3.99536e+06
4.02359e+06
4.04888e+06
4.07125e+06
4.09072e+06
4.10741e+06
4.12143e+06
4.13297e+06
4.14223e+06
4.14942e+06
4.1548e+06
4.15865e+06
4.16133e+06
3.47381e+06
3.52557e+06
3.57672e+06
3.62696e+06
3.67599e+06
3.72351e+06
3.76927e+06
3.81303e+06
3.85458e+06
3.89374e+06
3.93034e+06
3.96425e+06
3.99536e+06
4.02359e+06
4.04888e+06
4.07125e+06
4.09072e+06
4.10741e+06
4.12143e+06
4.13297e+06
4.14223e+06
4.14942e+06
4.1548e+06
4.15865e+06
4.16133e+06
3.47381e+06
3.52557e+06
3.57672e+06
3.62696e+06
3.67599e+06
3.72351e+06
3.76927e+06
3.81303e+06
3.85458e+06
3.89374e+06
3.93034e+06
3.96425e+06
3.99536e+06
4.02359e+06
4.04888e+06
4.07125e+06
4.09072e+06
4.10741e+06
4.12143e+06
4.13297e+06
4.14223e+06
4.14942e+06
4.1548e+06
4.15865e+06
4.16133e+06
3.47381e+06
3.52557e+06
3.57672e+06
3.62696e+06
3.67599e+06
3.72351e+06
3.76927e+06
3.81303e+06
3.85458e+06
3.89374e+06
3.93034e+06
3.96425e+06
3.99536e+06
4.02359e+06
4.04888e+06
4.07125e+06
4.09072e+06
4.10741e+06
4.12143e+06
4.13297e+06
4.14223e+06
4.14942e+06
4.1548e+06
4.15865e+06
4.16133e+06
)
;

boundaryField
{
    outletCentralUnloaded
    {
        type            fixedValue;
        value           uniform 3.44728e+06;
    }
    inletCentralUnloaded
    {
        type            zeroGradient;
    }
    outletFuelElement
    {
        type            fixedValue;
        value           uniform 3.44728e+06;
    }
    inletFuelElement
    {
        type            zeroGradient;
    }
    defaultFaces
    {
        type            zeroGradient;
    }
    baffle_master
    {
        type            zeroGradient;
    }
    baffle_slave
    {
        type            zeroGradient;
    }
}


// ************************************************************************* //
