/*--------------------------------*- C++ -*----------------------------------*\
| =========                 |                                                 |
| \\      /  F ield         | OpenFOAM: The Open Source CFD Toolbox           |
|  \\    /   O peration     | Version:  2212                                  |
|   \\  /    A nd           | Website:  www.openfoam.com                      |
|    \\/     M anipulation  |                                                 |
\*---------------------------------------------------------------------------*/
FoamFile
{
    version     2.0;
    format      ascii;
    arch        "LSB;label=32;scalar=64";
    class       volScalarField;
    location    "48/fluidRegion";
    object      Re;
}
// * * * * * * * * * * * * * * * * * * * * * * * * * * * * * * * * * * * * * //

dimensions      [0 0 0 0 0 0 0];

internalField   nonuniform List<scalar> 
350
(
174031
174032
174032
174033
174034
174034
174033
174033
174033
174032
174031
174031
174030
174029
174029
174028
174028
174028
174027
174027
174027
174027
174028
174029
174392
174031
174032
174032
174033
174034
174034
174033
174033
174033
174032
174031
174031
174030
174029
174029
174028
174028
174028
174027
174027
174027
174027
174028
174029
174392
55419.3
55369.2
55370.5
55370.7
55369.7
55367.4
55363.5
55357.9
55350.4
55340.8
55328.9
55314.7
55298.2
55279.5
55258.2
55233.4
55203.2
55165.7
55120.1
55072.3
55041.8
55088.2
55355.3
56100.2
56587.9
54928.8
54871.1
54868.2
54864.3
54859.4
54853.4
54846.2
54837.5
54827.1
54814.9
54800.9
54785.4
54769.3
54753.5
54738.7
54725
54711.1
54695.3
54676.9
54662
54671.8
54769
55103.6
55938.7
56535.2
55501.3
55450.9
55452.6
55453.1
55452.3
55450.2
55446.4
55440.9
55433.5
55423.8
55411.8
55397.2
55380.1
55360.2
55337.2
55309.8
55276.1
55234.2
55183.3
55129.1
55090.7
55127.3
55382
56112.3
56589.8
55038.5
54983
54981.2
54978.4
54974.6
54969.7
54963.5
54955.7
54946.1
54934.6
54921.3
54906.3
54890.3
54874
54858
54841.9
54824.5
54803.9
54779.4
54757.2
54757.9
54843.6
55163
55977.6
56548.3
55038.5
54983
54981.2
54978.4
54974.6
54969.7
54963.5
54955.7
54946.1
54934.6
54921.3
54906.3
54890.3
54874
54858
54841.9
54824.5
54803.9
54779.4
54757.2
54757.9
54843.6
55163
55977.6
56548.3
55501.3
55450.9
55452.6
55453.1
55452.3
55450.1
55446.4
55440.9
55433.5
55423.8
55411.7
55397.2
55380
55360.2
55337.2
55309.8
55276.1
55234.1
55183.2
55129
55090.6
55127.1
55381.9
56112.2
56589.7
54928.8
54871.1
54868.2
54864.3
54859.4
54853.4
54846.2
54837.5
54827.1
54814.9
54800.9
54785.4
54769.3
54753.5
54738.7
54725
54711.1
54695.3
54676.9
54662
54671.8
54768.9
55103.6
55938.7
56535.2
55419.3
55369.2
55370.5
55370.7
55369.7
55367.4
55363.5
55357.9
55350.4
55340.8
55328.9
55314.7
55298.2
55279.5
55258.3
55233.4
55203.2
55165.7
55120.1
55072.3
55041.8
55088.2
55355.3
56100.2
56587.9
55038.5
54983
54981.2
54978.4
54974.6
54969.7
54963.5
54955.7
54946.1
54934.6
54921.3
54906.3
54890.3
54874
54858
54841.9
54824.5
54803.9
54779.4
54757.2
54757.9
54843.6
55163
55977.6
56548.3
55501.3
55450.9
55452.6
55453.1
55452.3
55450.2
55446.4
55440.9
55433.5
55423.8
55411.8
55397.2
55380.1
55360.2
55337.2
55309.8
55276.1
55234.2
55183.3
55129.1
55090.7
55127.2
55382
56112.3
56589.8
55501.3
55450.9
55452.6
55453.1
55452.3
55450.1
55446.4
55440.9
55433.5
55423.8
55411.7
55397.2
55380
55360.2
55337.2
55309.8
55276.1
55234.1
55183.2
55129
55090.6
55127.1
55381.9
56112.2
56589.7
55038.5
54983
54981.2
54978.4
54974.6
54969.7
54963.5
54955.7
54946.1
54934.7
54921.3
54906.3
54890.3
54874
54858
54841.9
54824.5
54803.9
54779.4
54757.2
54757.9
54843.7
55163
55977.6
56548.3
)
;

boundaryField
{
    outletCentralUnloaded
    {
        type            zeroGradient;
    }
    inletCentralUnloaded
    {
        type            zeroGradient;
    }
    outletFuelElement
    {
        type            zeroGradient;
    }
    inletFuelElement
    {
        type            zeroGradient;
    }
    defaultFaces
    {
        type            zeroGradient;
    }
    baffle_master
    {
        type            zeroGradient;
    }
    baffle_slave
    {
        type            zeroGradient;
    }
}


// ************************************************************************* //
