/*--------------------------------*- C++ -*----------------------------------*\
| =========                 |                                                 |
| \\      /  F ield         | OpenFOAM: The Open Source CFD Toolbox           |
|  \\    /   O peration     | Version:  2212                                  |
|   \\  /    A nd           | Website:  www.openfoam.com                      |
|    \\/     M anipulation  |                                                 |
\*---------------------------------------------------------------------------*/
FoamFile
{
    version     2.0;
    format      ascii;
    arch        "LSB;label=32;scalar=64";
    class       volScalarField;
    location    "48/fluidRegion";
    object      T.cladAvForNeutronics;
}
// * * * * * * * * * * * * * * * * * * * * * * * * * * * * * * * * * * * * * //

dimensions      [0 0 0 1 0 0 0];

internalField   nonuniform List<scalar> 
350
(
0
0
0
0
0
0
0
0
0
0
0
0
0
0
0
0
0
0
0
0
0
0
0
0
0
0
0
0
0
0
0
0
0
0
0
0
0
0
0
0
0
0
0
0
0
0
0
0
0
0
1843.28
1881.5
1906.79
1919.12
1918.62
1905.58
1880.41
1843.68
1796.1
1738.51
1671.9
1597.37
1516.13
1429.53
1339
1246
1151.92
1057.83
964.117
869.958
772.435
665.26
537.711
377.746
187.006
1871.66
1910.51
1936.18
1948.67
1948.11
1934.78
1909.1
1871.66
1823.17
1764.49
1696.63
1620.68
1537.9
1449.64
1357.36
1262.56
1166.66
1070.8
975.412
879.724
780.814
672.309
543.271
381.358
188.227
1838.66
1876.81
1902.05
1914.38
1913.91
1900.93
1875.86
1839.25
1791.83
1734.44
1668.04
1593.74
1512.75
1426.42
1336.16
1243.45
1149.66
1055.85
962.395
868.475
771.172
664.209
536.893
377.219
186.82
1865.28
1903.97
1929.53
1941.98
1941.42
1928.14
1902.56
1865.27
1816.97
1758.54
1690.95
1615.33
1532.89
1445.01
1353.13
1258.74
1163.26
1067.8
972.8
877.465
778.875
670.677
541.983
380.519
187.945
1865.28
1903.97
1929.53
1941.98
1941.42
1928.14
1902.56
1865.27
1816.97
1758.54
1690.95
1615.33
1532.89
1445.01
1353.13
1258.74
1163.26
1067.8
972.8
877.465
778.875
670.677
541.983
380.519
187.945
1838.67
1876.82
1902.05
1914.38
1913.91
1900.93
1875.86
1839.26
1791.83
1734.44
1668.04
1593.74
1512.75
1426.42
1336.16
1243.45
1149.66
1055.85
962.396
868.476
771.173
664.21
536.894
377.219
186.82
1871.66
1910.51
1936.18
1948.67
1948.11
1934.78
1909.1
1871.66
1823.17
1764.49
1696.63
1620.68
1537.9
1449.64
1357.36
1262.56
1166.66
1070.8
975.412
879.724
780.814
672.309
543.271
381.358
188.227
1843.27
1881.5
1906.79
1919.12
1918.62
1905.58
1880.41
1843.67
1796.1
1738.51
1671.9
1597.37
1516.13
1429.53
1339
1246
1151.92
1057.83
964.117
869.958
772.435
665.261
537.711
377.745
187.006
1865.28
1903.97
1929.53
1941.98
1941.42
1928.14
1902.56
1865.27
1816.97
1758.54
1690.95
1615.33
1532.89
1445.01
1353.13
1258.74
1163.26
1067.8
972.8
877.465
778.875
670.677
541.983
380.519
187.945
1838.66
1876.81
1902.05
1914.38
1913.91
1900.93
1875.86
1839.25
1791.83
1734.44
1668.04
1593.74
1512.75
1426.42
1336.16
1243.45
1149.66
1055.85
962.396
868.475
771.172
664.209
536.893
377.219
186.82
1838.67
1876.82
1902.05
1914.38
1913.91
1900.93
1875.86
1839.26
1791.83
1734.44
1668.04
1593.74
1512.75
1426.42
1336.16
1243.45
1149.66
1055.85
962.396
868.476
771.173
664.209
536.894
377.219
186.82
1865.28
1903.97
1929.53
1941.98
1941.42
1928.14
1902.56
1865.27
1816.97
1758.54
1690.95
1615.33
1532.89
1445.01
1353.13
1258.74
1163.26
1067.8
972.8
877.465
778.875
670.677
541.983
380.519
187.945
)
;

boundaryField
{
    outletCentralUnloaded
    {
        type            zeroGradient;
    }
    inletCentralUnloaded
    {
        type            zeroGradient;
    }
    outletFuelElement
    {
        type            zeroGradient;
    }
    inletFuelElement
    {
        type            zeroGradient;
    }
    defaultFaces
    {
        type            zeroGradient;
    }
    baffle_master
    {
        type            zeroGradient;
    }
    baffle_slave
    {
        type            zeroGradient;
    }
}


// ************************************************************************* //
