/*--------------------------------*- C++ -*----------------------------------*\
| =========                 |                                                 |
| \\      /  F ield         | OpenFOAM: The Open Source CFD Toolbox           |
|  \\    /   O peration     | Version:  2212                                  |
|   \\  /    A nd           | Website:  www.openfoam.com                      |
|    \\/     M anipulation  |                                                 |
\*---------------------------------------------------------------------------*/
FoamFile
{
    version     2.0;
    format      ascii;
    arch        "LSB;label=32;scalar=64";
    class       volScalarField;
    location    "48/fluidRegion";
    object      Tci.nuclearFuelPin;
}
// * * * * * * * * * * * * * * * * * * * * * * * * * * * * * * * * * * * * * //

dimensions      [0 0 0 1 0 0 0];

internalField   nonuniform List<scalar> 
350
(
0
0
0
0
0
0
0
0
0
0
0
0
0
0
0
0
0
0
0
0
0
0
0
0
0
0
0
0
0
0
0
0
0
0
0
0
0
0
0
0
0
0
0
0
0
0
0
0
0
0
1849.26
1899.61
1936.74
1960.43
1970.65
1967.5
1951.24
1922.3
1881.28
1828.9
1766.07
1693.84
1613.37
1526.01
1433.19
1336.42
1237.15
1136.51
1035.02
931.955
824.55
706.671
567.765
395.972
193.124
1877.71
1928.82
1966.47
1990.46
2000.74
1997.41
1980.74
1951.18
1909.32
1855.92
1791.87
1718.25
1636.26
1547.23
1452.64
1354.02
1252.87
1150.38
1047.12
942.431
833.526
714.194
573.669
399.793
194.415
1844.64
1894.89
1931.95
1955.62
1965.85
1962.74
1946.56
1917.74
1876.86
1824.66
1762.04
1690.03
1609.81
1522.72
1430.19
1333.71
1234.73
1134.39
1033.17
930.36
823.192
705.544
566.892
395.413
192.927
1871.31
1922.23
1959.75
1983.65
1993.9
1990.6
1974.02
1944.59
1902.91
1849.73
1785.95
1712.64
1630.99
1542.34
1448.15
1349.96
1249.24
1147.18
1044.33
940.009
831.45
712.453
572.301
398.907
194.117
1871.31
1922.23
1959.75
1983.65
1993.9
1990.6
1974.02
1944.59
1902.91
1849.73
1785.95
1712.64
1630.99
1542.34
1448.15
1349.96
1249.24
1147.18
1044.33
940.009
831.45
712.453
572.301
398.907
194.117
1844.64
1894.89
1931.95
1955.62
1965.85
1962.74
1946.56
1917.74
1876.86
1824.66
1762.04
1690.03
1609.81
1522.72
1430.19
1333.71
1234.74
1134.39
1033.17
930.36
823.193
705.545
566.893
395.413
192.928
1877.71
1928.82
1966.47
1990.46
2000.74
1997.41
1980.74
1951.18
1909.32
1855.92
1791.87
1718.25
1636.26
1547.23
1452.64
1354.02
1252.87
1150.38
1047.12
942.431
833.526
714.194
573.669
399.793
194.415
1849.26
1899.61
1936.74
1960.43
1970.65
1967.5
1951.24
1922.3
1881.28
1828.9
1766.07
1693.84
1613.37
1526.01
1433.19
1336.42
1237.15
1136.51
1035.02
931.955
824.55
706.671
567.765
395.972
193.124
1871.31
1922.23
1959.75
1983.65
1993.9
1990.6
1974.02
1944.59
1902.91
1849.73
1785.95
1712.64
1630.99
1542.34
1448.15
1349.96
1249.24
1147.18
1044.33
940.009
831.45
712.453
572.301
398.907
194.117
1844.64
1894.89
1931.95
1955.62
1965.85
1962.74
1946.56
1917.74
1876.86
1824.66
1762.04
1690.03
1609.81
1522.72
1430.19
1333.71
1234.73
1134.39
1033.17
930.36
823.192
705.544
566.892
395.412
192.927
1844.64
1894.89
1931.95
1955.62
1965.85
1962.74
1946.56
1917.74
1876.86
1824.66
1762.04
1690.03
1609.81
1522.72
1430.19
1333.71
1234.74
1134.39
1033.17
930.36
823.193
705.545
566.893
395.413
192.928
1871.31
1922.23
1959.75
1983.65
1993.9
1990.6
1974.02
1944.59
1902.91
1849.73
1785.95
1712.64
1630.99
1542.34
1448.15
1349.96
1249.24
1147.18
1044.33
940.009
831.45
712.453
572.301
398.907
194.117
)
;

boundaryField
{
    outletCentralUnloaded
    {
        type            zeroGradient;
    }
    inletCentralUnloaded
    {
        type            zeroGradient;
    }
    outletFuelElement
    {
        type            zeroGradient;
    }
    inletFuelElement
    {
        type            zeroGradient;
    }
    defaultFaces
    {
        type            zeroGradient;
    }
    baffle_master
    {
        type            zeroGradient;
    }
    baffle_slave
    {
        type            zeroGradient;
    }
}


// ************************************************************************* //
