/*--------------------------------*- C++ -*----------------------------------*\
| =========                 |                                                 |
| \\      /  F ield         | OpenFOAM: The Open Source CFD Toolbox           |
|  \\    /   O peration     | Version:  2212                                  |
|   \\  /    A nd           | Website:  www.openfoam.com                      |
|    \\/     M anipulation  |                                                 |
\*---------------------------------------------------------------------------*/
FoamFile
{
    version     2.0;
    format      ascii;
    arch        "LSB;label=32;scalar=64";
    class       volScalarField;
    location    "48/fluidRegion";
    object      Tfi.nuclearFuelPin;
}
// * * * * * * * * * * * * * * * * * * * * * * * * * * * * * * * * * * * * * //

dimensions      [0 0 0 1 0 0 0];

internalField   nonuniform List<scalar> 
350
(
0
0
0
0
0
0
0
0
0
0
0
0
0
0
0
0
0
0
0
0
0
0
0
0
0
0
0
0
0
0
0
0
0
0
0
0
0
0
0
0
0
0
0
0
0
0
0
0
0
0
2408.88
3597.06
4745.07
5835.19
6850.57
7775.46
8595.5
9297.93
9871.81
10308.2
10600.3
10743.5
10735.7
10577
10270
9819.58
9232.76
8518.38
7686.58
6748.25
5713.73
4591.62
3387.27
2105.99
767.282
2443.57
3645.55
4806.82
5909.45
6936.41
7871.76
8700.98
9411.17
9991.27
10432.2
10727.2
10871.5
10863
10701.8
10390.6
9934.28
9340.02
8616.76
7774.84
6825.32
5778.68
4643.62
3425.45
2129.37
775.129
2403.26
3589.27
4735.18
5823.33
6836.89
7760.13
8578.72
9279.93
9852.84
10288.5
10580.1
10723.2
10715.5
10557.2
10250.9
9801.4
9215.77
8502.8
7672.6
6736.05
5703.45
4583.41
3381.26
2102.31
766.041
2435.74
3634.52
4792.72
5892.46
6916.74
7849.67
8676.76
9385.15
9963.81
10403.7
10698
10842.1
10833.7
10673.1
10362.8
9907.87
9315.32
8594.1
7754.51
6807.57
5763.72
4631.64
3416.65
2123.98
773.321
2435.74
3634.52
4792.72
5892.46
6916.74
7849.67
8676.76
9385.15
9963.81
10403.7
10698
10842.1
10833.7
10673.1
10362.8
9907.87
9315.31
8594.1
7754.51
6807.57
5763.72
4631.64
3416.65
2123.98
773.321
2403.26
3589.27
4735.19
5823.34
6836.89
7760.13
8578.72
9279.93
9852.84
10288.5
10580.1
10723.2
10715.5
10557.2
10250.9
9801.4
9215.77
8502.8
7672.6
6736.05
5703.45
4583.41
3381.26
2102.31
766.041
2443.57
3645.55
4806.82
5909.45
6936.41
7871.76
8700.98
9411.17
9991.27
10432.2
10727.2
10871.5
10863
10701.8
10390.6
9934.28
9340.02
8616.76
7774.84
6825.32
5778.68
4643.62
3425.45
2129.37
775.129
2408.88
3597.06
4745.07
5835.2
6850.57
7775.46
8595.5
9297.93
9871.81
10308.2
10600.3
10743.5
10735.7
10577
10270
9819.58
9232.76
8518.38
7686.58
6748.25
5713.73
4591.62
3387.27
2105.99
767.282
2435.74
3634.53
4792.72
5892.46
6916.74
7849.67
8676.76
9385.15
9963.81
10403.7
10698
10842.1
10833.7
10673.1
10362.8
9907.87
9315.31
8594.1
7754.51
6807.57
5763.72
4631.64
3416.65
2123.98
773.321
2403.26
3589.27
4735.18
5823.34
6836.89
7760.13
8578.72
9279.93
9852.84
10288.5
10580.1
10723.2
10715.5
10557.2
10250.9
9801.4
9215.77
8502.8
7672.6
6736.05
5703.45
4583.41
3381.26
2102.31
766.041
2403.26
3589.27
4735.19
5823.34
6836.89
7760.13
8578.72
9279.93
9852.84
10288.5
10580.1
10723.2
10715.5
10557.2
10250.9
9801.4
9215.77
8502.8
7672.6
6736.05
5703.45
4583.41
3381.26
2102.31
766.041
2435.74
3634.52
4792.72
5892.46
6916.74
7849.67
8676.76
9385.15
9963.81
10403.7
10698
10842.1
10833.7
10673.1
10362.8
9907.87
9315.31
8594.1
7754.51
6807.57
5763.72
4631.64
3416.65
2123.98
773.321
)
;

boundaryField
{
    outletCentralUnloaded
    {
        type            zeroGradient;
    }
    inletCentralUnloaded
    {
        type            zeroGradient;
    }
    outletFuelElement
    {
        type            zeroGradient;
    }
    inletFuelElement
    {
        type            zeroGradient;
    }
    defaultFaces
    {
        type            zeroGradient;
    }
    baffle_master
    {
        type            zeroGradient;
    }
    baffle_slave
    {
        type            zeroGradient;
    }
}


// ************************************************************************* //
