/*--------------------------------*- C++ -*----------------------------------*\
| =========                 |                                                 |
| \\      /  F ield         | OpenFOAM: The Open Source CFD Toolbox           |
|  \\    /   O peration     | Version:  2212                                  |
|   \\  /    A nd           | Website:  www.openfoam.com                      |
|    \\/     M anipulation  |                                                 |
\*---------------------------------------------------------------------------*/
FoamFile
{
    version     2.0;
    format      ascii;
    arch        "LSB;label=32;scalar=64";
    class       volScalarField;
    location    "48/fluidRegion";
    object      Tfo.nuclearFuelPin;
}
// * * * * * * * * * * * * * * * * * * * * * * * * * * * * * * * * * * * * * //

dimensions      [0 0 0 1 0 0 0];

internalField   nonuniform List<scalar> 
350
(
0
0
0
0
0
0
0
0
0
0
0
0
0
0
0
0
0
0
0
0
0
0
0
0
0
0
0
0
0
0
0
0
0
0
0
0
0
0
0
0
0
0
0
0
0
0
0
0
0
0
2016.52
2405.8
2773.81
3115.16
3424.78
3698.05
3930.88
4119.78
4261.89
4355.08
4397.95
4389.87
4331.01
4222.37
4065.73
3863.59
3619.06
3335.58
3016.52
2664.63
2281.04
1864
1407.7
905.369
364.109
2046.84
2440.76
2813.1
3158.38
3471.48
3747.74
3983.03
4173.8
4317.18
4411.01
4453.87
4445.15
4385.01
4274.46
4115.31
3910.12
3662.05
3374.63
3051.31
2694.95
2306.69
1884.78
1423.22
915.018
367.354
2011.6
2400.16
2767.51
3108.25
3417.32
3690.13
3922.59
4111.21
4253.14
4346.24
4389.12
4381.15
4322.5
4214.17
4057.92
3856.27
3612.3
3329.44
3011.05
2659.87
2277.02
1860.76
1405.29
903.88
363.601
2040.02
2432.85
2804.17
3148.53
3460.82
3736.38
3971.09
4161.41
4304.49
4398.16
4441.02
4432.43
4372.58
4262.47
4103.89
3899.4
3652.14
3365.63
3043.29
2687.96
2300.77
1879.98
1419.64
912.79
366.605
2040.02
2432.85
2804.17
3148.53
3460.82
3736.38
3971.09
4161.41
4304.49
4398.16
4441.02
4432.43
4372.58
4262.47
4103.89
3899.4
3652.14
3365.63
3043.29
2687.96
2300.77
1879.99
1419.64
912.79
366.605
2011.6
2400.16
2767.51
3108.25
3417.33
3690.14
3922.59
4111.21
4253.14
4346.24
4389.12
4381.15
4322.5
4214.17
4057.92
3856.27
3612.3
3329.45
3011.05
2659.87
2277.02
1860.77
1405.29
903.881
363.601
2046.84
2440.76
2813.1
3158.38
3471.48
3747.74
3983.03
4173.8
4317.18
4411.01
4453.87
4445.14
4385.01
4274.46
4115.31
3910.12
3662.05
3374.63
3051.31
2694.94
2306.69
1884.78
1423.22
915.018
367.354
2016.52
2405.8
2773.82
3115.16
3424.78
3698.05
3930.88
4119.78
4261.89
4355.08
4397.95
4389.87
4331.01
4222.37
4065.73
3863.59
3619.06
3335.58
3016.52
2664.63
2281.04
1864
1407.7
905.369
364.109
2040.02
2432.85
2804.17
3148.53
3460.82
3736.38
3971.09
4161.41
4304.49
4398.16
4441.02
4432.43
4372.58
4262.47
4103.89
3899.4
3652.14
3365.63
3043.29
2687.96
2300.77
1879.99
1419.64
912.79
366.605
2011.6
2400.16
2767.51
3108.25
3417.32
3690.13
3922.59
4111.21
4253.14
4346.24
4389.12
4381.15
4322.5
4214.17
4057.92
3856.27
3612.3
3329.44
3011.05
2659.87
2277.02
1860.77
1405.29
903.88
363.601
2011.6
2400.16
2767.51
3108.25
3417.33
3690.14
3922.59
4111.21
4253.14
4346.24
4389.12
4381.15
4322.5
4214.17
4057.92
3856.27
3612.3
3329.45
3011.05
2659.87
2277.02
1860.77
1405.29
903.881
363.601
2040.02
2432.85
2804.17
3148.53
3460.82
3736.38
3971.09
4161.41
4304.49
4398.16
4441.02
4432.43
4372.58
4262.47
4103.89
3899.4
3652.14
3365.63
3043.29
2687.96
2300.77
1879.98
1419.64
912.79
366.605
)
;

boundaryField
{
    outletCentralUnloaded
    {
        type            zeroGradient;
    }
    inletCentralUnloaded
    {
        type            zeroGradient;
    }
    outletFuelElement
    {
        type            zeroGradient;
    }
    inletFuelElement
    {
        type            zeroGradient;
    }
    defaultFaces
    {
        type            zeroGradient;
    }
    baffle_master
    {
        type            zeroGradient;
    }
    baffle_slave
    {
        type            zeroGradient;
    }
}


// ************************************************************************* //
