/*--------------------------------*- C++ -*----------------------------------*\
| =========                 |                                                 |
| \\      /  F ield         | OpenFOAM: The Open Source CFD Toolbox           |
|  \\    /   O peration     | Version:  2212                                  |
|   \\  /    A nd           | Website:  www.openfoam.com                      |
|    \\/     M anipulation  |                                                 |
\*---------------------------------------------------------------------------*/
FoamFile
{
    version     2.0;
    format      ascii;
    arch        "LSB;label=32;scalar=64";
    class       scalarFieldField;
    location    "48/fluidRegion";
    object      Trad.nuclearFuelPin;
}
// * * * * * * * * * * * * * * * * * * * * * * * * * * * * * * * * * * * * * //


350
(
0()
0()
0()
0()
0()
0()
0()
0()
0()
0()
0()
0()
0()
0()
0()
0()
0()
0()
0()
0()
0()
0()
0()
0()
0()
0()
0()
0()
0()
0()
0()
0()
0()
0()
0()
0()
0()
0()
0()
0()
0()
0()
0()
0()
0()
0()
0()
0()
0()
0()

20
(
2408.88
2407.14
2401.94
2393.26
2381.12
2365.49
2346.38
2323.79
2297.7
2268.1
2235
2198.38
2158.23
2114.55
2067.31
2016.52
1849.26
1845.27
1841.42
1837.69
)


20
(
3597.06
3591.78
3575.92
3549.5
3512.5
3464.92
3406.76
3338.01
3258.66
3168.71
3068.14
2956.96
2835.14
2702.68
2559.57
2405.8
1899.61
1887.56
1875.89
1864.6
)


20
(
4745.07
4736.32
4710.07
4666.31
4605.04
4526.27
4429.98
4316.16
4184.82
4035.94
3869.51
3685.53
3483.98
3264.85
3028.13
2773.81
1936.74
1916.8
1897.51
1878.83
)


20
(
5835.19
5823.12
5786.88
5726.49
5641.93
5533.21
5400.31
5243.24
5061.98
4856.52
4626.87
4373
4094.9
3792.57
3466
3115.16
1960.43
1932.93
1906.32
1880.55
)


20
(
6850.57
6835.36
6789.71
6713.64
6607.12
6470.17
6302.78
6104.93
5876.62
5617.84
5328.59
5008.85
4658.61
4277.86
3866.58
3424.78
1970.65
1936.02
1902.51
1870.06
)


20
(
7775.46
7757.35
7703.02
7612.46
7485.68
7322.66
7123.41
6887.92
6616.17
6308.16
5963.88
5583.32
5166.47
4713.31
4223.84
3698.05
1967.5
1926.28
1886.4
1847.78
)


20
(
8595.5
8574.78
8512.62
8409.01
8263.96
8077.46
7849.5
7580.08
7269.19
6916.81
6522.95
6087.58
5610.7
5092.3
4532.36
3930.88
1951.24
1904.08
1858.46
1814.28
)


20
(
9297.93
9274.92
9205.92
9090.9
8929.87
8722.83
8469.77
8170.68
7825.55
7434.37
6997.14
6513.85
5984.48
5409.01
4787.45
4119.78
1922.3
1869.96
1819.32
1770.28
)


20
(
9871.81
9846.89
9772.12
9647.51
9473.05
9248.74
8974.57
8650.53
8276.62
7852.82
7379.13
6855.54
6282.03
5658.59
4985.22
4261.89
1881.28
1824.57
1769.71
1716.58
)


20
(
10308.2
10281.8
10202.4
10070.2
9885.04
9646.99
9356.04
9012.17
8615.38
8165.65
7662.98
7107.35
6498.76
5837.2
5122.64
4355.08
1828.9
1768.73
1710.51
1654.13
)


20
(
10600.3
10572.7
10490.1
10352.3
10159.4
9911.38
9608.25
9249.98
8836.57
8368.01
7844.29
7265.4
6631.34
5942.08
5197.62
4397.95
1766.07
1703.38
1642.73
1583.99
)


20
(
10743.5
10715.3
10630.6
10489.5
10291.9
10037.8
9727.26
9360.24
8936.74
8456.75
7920.25
7327.25
6677.71
5971.65
5209.04
4389.87
1693.84
1629.61
1567.48
1507.32
)


20
(
10735.7
10707.2
10621.9
10479.6
10280.4
10024.3
9711.26
9341.29
8914.39
8430.53
7889.73
7291.96
6637.21
5925.48
5156.75
4331.01
1613.37
1548.63
1486.01
1425.36
)


20
(
10577
10548.8
10464.1
10322.9
10125.3
9871.15
9560.55
9193.47
8769.9
8289.83
7753.25
7160.15
6510.52
5804.36
5041.65
4222.37
1526.01
1461.78
1399.64
1339.47
)


20
(
10270
10242.4
10159.7
10021.9
9828.94
9580.84
9277.59
8919.2
8505.64
8036.93
7513.04
6933.98
6299.72
5610.27
4865.61
4065.73
1433.19
1370.48
1309.82
1251.06
)


20
(
9819.58
9793.12
9713.73
9581.41
9396.17
9158
8866.88
8522.83
8125.82
7675.86
7172.94
6617.05
6008.17
5346.31
4631.45
3863.59
1336.42
1276.23
1217.99
1161.59
)


20
(
9232.76
9207.82
9133
9008.29
8833.69
8609.2
8334.81
8010.53
7636.34
7212.23
6738.21
6214.27
5640.39
5016.56
4342.79
3619.06
1237.15
1180.41
1125.52
1072.36
)


20
(
8518.38
8495.36
8426.27
8311.13
8149.94
7942.68
7689.35
7389.96
7044.49
6652.94
6215.3
5731.57
5201.74
4625.81
4003.75
3335.58
1136.51
1084.13
1033.45
984.377
)


20
(
7686.58
7665.83
7603.58
7499.83
7354.58
7167.82
6939.56
6669.78
6358.49
6005.68
5611.34
5175.46
4698.05
4179.09
3618.59
3016.52
1035.02
987.816
942.153
897.931
)


20
(
6748.25
6730.11
6675.68
6584.96
6457.94
6294.64
6095.04
5859.14
5586.94
5278.43
4933.61
4552.47
4135.01
3681.22
3191.09
2664.63
931.955
890.681
850.752
812.083
)


20
(
5713.73
5698.48
5652.72
5576.46
5469.7
5332.42
5164.64
4966.34
4737.53
4478.2
4188.34
3867.96
3517.04
3135.58
2723.58
2281.04
824.55
789.856
756.291
723.786
)


20
(
4591.62
4579.5
4543.15
4482.55
4397.72
4288.64
4155.32
3997.75
3815.94
3609.87
3379.55
3124.97
2846.13
2543.03
2215.65
1864
706.671
679.103
652.432
626.604
)


20
(
3387.27
3378.48
3352.09
3308.11
3246.54
3167.38
3070.62
2956.27
2824.32
2674.76
2507.61
2322.85
2120.48
1900.5
1662.91
1407.7
567.765
547.757
528.401
509.656
)


20
(
2105.99
2100.65
2084.65
2057.98
2020.63
1972.62
1913.93
1844.57
1764.54
1673.83
1572.45
1460.39
1337.66
1204.24
1060.15
905.369
395.972
383.838
372.099
360.731
)


20
(
767.282
765.49
760.113
751.152
738.606
722.477
702.763
679.466
652.585
622.122
588.075
550.445
509.234
464.44
416.065
364.109
193.124
189.051
185.111
181.295
)


20
(
2443.57
2441.82
2436.56
2427.79
2415.5
2399.7
2380.38
2357.54
2331.16
2301.23
2267.76
2230.74
2190.14
2145.97
2098.2
2046.84
1877.71
1873.68
1869.79
1866.01
)


20
(
3645.55
3640.21
3624.17
3597.45
3560.03
3511.91
3453.09
3383.56
3303.31
3212.34
3110.63
2998.19
2874.99
2741.02
2596.29
2440.76
1928.82
1916.63
1904.83
1893.41
)


20
(
4806.82
4797.96
4771.41
4727.16
4665.2
4585.52
4488.14
4373.03
4240.19
4089.61
3921.28
3735.2
3531.36
3309.73
3070.31
2813.1
1966.47
1946.3
1926.8
1907.9
)


20
(
5909.45
5897.24
5860.59
5799.51
5713.98
5604.02
5469.61
5310.74
5127.42
4919.62
4687.34
4430.57
4149.3
3843.52
3513.22
3158.38
1990.46
1962.64
1935.73
1909.67
)


20
(
6936.41
6921.02
6874.86
6797.91
6690.18
6551.67
6382.36
6182.25
5951.34
5689.6
5397.05
5073.65
4719.41
4334.31
3918.34
3471.48
2000.74
1965.7
1931.81
1898.99
)


20
(
7871.76
7853.44
7798.49
7706.9
7578.67
7413.79
7212.26
6974.08
6699.22
6387.69
6039.48
5654.57
5232.95
4774.62
4279.55
3747.74
1997.41
1955.72
1915.38
1876.32
)


20
(
8700.98
8680.02
8617.15
8512.36
8365.65
8177.02
7946.46
7673.95
7359.51
7003.1
6604.74
6164.39
5682.06
5157.73
4591.39
3983.03
1980.74
1933.05
1886.91
1842.22
)


20
(
9411.17
9387.9
9318.11
9201.78
9038.91
8829.5
8573.54
8271.03
7921.95
7526.31
7084.08
6595.25
6059.83
5477.78
4849.11
4173.8
1951.18
1898.24
1847.02
1797.42
)


20
(
9991.27
9966.06
9890.44
9764.41
9587.95
9361.07
9083.77
8756.02
8377.83
7949.19
7470.08
6940.5
6360.43
5729.86
5048.78
4317.18
1909.32
1851.97
1796.48
1742.74
)


20
(
10432.2
10405.5
10325.2
10191.5
10004.2
9763.47
9469.18
9121.38
8720.05
8265.18
7756.75
7194.77
6579.22
5910.08
5187.35
4411.01
1855.92
1795.05
1736.17
1679.15
)


20
(
10727.2
10699.3
10615.7
10476.3
10281.2
10030.4
9723.79
9361.42
8943.28
8469.36
7939.65
7354.14
6712.82
6015.68
5262.7
4453.87
1791.87
1728.46
1667.12
1607.71
)


20
(
10871.5
10843
10757.3
10614.5
10414.7
10157.7
9843.62
9472.4
9044.06
8558.57
8015.94
7416.14
6759.18
6045.03
5273.69
4445.15
1718.25
1653.3
1590.46
1529.6
)


20
(
10863
10834.2
10747.9
10604
10402.5
10143.4
9826.83
9452.63
9020.84
8531.45
7984.45
7379.84
6717.6
5997.72
5220.19
4385.01
1636.26
1570.78
1507.44
1446.09
)


20
(
10701.8
10673.3
10587.6
10444.8
10244.9
9987.89
9673.74
9302.46
8874.04
8388.47
7845.75
7245.86
6588.8
5874.55
5103.11
4274.46
1547.23
1482.26
1419.42
1358.55
)


20
(
10390.6
10362.7
10279.1
10139.7
9944.49
9693.55
9386.83
9024.33
8606.05
8131.97
7602.09
7016.39
6374.88
5677.53
4924.35
4115.31
1452.64
1389.21
1327.85
1268.42
)


20
(
9934.28
9907.52
9827.22
9693.39
9506.03
9265.13
8970.68
8622.69
8221.14
7766.03
7257.35
6695.09
6079.25
5409.81
4686.77
3910.12
1354.02
1293.13
1234.23
1177.18
)


20
(
9340.02
9314.79
9239.11
9112.97
8936.37
8709.31
8431.78
8103.79
7725.31
7296.36
6816.91
6286.96
5706.51
5075.55
4394.06
3662.05
1252.87
1195.48
1139.96
1086.19
)


20
(
8616.76
8593.47
8523.6
8407.14
8244.1
8034.47
7778.24
7475.42
7126
6729.96
6287.32
5798.05
5262.15
4679.62
4050.45
3374.63
1150.38
1097.4
1046.14
996.502
)


20
(
7774.84
7753.85
7690.89
7585.95
7439.04
7250.15
7019.27
6746.41
6431.55
6074.7
5675.84
5234.98
4752.1
4227.2
3660.27
3051.31
1047.12
999.383
953.197
908.469
)


20
(
6825.32
6806.97
6751.92
6660.16
6531.69
6366.52
6164.63
5926.03
5650.71
5338.67
4989.9
4604.4
4182.16
3723.17
3227.44
2694.95
942.431
900.685
860.299
821.187
)


20
(
5778.68
5763.26
5716.98
5639.84
5531.86
5393.01
5223.31
5022.74
4791.31
4529.01
4235.83
3911.78
3556.84
3171.02
2754.3
2306.69
833.526
798.434
764.485
731.608
)


20
(
4643.62
4631.37
4594.59
4533.3
4447.5
4337.17
4202.32
4042.95
3859.06
3650.63
3417.68
3160.18
2878.15
2571.57
2240.45
1884.78
714.194
686.31
659.334
633.21
)


20
(
3425.45
3416.55
3389.87
3345.38
3283.11
3203.04
3105.18
2989.51
2856.05
2704.79
2535.72
2348.84
2144.16
1921.66
1681.35
1423.22
573.669
553.432
533.855
514.895
)


20
(
2129.37
2123.98
2107.79
2080.81
2043.04
1994.48
1935.12
1864.97
1784.02
1692.28
1589.73
1476.39
1352.25
1217.31
1071.57
915.018
399.793
387.52
375.647
364.148
)


20
(
775.129
773.316
767.878
758.815
746.126
729.812
709.874
686.311
659.124
628.312
593.876
555.817
514.135
468.83
419.903
367.354
194.415
190.296
186.31
182.451
)


20
(
2403.26
2401.53
2396.34
2387.68
2375.55
2359.95
2340.88
2318.32
2292.28
2262.74
2229.69
2193.14
2153.06
2109.45
2062.3
2011.6
1844.64
1840.66
1836.81
1833.09
)


20
(
3589.27
3583.99
3568.17
3541.79
3504.86
3457.36
3399.31
3330.68
3251.48
3161.69
3061.31
2950.32
2828.72
2696.51
2553.65
2400.16
1894.89
1882.86
1871.21
1859.94
)


20
(
4735.18
4726.45
4700.24
4656.57
4595.41
4516.78
4420.66
4307.06
4175.95
4027.34
3861.21
3677.56
3476.38
3257.65
3021.36
2767.51
1931.95
1912.05
1892.79
1874.15
)


20
(
5823.33
5811.28
5775.11
5714.82
5630.42
5521.89
5389.24
5232.45
5051.52
4846.44
4617.2
4363.79
4086.2
3784.42
3458.44
3108.25
1955.62
1928.16
1901.6
1875.88
)


20
(
6836.89
6821.7
6776.14
6700.2
6593.88
6457.18
6290.09
6092.6
5864.71
5606.4
5317.67
4998.51
4648.91
4268.85
3858.33
3417.32
1965.85
1931.27
1897.83
1865.43
)


20
(
7760.13
7742.05
7687.82
7597.43
7470.87
7308.16
7109.27
6874.2
6602.95
6295.5
5951.85
5571.98
5155.89
4703.55
4214.98
3690.13
1962.74
1921.59
1881.79
1843.24
)


20
(
8578.72
8558.04
8495.99
8392.57
8247.79
8061.62
7834.08
7565.15
7254.82
6903.09
6509.94
6075.37
5599.36
5081.9
4522.98
3922.59
1946.56
1899.49
1853.95
1809.86
)


20
(
9279.93
9256.97
9188.09
9073.28
8912.55
8705.88
8453.28
8154.73
7810.23
7419.77
6983.33
6500.92
5972.51
5398.1
4777.67
4111.21
1917.74
1865.49
1814.94
1765.99
)


20
(
9852.84
9827.96
9753.33
9628.95
9454.81
9230.9
8957.23
8633.78
8260.55
7837.52
7364.7
6842.06
6269.59
5647.29
4975.14
4253.14
1876.86
1820.25
1765.49
1712.46
)


20
(
10288.5
10262.1
10182.9
10050.9
9866.12
9628.51
9338.09
8994.84
8598.77
8149.86
7648.11
7093.49
6486.01
5825.65
5112.4
4346.24
1824.66
1764.6
1706.49
1650.21
)


20
(
10580.1
10552.6
10470.1
10332.6
10140.1
9892.5
9589.92
9232.3
8819.64
8351.94
7829.17
7251.34
6618.43
5930.43
5187.33
4389.12
1762.04
1699.46
1638.92
1580.29
)


20
(
10723.2
10695
10610.5
10469.6
10272.4
10018.8
9708.81
9342.46
8919.73
8440.62
7905.1
7313.17
6664.82
5960.04
5198.82
4381.15
1690.03
1625.92
1563.91
1503.85
)


20
(
10715.5
10687.1
10601.9
10459.9
10261
10005.4
9692.94
9323.65
8897.52
8414.55
7874.73
7278.05
6624.49
5914.06
5146.73
4322.5
1609.81
1545.19
1482.68
1422.14
)


20
(
10557.2
10529
10444.5
10303.6
10106.3
9852.64
9542.62
9176.21
8753.41
8274.21
7738.61
7146.59
6498.15
5793.27
5031.95
4214.17
1522.72
1458.61
1396.58
1336.52
)


20
(
10250.9
10223.4
10140.8
10003.2
9810.63
9562.98
9260.29
8902.54
8489.75
8021.89
7498.95
6920.94
6287.85
5599.65
4856.34
4057.92
1430.19
1367.59
1307.04
1248.39
)


20
(
9801.4
9774.99
9695.75
9563.67
9378.77
9141.03
8850.44
8507.01
8110.73
7661.59
7159.59
6604.71
5996.94
5336.29
4622.73
3856.27
1333.71
1273.62
1215.49
1159.2
)


20
(
9215.77
9190.88
9116.19
8991.7
8817.42
8593.34
8319.46
7995.76
7622.25
7198.92
6725.77
6202.78
5629.94
5007.26
4334.71
3612.3
1234.73
1178.1
1123.31
1070.25
)


20
(
8502.8
8479.81
8410.86
8295.93
8135.02
7928.14
7675.28
7376.43
7031.59
6640.75
6203.92
5721.07
5192.21
4617.32
3996.4
3329.44
1134.39
1082.1
1031.52
982.529
)


20
(
7672.6
7651.89
7589.75
7486.19
7341.21
7154.79
6926.94
6657.66
6346.93
5994.76
5601.14
5166.06
4689.52
4171.51
3612.02
3011.05
1033.17
986.052
940.472
896.331
)


20
(
6736.05
6717.94
6663.61
6573.05
6446.27
6283.27
6084.03
5848.56
5576.85
5268.91
4924.71
4544.27
4127.57
3674.61
3185.38
2659.87
930.36
889.161
849.305
810.707
)


20
(
5703.45
5688.23
5642.56
5566.44
5459.87
5322.84
5155.37
4957.43
4729.04
4470.18
4180.85
3861.05
3510.77
3130.01
2718.76
2277.02
823.192
788.56
755.057
722.612
)


20
(
4583.41
4571.31
4535.02
4474.54
4389.86
4280.98
4147.9
3990.62
3809.14
3603.45
3373.55
3119.44
2841.1
2538.55
2211.77
1860.76
705.544
678.026
651.404
625.622
)


20
(
3381.26
3372.48
3346.14
3302.25
3240.79
3161.77
3065.19
2951.04
2819.33
2670.05
2503.2
2318.78
2116.78
1897.2
1660.04
1405.29
566.892
546.921
527.6
508.889
)


20
(
2102.31
2096.99
2081.01
2054.39
2017.11
1969.18
1910.6
1841.37
1761.49
1670.95
1569.75
1457.9
1335.38
1202.21
1058.38
903.88
395.413
383.3
371.583
360.235
)


20
(
766.041
764.252
758.885
749.94
737.417
721.317
701.64
678.385
651.553
621.144
587.159
549.598
508.462
463.75
415.463
363.601
192.927
188.862
184.928
181.119
)


20
(
2435.74
2433.99
2428.74
2419.99
2407.74
2391.98
2372.71
2349.92
2323.6
2293.76
2260.37
2223.44
2182.95
2138.88
2091.24
2040.02
1871.31
1867.29
1863.41
1859.64
)


20
(
3634.52
3629.19
3613.2
3586.54
3549.22
3501.23
3442.56
3373.21
3293.17
3202.43
3100.99
2988.83
2865.95
2732.33
2587.97
2432.85
1922.23
1910.07
1898.31
1886.91
)


20
(
4792.72
4783.89
4757.41
4713.27
4651.47
4572
4474.87
4360.06
4227.56
4077.37
3909.49
3723.89
3520.57
3299.52
3060.72
2804.17
1959.75
1939.63
1920.17
1901.33
)


20
(
5892.46
5880.28
5843.73
5782.8
5697.5
5587.82
5453.76
5295.31
5112.46
4905.2
4673.52
4417.42
4136.88
3831.9
3502.45
3148.53
1983.65
1955.91
1929.06
1903.07
)


20
(
6916.74
6901.39
6855.35
6778.6
6671.15
6533
6364.13
6164.54
5934.23
5673.17
5381.38
5058.82
4705.5
4321.4
3906.51
3460.82
1993.9
1958.96
1925.16
1892.42
)


20
(
7849.67
7831.4
7776.59
7685.24
7557.34
7392.89
7191.89
6954.32
6680.18
6369.46
6022.15
5638.25
5217.73
4760.58
4266.8
3736.38
1990.6
1949.02
1908.79
1869.83
)


20
(
8676.76
8655.86
8593.15
8488.63
8342.31
8154.16
7924.2
7652.41
7338.78
6983.3
6585.97
6146.77
5665.7
5142.73
4577.87
3971.09
1974.02
1926.45
1880.42
1835.86
)


20
(
9385.15
9361.95
9292.33
9176.3
9013.86
8805
8549.7
8247.98
7899.81
7505.19
7064.12
6576.57
6042.53
5462
4834.97
4161.41
1944.59
1891.78
1840.69
1791.22
)


20
(
9963.81
9938.67
9863.25
9737.54
9561.54
9335.26
9058.67
8731.78
8354.57
7927.04
7449.18
6920.98
6342.42
5713.49
5034.19
4304.49
1902.91
1845.7
1790.36
1736.76
)


20
(
10403.7
10377
10297
10163.6
9976.82
9736.68
9443.17
9096.27
8695.98
8242.29
7735.2
7174.68
6560.73
5893.33
5172.48
4398.16
1849.73
1789.02
1730.29
1673.42
)


20
(
10698
10670.2
10586.8
10447.8
10253.2
10003
9697.21
9335.79
8918.73
8446.05
7917.72
7333.73
6694.08
5998.75
5247.74
4441.02
1785.95
1722.71
1661.52
1602.27
)


20
(
10842.1
10813.6
10728.1
10585.8
10386.4
10130.1
9816.84
9446.6
9019.37
8535.14
7993.92
7395.69
6740.43
6028.15
5258.82
4432.43
1712.64
1647.86
1585.18
1524.48
)


20
(
10833.7
10805
10718.9
10575.3
10374.4
10116
9800.23
9427
8996.34
8508.22
7962.65
7359.61
6699.1
5981.1
5205.59
4372.58
1630.99
1565.69
1502.51
1441.32
)


20
(
10673.1
10644.6
10559.2
10416.7
10217.4
9961.01
9647.68
9277.37
8850.07
8365.77
7824.46
7226.13
6570.78
5858.39
5088.96
4262.47
1542.34
1477.55
1414.86
1354.16
)


20
(
10362.8
10335
10251.6
10112.5
9917.88
9667.6
9361.68
9000.12
8582.93
8110.08
7581.58
6997.41
6357.57
5662.04
4910.82
4103.89
1448.15
1384.89
1323.69
1264.42
)


20
(
9907.87
9881.17
9801.09
9667.61
9480.73
9240.46
8946.78
8599.69
8199.19
7745.26
7237.91
6677.12
6062.88
5395.18
4674.03
3899.4
1349.96
1289.23
1230.48
1173.58
)


20
(
9315.32
9290.15
9214.67
9088.86
8912.72
8686.25
8409.45
8082.31
7704.82
7276.98
6798.78
6270.22
5691.28
5061.96
4382.25
3652.14
1249.24
1192
1136.62
1083
)


20
(
8594.1
8570.87
8501.18
8385.03
8222.41
8013.32
7757.77
7455.73
7107.22
6712.22
6270.73
5782.73
5248.24
4667.22
4039.69
3365.63
1147.18
1094.33
1043.21
993.699
)


20
(
7754.51
7733.58
7670.78
7566.12
7419.59
7231.18
7000.91
6728.76
6414.72
6058.8
5660.98
5221.27
4739.65
4216.12
3650.67
3043.29
1044.33
996.709
950.643
906.031
)


20
(
6807.57
6789.27
6734.36
6642.83
6514.7
6349.96
6148.6
5910.62
5636.02
5324.79
4976.93
4592.43
4171.29
3713.5
3219.06
2687.96
940.009
898.371
858.091
819.081
)


20
(
5763.72
5748.33
5702.18
5625.24
5517.54
5379.05
5209.79
5009.75
4778.92
4517.3
4224.89
3901.68
3547.67
3162.85
2747.22
2300.77
831.45
796.449
762.589
729.798
)


20
(
4631.64
4619.42
4582.74
4521.61
4436.03
4325.99
4191.49
4032.54
3849.12
3641.24
3408.89
3152.07
2870.77
2564.99
2234.73
1879.98
712.453
684.641
657.736
631.68
)


20
(
3416.65
3407.78
3381.16
3336.8
3274.68
3194.82
3097.21
2981.85
2848.74
2697.87
2529.24
2342.85
2138.7
1916.78
1677.09
1419.64
572.301
552.117
532.591
513.68
)


20
(
2123.98
2118.6
2102.46
2075.55
2037.87
1989.44
1930.23
1860.26
1779.53
1688.02
1585.75
1472.7
1348.89
1214.3
1068.93
912.79
398.907
386.666
374.823
363.355
)


20
(
773.321
771.513
766.089
757.049
744.394
728.123
708.236
684.734
657.617
626.886
592.54
554.58
513.006
467.818
419.018
366.605
194.117
190.008
186.033
182.183
)


20
(
2435.74
2433.99
2428.74
2419.99
2407.74
2391.98
2372.71
2349.92
2323.6
2293.76
2260.37
2223.44
2182.95
2138.88
2091.24
2040.02
1871.31
1867.29
1863.41
1859.64
)


20
(
3634.52
3629.19
3613.2
3586.54
3549.22
3501.23
3442.56
3373.21
3293.17
3202.43
3100.99
2988.83
2865.95
2732.33
2587.97
2432.85
1922.23
1910.07
1898.31
1886.91
)


20
(
4792.72
4783.89
4757.41
4713.27
4651.47
4572
4474.87
4360.06
4227.56
4077.37
3909.49
3723.89
3520.57
3299.52
3060.72
2804.17
1959.75
1939.63
1920.17
1901.33
)


20
(
5892.46
5880.28
5843.73
5782.8
5697.5
5587.82
5453.76
5295.31
5112.46
4905.2
4673.52
4417.42
4136.88
3831.9
3502.45
3148.53
1983.65
1955.91
1929.06
1903.07
)


20
(
6916.74
6901.39
6855.35
6778.6
6671.15
6533
6364.13
6164.54
5934.23
5673.17
5381.38
5058.82
4705.5
4321.4
3906.51
3460.82
1993.9
1958.96
1925.16
1892.42
)


20
(
7849.67
7831.4
7776.59
7685.24
7557.34
7392.89
7191.89
6954.32
6680.18
6369.46
6022.15
5638.25
5217.73
4760.58
4266.8
3736.38
1990.6
1949.02
1908.79
1869.83
)


20
(
8676.76
8655.86
8593.15
8488.63
8342.31
8154.16
7924.2
7652.41
7338.78
6983.3
6585.97
6146.77
5665.7
5142.73
4577.87
3971.09
1974.02
1926.45
1880.42
1835.86
)


20
(
9385.15
9361.95
9292.33
9176.3
9013.86
8804.99
8549.7
8247.98
7899.81
7505.19
7064.12
6576.56
6042.53
5462
4834.97
4161.41
1944.59
1891.78
1840.69
1791.22
)


20
(
9963.81
9938.67
9863.25
9737.54
9561.54
9335.26
9058.67
8731.78
8354.57
7927.04
7449.18
6920.98
6342.42
5713.49
5034.19
4304.49
1902.91
1845.7
1790.36
1736.76
)


20
(
10403.7
10377
10297
10163.6
9976.82
9736.68
9443.17
9096.27
8695.98
8242.29
7735.2
7174.68
6560.73
5893.33
5172.48
4398.16
1849.73
1789.02
1730.29
1673.42
)


20
(
10698
10670.2
10586.8
10447.8
10253.2
10003
9697.21
9335.78
8918.73
8446.05
7917.72
7333.73
6694.08
5998.75
5247.74
4441.02
1785.95
1722.71
1661.52
1602.27
)


20
(
10842.1
10813.6
10728.1
10585.8
10386.4
10130.1
9816.84
9446.6
9019.37
8535.14
7993.92
7395.69
6740.43
6028.15
5258.82
4432.43
1712.64
1647.86
1585.18
1524.48
)


20
(
10833.7
10805
10718.9
10575.3
10374.4
10116
9800.23
9427
8996.34
8508.22
7962.65
7359.61
6699.1
5981.09
5205.59
4372.58
1630.99
1565.69
1502.51
1441.32
)


20
(
10673.1
10644.6
10559.1
10416.7
10217.4
9961.01
9647.68
9277.37
8850.07
8365.76
7824.46
7226.13
6570.78
5858.39
5088.96
4262.47
1542.34
1477.55
1414.86
1354.16
)


20
(
10362.8
10335
10251.6
10112.5
9917.88
9667.6
9361.68
9000.12
8582.93
8110.08
7581.58
6997.41
6357.57
5662.04
4910.82
4103.89
1448.15
1384.89
1323.69
1264.42
)


20
(
9907.87
9881.17
9801.09
9667.61
9480.73
9240.46
8946.78
8599.69
8199.19
7745.26
7237.91
6677.12
6062.88
5395.18
4674.03
3899.4
1349.96
1289.23
1230.48
1173.58
)


20
(
9315.31
9290.15
9214.67
9088.86
8912.72
8686.25
8409.45
8082.31
7704.82
7276.98
6798.78
6270.22
5691.28
5061.96
4382.25
3652.14
1249.24
1192
1136.62
1083
)


20
(
8594.1
8570.87
8501.18
8385.03
8222.41
8013.32
7757.77
7455.73
7107.22
6712.22
6270.73
5782.73
5248.24
4667.22
4039.69
3365.63
1147.18
1094.33
1043.21
993.699
)


20
(
7754.51
7733.58
7670.78
7566.12
7419.59
7231.18
7000.91
6728.76
6414.72
6058.8
5660.98
5221.27
4739.65
4216.12
3650.67
3043.29
1044.33
996.709
950.643
906.031
)


20
(
6807.57
6789.27
6734.35
6642.83
6514.7
6349.96
6148.6
5910.62
5636.02
5324.79
4976.93
4592.43
4171.29
3713.5
3219.06
2687.96
940.009
898.371
858.091
819.081
)


20
(
5763.72
5748.33
5702.17
5625.24
5517.54
5379.05
5209.79
5009.75
4778.92
4517.3
4224.89
3901.68
3547.67
3162.85
2747.22
2300.77
831.45
796.449
762.589
729.798
)


20
(
4631.64
4619.42
4582.74
4521.61
4436.03
4325.99
4191.49
4032.54
3849.12
3641.24
3408.89
3152.07
2870.77
2564.99
2234.73
1879.99
712.453
684.641
657.736
631.68
)


20
(
3416.65
3407.78
3381.16
3336.8
3274.68
3194.82
3097.21
2981.85
2848.74
2697.87
2529.24
2342.85
2138.7
1916.78
1677.09
1419.64
572.301
552.117
532.591
513.68
)


20
(
2123.98
2118.6
2102.46
2075.55
2037.87
1989.44
1930.23
1860.26
1779.53
1688.02
1585.75
1472.7
1348.89
1214.3
1068.93
912.79
398.907
386.666
374.823
363.355
)


20
(
773.321
771.513
766.089
757.049
744.394
728.123
708.236
684.734
657.617
626.886
592.54
554.58
513.006
467.818
419.018
366.605
194.117
190.008
186.033
182.183
)


20
(
2403.26
2401.53
2396.34
2387.68
2375.55
2359.95
2340.88
2318.32
2292.28
2262.74
2229.69
2193.14
2153.06
2109.45
2062.3
2011.6
1844.64
1840.66
1836.82
1833.09
)


20
(
3589.27
3584
3568.17
3541.79
3504.86
3457.37
3399.31
3330.68
3251.48
3161.69
3061.31
2950.32
2828.73
2696.51
2553.66
2400.16
1894.89
1882.86
1871.22
1859.94
)


20
(
4735.19
4726.45
4700.25
4656.57
4595.42
4516.78
4420.67
4307.06
4175.95
4027.34
3861.22
3677.57
3476.38
3257.65
3021.36
2767.51
1931.95
1912.05
1892.79
1874.15
)


20
(
5823.34
5811.28
5775.11
5714.83
5630.42
5521.9
5389.24
5232.45
5051.52
4846.44
4617.2
4363.79
4086.21
3784.43
3458.44
3108.25
1955.62
1928.17
1901.6
1875.88
)


20
(
6836.89
6821.7
6776.14
6700.2
6593.88
6457.18
6290.09
6092.6
5864.71
5606.4
5317.67
4998.51
4648.91
4268.85
3858.33
3417.33
1965.85
1931.27
1897.83
1865.44
)


20
(
7760.13
7742.05
7687.82
7597.43
7470.87
7308.16
7109.27
6874.2
6602.95
6295.5
5951.85
5571.98
5155.89
4703.56
4214.98
3690.14
1962.74
1921.59
1881.79
1843.24
)


20
(
8578.72
8558.04
8495.99
8392.57
8247.79
8061.63
7834.08
7565.15
7254.82
6903.09
6509.94
6075.37
5599.36
5081.9
4522.98
3922.59
1946.56
1899.49
1853.96
1809.86
)


20
(
9279.93
9256.97
9188.09
9073.28
8912.55
8705.88
8453.28
8154.73
7810.23
7419.77
6983.34
6500.92
5972.51
5398.1
4777.67
4111.21
1917.74
1865.49
1814.94
1765.99
)


20
(
9852.84
9827.96
9753.33
9628.95
9454.81
9230.9
8957.23
8633.78
8260.55
7837.52
7364.7
6842.06
6269.59
5647.29
4975.15
4253.14
1876.86
1820.26
1765.5
1712.46
)


20
(
10288.5
10262.1
10182.9
10050.9
9866.12
9628.51
9338.09
8994.84
8598.77
8149.87
7648.11
7093.5
6486.01
5825.65
5112.4
4346.24
1824.66
1764.6
1706.49
1650.21
)


20
(
10580.1
10552.6
10470.1
10332.6
10140.1
9892.5
9589.92
9232.3
8819.64
8351.94
7829.18
7251.34
6618.43
5930.43
5187.33
4389.12
1762.04
1699.46
1638.92
1580.29
)


20
(
10723.2
10695
10610.5
10469.6
10272.4
10018.8
9708.81
9342.46
8919.74
8440.62
7905.1
7313.17
6664.82
5960.04
5198.82
4381.15
1690.03
1625.92
1563.91
1503.85
)


20
(
10715.5
10687.1
10601.9
10459.9
10261
10005.4
9692.94
9323.65
8897.52
8414.55
7874.73
7278.05
6624.49
5914.06
5146.73
4322.5
1609.81
1545.2
1482.68
1422.14
)


20
(
10557.2
10529
10444.5
10303.6
10106.3
9852.64
9542.62
9176.21
8753.41
8274.21
7738.61
7146.59
6498.15
5793.27
5031.95
4214.17
1522.72
1458.61
1396.58
1336.52
)


20
(
10250.9
10223.4
10140.8
10003.2
9810.63
9562.98
9260.29
8902.55
8489.75
8021.89
7498.96
6920.95
6287.85
5599.65
4856.35
4057.92
1430.19
1367.59
1307.04
1248.39
)


20
(
9801.4
9774.99
9695.75
9563.67
9378.77
9141.03
8850.44
8507.02
8110.73
7661.59
7159.59
6604.71
5996.95
5336.29
4622.74
3856.27
1333.71
1273.62
1215.49
1159.2
)


20
(
9215.77
9190.88
9116.19
8991.7
8817.42
8593.34
8319.46
7995.76
7622.26
7198.93
6725.77
6202.78
5629.94
5007.26
4334.71
3612.3
1234.74
1178.1
1123.31
1070.25
)


20
(
8502.8
8479.81
8410.86
8295.93
8135.02
7928.14
7675.28
7376.43
7031.59
6640.75
6203.92
5721.07
5192.21
4617.32
3996.4
3329.45
1134.39
1082.1
1031.52
982.529
)


20
(
7672.6
7651.89
7589.75
7486.19
7341.21
7154.79
6926.94
6657.66
6346.94
5994.76
5601.14
5166.07
4689.52
4171.51
3612.02
3011.05
1033.17
986.053
940.473
896.331
)


20
(
6736.05
6717.94
6663.61
6573.05
6446.27
6283.27
6084.03
5848.56
5576.85
5268.91
4924.72
4544.27
4127.57
3674.61
3185.38
2659.87
930.36
889.162
849.306
810.707
)


20
(
5703.45
5688.23
5642.56
5566.44
5459.87
5322.84
5155.37
4957.43
4729.04
4470.18
4180.85
3861.05
3510.77
3130.01
2718.76
2277.02
823.193
788.561
755.058
722.612
)


20
(
4583.41
4571.32
4535.03
4474.54
4389.86
4280.98
4147.9
3990.63
3809.14
3603.45
3373.55
3119.44
2841.11
2538.55
2211.77
1860.77
705.545
678.027
651.405
625.623
)


20
(
3381.26
3372.48
3346.14
3302.25
3240.79
3161.77
3065.19
2951.04
2819.33
2670.05
2503.2
2318.78
2116.78
1897.2
1660.04
1405.29
566.893
546.922
527.601
508.89
)


20
(
2102.31
2096.99
2081.01
2054.39
2017.11
1969.18
1910.6
1841.37
1761.49
1670.95
1569.75
1457.9
1335.38
1202.21
1058.38
903.881
395.413
383.301
371.583
360.236
)


20
(
766.041
764.252
758.885
749.94
737.418
721.317
701.64
678.385
651.553
621.144
587.159
549.598
508.462
463.75
415.463
363.601
192.928
188.862
184.929
181.119
)


20
(
2443.57
2441.82
2436.56
2427.79
2415.5
2399.7
2380.38
2357.54
2331.16
2301.23
2267.76
2230.74
2190.14
2145.97
2098.2
2046.84
1877.71
1873.68
1869.79
1866.01
)


20
(
3645.55
3640.21
3624.17
3597.45
3560.03
3511.91
3453.09
3383.56
3303.31
3212.34
3110.63
2998.19
2874.99
2741.02
2596.29
2440.76
1928.82
1916.63
1904.83
1893.41
)


20
(
4806.82
4797.97
4771.41
4727.16
4665.2
4585.53
4488.14
4373.03
4240.19
4089.61
3921.29
3735.2
3531.36
3309.73
3070.31
2813.1
1966.47
1946.3
1926.8
1907.9
)


20
(
5909.45
5897.24
5860.59
5799.51
5713.98
5604.02
5469.61
5310.74
5127.42
4919.62
4687.34
4430.57
4149.3
3843.52
3513.22
3158.38
1990.46
1962.64
1935.73
1909.67
)


20
(
6936.41
6921.02
6874.85
6797.91
6690.18
6551.67
6382.36
6182.25
5951.33
5689.6
5397.04
5073.65
4719.41
4334.31
3918.34
3471.48
2000.74
1965.7
1931.81
1898.99
)


20
(
7871.76
7853.44
7798.49
7706.9
7578.67
7413.79
7212.26
6974.08
6699.22
6387.69
6039.48
5654.57
5232.95
4774.62
4279.55
3747.74
1997.41
1955.72
1915.38
1876.32
)


20
(
8700.98
8680.02
8617.15
8512.36
8365.65
8177.02
7946.46
7673.95
7359.51
7003.1
6604.74
6164.39
5682.06
5157.73
4591.39
3983.03
1980.74
1933.05
1886.91
1842.22
)


20
(
9411.17
9387.9
9318.11
9201.78
9038.91
8829.5
8573.54
8271.03
7921.95
7526.31
7084.08
6595.25
6059.83
5477.78
4849.11
4173.8
1951.18
1898.24
1847.02
1797.42
)


20
(
9991.27
9966.06
9890.44
9764.41
9587.95
9361.07
9083.77
8756.02
8377.83
7949.19
7470.08
6940.5
6360.43
5729.86
5048.78
4317.18
1909.32
1851.97
1796.48
1742.74
)


20
(
10432.2
10405.5
10325.2
10191.5
10004.2
9763.47
9469.18
9121.38
8720.05
8265.18
7756.75
7194.77
6579.22
5910.08
5187.35
4411.01
1855.92
1795.05
1736.17
1679.15
)


20
(
10727.2
10699.3
10615.7
10476.3
10281.2
10030.4
9723.79
9361.42
8943.28
8469.36
7939.65
7354.14
6712.82
6015.68
5262.7
4453.87
1791.87
1728.46
1667.12
1607.71
)


20
(
10871.5
10843
10757.3
10614.5
10414.7
10157.7
9843.62
9472.4
9044.06
8558.57
8015.94
7416.14
6759.18
6045.03
5273.69
4445.14
1718.25
1653.3
1590.46
1529.6
)


20
(
10863
10834.2
10747.9
10604
10402.5
10143.4
9826.83
9452.63
9020.84
8531.45
7984.45
7379.84
6717.6
5997.72
5220.19
4385.01
1636.26
1570.78
1507.44
1446.09
)


20
(
10701.8
10673.3
10587.6
10444.8
10244.9
9987.88
9673.74
9302.46
8874.04
8388.47
7845.75
7245.86
6588.8
5874.55
5103.11
4274.46
1547.23
1482.26
1419.42
1358.55
)


20
(
10390.6
10362.7
10279.1
10139.7
9944.49
9693.55
9386.83
9024.33
8606.05
8131.97
7602.09
7016.39
6374.88
5677.53
4924.35
4115.31
1452.64
1389.21
1327.85
1268.42
)


20
(
9934.28
9907.52
9827.22
9693.39
9506.03
9265.13
8970.68
8622.69
8221.14
7766.03
7257.35
6695.09
6079.25
5409.81
4686.77
3910.12
1354.02
1293.13
1234.23
1177.18
)


20
(
9340.02
9314.79
9239.11
9112.97
8936.37
8709.31
8431.78
8103.79
7725.31
7296.36
6816.91
6286.96
5706.51
5075.55
4394.06
3662.05
1252.87
1195.48
1139.96
1086.19
)


20
(
8616.76
8593.47
8523.6
8407.14
8244.1
8034.47
7778.24
7475.42
7125.99
6729.96
6287.32
5798.05
5262.15
4679.62
4050.45
3374.63
1150.38
1097.4
1046.14
996.502
)


20
(
7774.84
7753.85
7690.89
7585.95
7439.04
7250.15
7019.27
6746.41
6431.55
6074.7
5675.84
5234.98
4752.1
4227.2
3660.27
3051.31
1047.12
999.383
953.197
908.469
)


20
(
6825.32
6806.97
6751.92
6660.16
6531.69
6366.52
6164.63
5926.03
5650.71
5338.67
4989.9
4604.4
4182.16
3723.17
3227.44
2694.94
942.431
900.685
860.299
821.187
)


20
(
5778.68
5763.26
5716.98
5639.84
5531.86
5393.01
5223.31
5022.74
4791.31
4529.01
4235.83
3911.78
3556.84
3171.02
2754.3
2306.69
833.526
798.434
764.485
731.608
)


20
(
4643.62
4631.37
4594.59
4533.3
4447.5
4337.17
4202.32
4042.95
3859.06
3650.63
3417.68
3160.18
2878.15
2571.58
2240.45
1884.78
714.194
686.31
659.334
633.21
)


20
(
3425.45
3416.55
3389.87
3345.39
3283.11
3203.04
3105.18
2989.51
2856.05
2704.79
2535.72
2348.84
2144.16
1921.66
1681.35
1423.22
573.669
553.432
533.855
514.895
)


20
(
2129.37
2123.98
2107.79
2080.81
2043.04
1994.48
1935.12
1864.97
1784.02
1692.28
1589.73
1476.39
1352.25