/*--------------------------------*- C++ -*----------------------------------*\
| =========                 |                                                 |
| \\      /  F ield         | OpenFOAM: The Open Source CFD Toolbox           |
|  \\    /   O peration     | Version:  2212                                  |
|   \\  /    A nd           | Website:  www.openfoam.com                      |
|    \\/     M anipulation  |                                                 |
\*---------------------------------------------------------------------------*/
FoamFile
{
    version     2.0;
    format      ascii;
    arch        "LSB;label=32;scalar=64";
    class       volScalarField;
    location    "75/fluidRegion";
    object      epsilon;
}
// * * * * * * * * * * * * * * * * * * * * * * * * * * * * * * * * * * * * * //

dimensions      [0 2 -3 0 0 0 0];

internalField   nonuniform List<scalar> 
350
(
66.9843
66.9685
66.9527
66.9369
66.9209
66.9049
66.8886
66.8723
66.8558
66.8393
66.8229
66.8067
66.7912
66.7768
66.764
66.7537
66.7472
66.7466
66.7548
66.7765
66.8186
66.8918
67.0123
67.2048
67.5066
66.9843
66.9685
66.9527
66.9369
66.9209
66.9049
66.8886
66.8723
66.8558
66.8393
66.8229
66.8067
66.7912
66.7768
66.764
66.7537
66.7472
66.7466
66.7548
66.7765
66.8186
66.8918
67.0123
67.2048
67.5066
7.65581e+06
7.04511e+06
6.36919e+06
5.6493e+06
4.91327e+06
4.18668e+06
3.49167e+06
2.84629e+06
2.26403e+06
1.75374e+06
1.31975e+06
962183
677499
459142
298355
185123
109170
60860.6
31887
15619.4
7152.48
3117.65
1385.83
735.662
547.109
7.82158e+06
7.19911e+06
6.51008e+06
5.77562e+06
5.02427e+06
4.28217e+06
3.57202e+06
2.9123e+06
2.31688e+06
1.79487e+06
1.35074e+06
984723
693243
469648
305015
189109
111405
62024.6
32442.5
15857.9
7242.13
3146.02
1393.01
737.107
547.532
7.62869e+06
7.01985e+06
6.34619e+06
5.62875e+06
4.89529e+06
4.17126e+06
3.47875e+06
2.83571e+06
2.2556e+06
1.7472e+06
1.31484e+06
958621
675018
457490
297308
184497
108818
60676.6
31798.3
15580.6
7137.27
3112.39
1384.2
735.173
546.934
7.78487e+06
7.16494e+06
6.47873e+06
5.74744e+06
4.99945e+06
4.26078e+06
3.55398e+06
2.89745e+06
2.30496e+06
1.78557e+06
1.34372e+06
979608
689663
467254
303495
188198
110894
61758.2
32315.4
15803.4
7221.68
3139.6
1391.42
736.806
547.452
7.78487e+06
7.16494e+06
6.47873e+06
5.74744e+06
4.99945e+06
4.26078e+06
3.55398e+06
2.89745e+06
2.30496e+06
1.78557e+06
1.34372e+06
979608
689662
467254
303495
188198
110894
61758.2
32315.3
15803.4
7221.68
3139.6
1391.42
736.807
547.452
7.62871e+06
7.01986e+06
6.3462e+06
5.62876e+06
4.89529e+06
4.17127e+06
3.47876e+06
2.83572e+06
2.2556e+06
1.74721e+06
1.31484e+06
958622
675019
457490
297309
184497
108818
60676.5
31798.2
15580.5
7137.23
3112.37
1384.19
735.167
546.931
7.82158e+06
7.19911e+06
6.51008e+06
5.77562e+06
5.02427e+06
4.28217e+06
3.57202e+06
2.9123e+06
2.31688e+06
1.79487e+06
1.35074e+06
984723
693243
469648
305015
189109
111405
62024.6
32442.5
15857.9
7242.13
3146.02
1393.01
737.107
547.533
7.65581e+06
7.04511e+06
6.36919e+06
5.6493e+06
4.91327e+06
4.18668e+06
3.49167e+06
2.84629e+06
2.26403e+06
1.75374e+06
1.31975e+06
962182
677499
459142
298354
185123
109169
60860.5
31886.9
15619.4
7152.46
3117.63
1385.82
735.654
547.103
7.78486e+06
7.16494e+06
6.47873e+06
5.74744e+06
4.99945e+06
4.26078e+06
3.55398e+06
2.89745e+06
2.30496e+06
1.78557e+06
1.34372e+06
979608
689662
467254
303495
188198
110894
61758.2
32315.3
15803.4
7221.68
3139.59
1391.42
736.804
547.45
7.62869e+06
7.01985e+06
6.34619e+06
5.62875e+06
4.89529e+06
4.17126e+06
3.47875e+06
2.83571e+06
2.2556e+06
1.7472e+06
1.31484e+06
958621
675018
457490
297309
184497
108818
60676.7
31798.4
15580.6
7137.32
3112.42
1384.22
735.189
546.946
7.6287e+06
7.01986e+06
6.3462e+06
5.62875e+06
4.89529e+06
4.17127e+06
3.47876e+06
2.83572e+06
2.2556e+06
1.74721e+06
1.31484e+06
958621
675018
457490
297308
184497
108818
60676.4
31798.2
15580.5
7137.22
3112.36
1384.19
735.169
546.934
7.78486e+06
7.16494e+06
6.47873e+06
5.74744e+06
4.99945e+06
4.26078e+06
3.55398e+06
2.89745e+06
2.30496e+06
1.78557e+06
1.34372e+06
979607
689662
467254
303495
188198
110894
61758.1
32315.2
15803.3
7221.63
3139.56
1391.4
736.795
547.444
)
;

boundaryField
{
    outletCentralUnloaded
    {
        type            zeroGradient;
    }
    inletCentralUnloaded
    {
        type            zeroGradient;
    }
    outletFuelElement
    {
        type            zeroGradient;
    }
    inletFuelElement
    {
        type            zeroGradient;
    }
    defaultFaces
    {
        type            zeroGradient;
    }
    baffle_master
    {
        type            zeroGradient;
    }
    baffle_slave
    {
        type            zeroGradient;
    }
}


// ************************************************************************* //
