/*--------------------------------*- C++ -*----------------------------------*\
| =========                 |                                                 |
| \\      /  F ield         | OpenFOAM: The Open Source CFD Toolbox           |
|  \\    /   O peration     | Version:  2212                                  |
|   \\  /    A nd           | Website:  www.openfoam.com                      |
|    \\/     M anipulation  |                                                 |
\*---------------------------------------------------------------------------*/
FoamFile
{
    version     2.0;
    format      ascii;
    arch        "LSB;label=32;scalar=64";
    class       volScalarField;
    location    "75/fluidRegion";
    object      Tcav.nuclearFuelPin;
}
// * * * * * * * * * * * * * * * * * * * * * * * * * * * * * * * * * * * * * //

dimensions      [0 0 0 1 0 0 0];

internalField   nonuniform List<scalar> 
350
(
0
0
0
0
0
0
0
0
0
0
0
0
0
0
0
0
0
0
0
0
0
0
0
0
0
0
0
0
0
0
0
0
0
0
0
0
0
0
0
0
0
0
0
0
0
0
0
0
0
0
1845.87
1883.95
1909.09
1921.28
1920.65
1907.48
1882.18
1845.32
1797.62
1739.92
1673.19
1598.55
1517.2
1430.5
1339.86
1246.77
1152.6
1058.43
964.642
870.425
772.86
665.65
538.045
377.926
186.898
1874.32
1913.02
1938.54
1950.9
1950.2
1936.73
1910.92
1873.35
1824.73
1765.94
1697.95
1621.9
1539.01
1450.64
1358.25
1263.35
1167.36
1071.41
975.951
880.203
781.248
672.707
543.613
381.545
188.121
1841.24
1879.25
1904.34
1916.53
1915.93
1902.82
1877.62
1840.89
1793.35
1735.84
1669.32
1594.91
1513.82
1427.38
1337.03
1244.22
1150.34
1056.44
962.92
868.942
771.595
664.597
537.226
377.399
186.712
1867.92
1906.46
1931.88
1944.18
1943.49
1930.07
1904.37
1866.95
1818.53
1759.98
1692.27
1616.53
1533.99
1446
1354.01
1259.52
1163.95
1068.41
973.336
877.941
779.307
671.073
542.322
380.705
187.838
1867.92
1906.46
1931.88
1944.18
1943.49
1930.07
1904.37
1866.95
1818.53
1759.98
1692.27
1616.53
1533.99
1446
1354.01
1259.52
1163.95
1068.41
973.336
877.941
779.307
671.073
542.322
380.705
187.838
1841.24
1879.25
1904.34
1916.53
1915.93
1902.82
1877.62
1840.89
1793.35
1735.84
1669.33
1594.91
1513.82
1427.38
1337.03
1244.22
1150.34
1056.44
962.92
868.942
771.596
664.598
537.226
377.399
186.712
1874.32
1913.02
1938.54
1950.9
1950.2
1936.73
1910.92
1873.35
1824.73
1765.94
1697.95
1621.9
1539.01
1450.64
1358.25
1263.35
1167.36
1071.41
975.951
880.203
781.248
672.707
543.613
381.545
188.121
1845.87
1883.95
1909.09
1921.28
1920.65
1907.48
1882.18
1845.32
1797.62
1739.92
1673.19
1598.55
1517.2
1430.5
1339.86
1246.77
1152.6
1058.43
964.642
870.425
772.86
665.65
538.045
377.926
186.898
1867.92
1906.46
1931.88
1944.18
1943.49
1930.07
1904.37
1866.95
1818.53
1759.98
1692.27
1616.53
1533.99
1446
1354.01
1259.52
1163.95
1068.41
973.336
877.941
779.307
671.073
542.322
380.705
187.838
1841.24
1879.25
1904.34
1916.53
1915.93
1902.82
1877.62
1840.89
1793.35
1735.84
1669.32
1594.91
1513.82
1427.38
1337.03
1244.22
1150.34
1056.44
962.92
868.942
771.595
664.598
537.226
377.399
186.712
1841.24
1879.25
1904.34
1916.53
1915.93
1902.82
1877.62
1840.89
1793.35
1735.84
1669.33
1594.91
1513.82
1427.38
1337.03
1244.22
1150.34
1056.44
962.92
868.942
771.596
664.598
537.226
377.399
186.712
1867.92
1906.46
1931.88
1944.18
1943.49
1930.07
1904.37
1866.95
1818.53
1759.98
1692.27
1616.53
1533.99
1446
1354.01
1259.52
1163.95
1068.41
973.336
877.941
779.307
671.073
542.322
380.705
187.838
)
;

boundaryField
{
    outletCentralUnloaded
    {
        type            zeroGradient;
    }
    inletCentralUnloaded
    {
        type            zeroGradient;
    }
    outletFuelElement
    {
        type            zeroGradient;
    }
    inletFuelElement
    {
        type            zeroGradient;
    }
    defaultFaces
    {
        type            zeroGradient;
    }
    baffle_master
    {
        type            zeroGradient;
    }
    baffle_slave
    {
        type            zeroGradient;
    }
}


// ************************************************************************* //
