/*--------------------------------*- C++ -*----------------------------------*\
| =========                 |                                                 |
| \\      /  F ield         | OpenFOAM: The Open Source CFD Toolbox           |
|  \\    /   O peration     | Version:  2212                                  |
|   \\  /    A nd           | Website:  www.openfoam.com                      |
|    \\/     M anipulation  |                                                 |
\*---------------------------------------------------------------------------*/
FoamFile
{
    version     2.0;
    format      ascii;
    arch        "LSB;label=32;scalar=64";
    class       volScalarField;
    location    "75/fluidRegion";
    object      Tco.nuclearFuelPin;
}
// * * * * * * * * * * * * * * * * * * * * * * * * * * * * * * * * * * * * * //

dimensions      [0 0 0 1 0 0 0];

internalField   nonuniform List<scalar> 
350
(
0
0
0
0
0
0
0
0
0
0
0
0
0
0
0
0
0
0
0
0
0
0
0
0
0
0
0
0
0
0
0
0
0
0
0
0
0
0
0
0
0
0
0
0
0
0
0
0
0
0
1840.16
1866.92
1881
1882.58
1871.95
1849.55
1815.93
1771.79
1717.98
1655.42
1585.17
1508.38
1426.32
1340.33
1251.84
1162.27
1072.96
984.901
898.392
812.494
724.162
626.954
509.96
360.897
181.191
1868.55
1895.79
1910.14
1911.76
1900.94
1878.14
1843.91
1798.98
1744.18
1680.47
1608.92
1530.7
1447.08
1359.44
1269.22
1177.88
1086.81
997.041
908.941
821.608
731.992
633.567
515.207
364.32
182.349
1835.55
1862.25
1876.31
1877.91
1867.32
1845
1811.49
1767.5
1713.86
1651.49
1581.46
1504.91
1423.1
1337.38
1249.16
1159.87
1070.84
983.051
896.79
811.116
722.986
625.971
509.192
360.4
181.016
1862.17
1889.28
1903.55
1905.15
1894.36
1871.63
1837.53
1792.77
1738.19
1674.73
1603.47
1525.57
1442.31
1355.04
1265.21
1174.28
1083.61
994.234
906.501
819.499
730.18
632.036
513.99
363.525
182.081
1862.17
1889.28
1903.55
1905.15
1894.36
1871.63
1837.53
1792.77
1738.19
1674.73
1603.47
1525.57
1442.31
1355.04
1265.21
1174.28
1083.61
994.234
906.501
819.499
730.18
632.036
513.99
363.525
182.081
1835.55
1862.25
1876.31
1877.91
1867.33
1845
1811.49
1767.5
1713.86
1651.49
1581.46
1504.91
1423.1
1337.38
1249.16
1159.87
1070.84
983.052
896.791
811.117
722.987
625.972
509.193
360.401
181.016
1868.55
1895.79
1910.14
1911.76
1900.94
1878.14
1843.91
1798.98
1744.18
1680.47
1608.92
1530.7
1447.08
1359.44
1269.22
1177.88
1086.81
997.04
908.941
821.608
731.992
633.568
515.207
364.32
182.349
1840.16
1866.92
1881
1882.58
1871.95
1849.55
1815.93
1771.79
1717.98
1655.42
1585.17
1508.38
1426.32
1340.33
1251.83
1162.27
1072.96
984.901
898.392
812.494
724.162
626.954
509.96
360.897
181.191
1862.17
1889.28
1903.55
1905.15
1894.36
1871.63
1837.53
1792.77
1738.19
1674.73
1603.47
1525.57
1442.31
1355.04
1265.21
1174.28
1083.61
994.234
906.501
819.499
730.18
632.036
513.99
363.525
182.081
1835.55
1862.25
1876.31
1877.91
1867.32
1845
1811.49
1767.5
1713.86
1651.49
1581.46
1504.91
1423.1
1337.38
1249.16
1159.87
1070.84
983.051
896.79
811.116
722.986
625.972
509.193
360.4
181.016
1835.55
1862.25
1876.31
1877.91
1867.33
1845
1811.49
1767.5
1713.86
1651.49
1581.46
1504.91
1423.1
1337.38
1249.16
1159.87
1070.84
983.051
896.791
811.117
722.987
625.972
509.193
360.401
181.016
1862.17
1889.28
1903.55
1905.15
1894.36
1871.63
1837.53
1792.77
1738.19
1674.73
1603.47
1525.57
1442.31
1355.04
1265.21
1174.28
1083.61
994.234
906.501
819.499
730.18
632.036
513.99
363.525
182.081
)
;

boundaryField
{
    outletCentralUnloaded
    {
        type            zeroGradient;
    }
    inletCentralUnloaded
    {
        type            zeroGradient;
    }
    outletFuelElement
    {
        type            zeroGradient;
    }
    inletFuelElement
    {
        type            zeroGradient;
    }
    defaultFaces
    {
        type            zeroGradient;
    }
    baffle_master
    {
        type            zeroGradient;
    }
    baffle_slave
    {
        type            zeroGradient;
    }
}


// ************************************************************************* //
