/*--------------------------------*- C++ -*----------------------------------*\
| =========                 |                                                 |
| \\      /  F ield         | OpenFOAM: The Open Source CFD Toolbox           |
|  \\    /   O peration     | Version:  2212                                  |
|   \\  /    A nd           | Website:  www.openfoam.com                      |
|    \\/     M anipulation  |                                                 |
\*---------------------------------------------------------------------------*/
FoamFile
{
    version     2.0;
    format      ascii;
    arch        "LSB;label=32;scalar=64";
    class       volScalarField;
    location    "75/fluidRegion";
    object      Tfi.nuclearFuelPin;
}
// * * * * * * * * * * * * * * * * * * * * * * * * * * * * * * * * * * * * * //

dimensions      [0 0 0 1 0 0 0];

internalField   nonuniform List<scalar> 
350
(
0
0
0
0
0
0
0
0
0
0
0
0
0
0
0
0
0
0
0
0
0
0
0
0
0
0
0
0
0
0
0
0
0
0
0
0
0
0
0
0
0
0
0
0
0
0
0
0
0
0
2425.4
3613.81
4761.99
5852.23
6867.66
7792.51
8612.43
9314.64
9888.21
10324.2
10615.8
10758.4
10749.9
10590.4
10282.5
9831.09
9243.26
8527.83
7694.96
6755.57
5719.99
4596.78
3391.1
2107.92
766.639
2460.49
3662.69
4824.13
5926.88
6953.87
7889.18
8718.26
9428.23
10008
10448.5
10743
10886.7
10877.4
10715.4
10403.3
9946.01
9350.7
8626.37
7783.36
6832.76
5785.05
4648.87
3429.35
2131.36
774.503
2419.72
3605.95
4752.05
5840.31
6853.91
7777.12
8595.59
9296.59
9869.19
10304.5
10595.6
10738
10729.6
10570.5
10263.3
9812.88
9226.24
8512.22
7680.96
6743.35
5709.7
4588.56
3385.08
2104.24
765.396
2452.56
3651.58
4809.94
5909.8
6934.11
7867
8693.96
9402.13
9980.47
10419.9
10713.7
10857.1
10848.1
10686.6
10375.5
9919.54
9325.96
8603.68
7763
6814.98
5770.06
4636.87
3420.54
2125.95
772.692
2452.56
3651.58
4809.94
5909.8
6934.11
7867
8693.96
9402.13
9980.47
10419.9
10713.7
10857.1
10848.1
10686.6
10375.5
9919.54
9325.96
8603.68
7763
6814.98
5770.06
4636.87
3420.54
2125.95
772.692
2419.72
3605.96
4752.05
5840.32
6853.91
7777.12
8595.59
9296.59
9869.19
10304.5
10595.6
10738
10729.6
10570.5
10263.3
9812.89
9226.24
8512.22
7680.96
6743.35
5709.7
4588.56
3385.08
2104.24
765.396
2460.49
3662.69
4824.13
5926.88
6953.87
7889.18
8718.26
9428.23
10008
10448.5
10743
10886.7
10877.4
10715.4
10403.3
9946.01
9350.7
8626.37
7783.36
6832.76
5785.05
4648.87
3429.35
2131.36
774.503
2425.4
3613.81
4761.99
5852.23
6867.66
7792.51
8612.43
9314.64
9888.21
10324.2
10615.8
10758.4
10749.9
10590.4
10282.5
9831.09
9243.26
8527.83
7694.96
6755.57
5719.99
4596.78
3391.1
2107.92
766.64
2452.56
3651.58
4809.94
5909.8
6934.11
7867
8693.96
9402.13
9980.47
10419.9
10713.7
10857.1
10848.1
10686.6
10375.5
9919.54
9325.96
8603.68
7763
6814.98
5770.06
4636.87
3420.54
2125.95
772.692
2419.72
3605.95
4752.05
5840.31
6853.91
7777.12
8595.59
9296.59
9869.19
10304.5
10595.6
10738
10729.6
10570.5
10263.3
9812.88
9226.24
8512.22
7680.96
6743.35
5709.7
4588.56
3385.08
2104.24
765.396
2419.72
3605.96
4752.05
5840.32
6853.91
7777.12
8595.59
9296.59
9869.19
10304.5
10595.6
10738
10729.6
10570.5
10263.3
9812.89
9226.24
8512.22
7680.96
6743.35
5709.7
4588.56
3385.08
2104.24
765.396
2452.56
3651.58
4809.94
5909.8
6934.11
7867
8693.96
9402.13
9980.47
10419.9
10713.7
10857.1
10848.1
10686.6
10375.5
9919.54
9325.96
8603.68
7763
6814.98
5770.06
4636.87
3420.54
2125.95
772.692
)
;

boundaryField
{
    outletCentralUnloaded
    {
        type            zeroGradient;
    }
    inletCentralUnloaded
    {
        type            zeroGradient;
    }
    outletFuelElement
    {
        type            zeroGradient;
    }
    inletFuelElement
    {
        type            zeroGradient;
    }
    defaultFaces
    {
        type            zeroGradient;
    }
    baffle_master
    {
        type            zeroGradient;
    }
    baffle_slave
    {
        type            zeroGradient;
    }
}


// ************************************************************************* //
