/*--------------------------------*- C++ -*----------------------------------*\
| =========                 |                                                 |
| \\      /  F ield         | OpenFOAM: The Open Source CFD Toolbox           |
|  \\    /   O peration     | Version:  2212                                  |
|   \\  /    A nd           | Website:  www.openfoam.com                      |
|    \\/     M anipulation  |                                                 |
\*---------------------------------------------------------------------------*/
FoamFile
{
    version     2.0;
    format      ascii;
    arch        "LSB;label=32;scalar=64";
    class       scalarFieldField;
    location    "75/fluidRegion";
    object      Trad.nuclearFuelPin;
}
// * * * * * * * * * * * * * * * * * * * * * * * * * * * * * * * * * * * * * //


350
(
0()
0()
0()
0()
0()
0()
0()
0()
0()
0()
0()
0()
0()
0()
0()
0()
0()
0()
0()
0()
0()
0()
0()
0()
0()
0()
0()
0()
0()
0()
0()
0()
0()
0()
0()
0()
0()
0()
0()
0()
0()
0()
0()
0()
0()
0()
0()
0()
0()
0()

20
(
2425.4
2423.61
2418.24
2409.3
2396.77
2380.67
2360.98
2337.72
2310.88
2280.46
2246.46
2208.88
2167.73
2122.99
2074.67
2022.77
1851.98
1847.91
1843.97
1840.16
)


20
(
3613.81
3608.47
3592.44
3565.74
3528.35
3480.28
3421.52
3352.08
3271.96
3181.16
3079.67
2967.5
2844.65
2711.11
2566.89
2411.99
1902.19
1890.04
1878.3
1866.92
)


20
(
4761.99
4753.18
4726.76
4682.71
4621.05
4541.77
4444.87
4330.35
4198.21
4048.46
3881.08
3696.09
3493.48
3273.25
3035.4
2779.93
1939.17
1919.14
1899.77
1881
)


20
(
5852.23
5840.1
5803.68
5742.99
5658.03
5548.79
5415.27
5257.48
5075.41
4869.07
4638.44
4383.55
4104.37
3800.92
3473.2
3121.19
1962.73
1935.14
1908.44
1882.58
)


20
(
6867.66
6852.38
6806.56
6730.18
6623.25
6485.78
6317.75
6119.17
5890.04
5630.36
5340.13
5019.35
4668.02
4286.13
3873.7
3430.71
1972.82
1938.09
1904.49
1871.95
)


20
(
7792.51
7774.34
7719.82
7628.97
7501.76
7338.22
7138.33
6902.1
6629.52
6320.6
5975.34
5593.73
5175.78
4721.49
4230.85
3703.86
1969.53
1928.22
1888.25
1849.55
)


20
(
8612.43
8591.64
8529.3
8425.39
8279.92
8092.89
7864.29
7594.13
7282.41
6929.12
6534.27
6097.85
5619.88
5100.33
4539.23
3936.56
1953.15
1905.9
1860.19
1815.93
)


20
(
9314.64
9291.58
9222.39
9107.07
8945.62
8738.05
8484.35
8184.52
7838.57
7446.48
7008.27
6523.93
5993.47
5416.87
4794.15
4125.3
1924.08
1871.65
1820.92
1771.79
)


20
(
9888.21
9863.23
9788.29
9663.38
9488.5
9263.66
8988.86
8664.09
8289.36
7864.67
7390.01
6865.38
6290.8
5666.24
4991.72
4267.24
1882.93
1826.14
1771.19
1717.98
)


20
(
10324.2
10297.7
10218.2
10085.6
9900.09
9661.53
9369.96
9025.38
8627.78
8177.17
7673.55
7116.91
6507.26
5844.6
5128.92
4360.23
1830.44
1770.18
1711.88
1655.42
)


20
(
10615.8
10588.2
10505.3
10367.3
10174
9925.45
9621.71
9262.74
8848.55
8379.13
7854.49
7274.62
6639.52
5949.2
5203.65
4402.88
1767.49
1704.72
1643.98
1585.17
)


20
(
10758.4
10730.1
10645.3
10503.8
10305.8
10051.3
9740.18
9372.49
8948.23
8467.41
7930.02
7336.06
6685.53
5978.44
5214.78
4394.55
1695.14
1630.84
1568.63
1508.38
)


20
(
10749.9
10721.3
10635.8
10493.3
10293.7
10037.1
9723.55
9352.94
8925.31
8440.66
7899
7300.32
6644.63
5931.91
5162.18
4335.43
1614.56
1549.75
1487.04
1426.32
)


20
(
10590.4
10562.1
10477.2
10335.8
10137.8
9883.26
9572.14
9204.45
8780.19
8299.37
7761.98
7168.02
6517.49
5810.4
5046.73
4226.5
1527.09
1462.78
1400.58
1340.33
)


20
(
10282.5
10254.9
10172
10034
9840.66
9592.14
9288.4
8929.43
8515.24
8045.82
7521.17
6941.3
6306.2
5615.88
4870.33
4069.55
1434.16
1371.38
1310.65
1251.84
)


20
(
9831.09
9804.59
9725.07
9592.53
9406.99
9168.43
8876.85
8532.27
8134.67
7684.06
7180.43
6623.79
6014.14
5351.47
4635.79
3867.09
1337.29
1277.03
1218.73
1162.27
)


20
(
9243.26
9218.28
9143.33
9018.42
8843.55
8618.71
8343.9
8019.13
7644.4
7219.7
6745.03
6220.4
5645.81
5021.25
4346.73
3622.24
1237.92
1181.12
1126.17
1072.96
)


20
(
8527.83
8504.77
8435.57
8320.25
8158.81
7951.23
7697.53
7397.7
7051.74
6659.65
6221.43
5737.09
5206.61
4630.01
4007.28
3338.43
1137.19
1084.75
1034.03
984.901
)


20
(
7694.96
7674.18
7611.83
7507.92
7362.45
7175.41
6946.81
6676.65
6364.92
6011.63
5616.77
5180.36
4702.37
4182.83
3621.71
3019.04
1035.61
988.366
942.658
898.392
)


20
(
6755.57
6737.4
6682.88
6592.02
6464.82
6301.27
6101.38
5865.14
5592.56
5283.63
4938.36
4556.74
4138.79
3684.48
3193.83
2666.84
932.484
891.169
851.201
812.494
)


20
(
5719.99
5704.71
5658.89
5582.51
5475.58
5338.1
5170.06
4971.48
4742.34
4482.66
4192.42
3871.63
3520.29
3138.39
2725.95
2282.95
825.027
790.297
756.7
724.162
)


20
(
4596.78
4584.64
4548.23
4487.53
4402.56
4293.32
4159.79
4001.99
3819.92
3613.56
3382.93
3128.02
2848.83
2545.37
2217.63
1865.61
707.104
679.507
652.809
626.954
)


20
(
3391.1
3382.29
3355.86
3311.81
3250.15
3170.86
3073.95
2959.43
2827.28
2677.52
2510.14
2325.13
2122.51
1902.27
1664.41
1408.93
568.13
548.101
528.725
509.96
)


20
(
2107.92
2102.58
2086.55
2059.84
2022.45
1974.37
1915.61
1846.17
1766.04
1675.23
1573.73
1461.55
1338.69
1205.14
1060.91
905.999
396.169
384.024
372.275
360.897
)


20
(
766.639
764.849
759.479
750.528
737.997
721.886
702.195
678.923
652.071
621.639
587.626
550.034
508.861
464.108
415.774
363.861
193.011
188.942
185.004
181.191
)


20
(
2460.49
2458.68
2453.25
2444.2
2431.53
2415.25
2395.34
2371.81
2344.66
2313.89
2279.51
2241.5
2199.87
2154.62
2105.75
2053.26
1880.5
1876.39
1872.41
1868.55
)


20
(
3662.69
3657.29
3641.08
3614.07
3576.25
3527.63
3468.2
3397.97
3316.93
3225.09
3122.44
3008.99
2884.72
2749.66
2603.79
2447.11
1931.47
1919.18
1907.3
1895.79
)


20
(
4824.13
4815.22
4788.49
4743.94
4681.57
4601.38
4503.37
4387.54
4253.89
4102.42
3933.13
3746.02
3541.08
3318.33
3077.76
2819.36
1968.97
1948.71
1929.12
1910.14
)


20
(
5926.88
5914.6
5877.77
5816.38
5730.45
5619.95
5484.91
5325.31
5141.15
4932.45
4699.18
4441.37
4159
3852.07
3520.59
3164.55
1992.82
1964.91
1937.91
1911.76
)


20
(
6953.87
6938.42
6892.07
6814.82
6706.67
6567.62
6397.66
6196.81
5965.06
5702.4
5408.85
5084.39
4729.03
4342.77
3925.61
3477.55
2002.96
1967.84
1933.85
1900.94
)


20
(
7889.18
7870.8
7815.66
7723.76
7595.1
7429.68
7227.5
6988.57
6712.87
6400.41
6051.19
5665.21
5242.47
4782.97
4286.71
3753.69
1999.5
1957.71
1917.29
1878.14
)


20
(
8718.26
8697.24
8634.19
8529.09
8381.95
8192.77
7961.56
7688.3
7373.01
7015.68
6616.3
6174.89
5691.44
5165.94
4598.41
3988.84
1982.7
1934.92
1888.68
1843.91
)


20
(
9428.23
9404.9
9334.92
9218.28
9054.98
8845.03
8588.43
8285.16
7935.25
7538.67
7095.44
6605.56
6069.01
5485.81
4855.96
4179.44
1953.01
1899.98
1848.67
1798.98
)


20
(
10008
9982.74
9906.93
9780.59
9603.71
9376.3
9098.35
8769.86
8390.84
7961.28
7481.18
6950.55
6369.38
5737.67
5055.43
4322.64
1911.03
1853.58
1798
1744.18
)


20
(
10448.5
10421.7
10341.3
10207.3
10019.6
9778.29
9483.38
9134.85
8732.7
8276.93
7767.54
7204.52
6587.89
5917.64
5193.76
4416.27
1857.5
1796.54
1737.58
1680.47
)


20
(
10743
10715
10631.2
10491.6
10296.1
10044.7
9737.51
9374.44
8955.5
8480.7
7950.05
7363.54
6721.17
6022.94
5268.85
4458.9
1793.33
1729.84
1668.41
1608.92
)


20
(
10886.7
10858.1
10772.2
10629.2
10428.9
10171.5
9856.78
9484.89
9055.77
8569.44
8025.89
7425.13
6767.15
6051.96
5279.55
4449.92
1719.59
1654.55
1591.63
1530.7
)


20
(
10877.4
10848.6
10762.1
10617.9
10416.1
10156.5
9839.35
9464.5
9031.97
8541.77
7993.91
7388.37
6725.16
6004.28
5225.73
4389.51
1637.48
1571.92
1508.5
1447.08
)


20
(
10715.4
10686.8
10601
10458
10257.7
10000.2
9685.54
9313.64
8884.53
8398.2
7854.65
7253.88
6595.91
5880.71
5108.3
4278.67
1548.34
1483.3
1420.38
1359.44
)


20
(
10403.3
10375.4
10291.6
10151.9
9956.43
9705.06
9397.84
9034.76
8615.82
8141.03
7610.37
7023.86
6381.48
5683.25
4929.16
4119.21
1453.63
1390.14
1328.71
1269.22
)


20
(
9946.01
9919.2
9838.76
9704.71
9517.04
9275.75
8980.84
8632.3
8230.15
7774.38
7264.98
6701.96
6085.33
5415.07
4691.19
3913.69
1354.91
1293.96
1234.99
1177.88
)


20
(
9350.7
9325.43
9249.63
9123.28
8946.4
8718.99
8441.03
8112.54
7733.52
7303.95
6823.85
6293.21
5712.04
5080.32
4398.07
3665.29
1253.65
1196.2
1140.63
1086.81
)


20
(
8626.37
8603.05
8533.06
8416.42
8253.12
8043.17
7786.56
7483.29
7133.37
6736.79
6293.56
5803.66
5267.11
4683.91
4054.05
3377.53
1151.08
1098.04
1046.73
997.041
)


20
(
7783.36
7762.34
7699.28
7594.18
7447.04
7257.86
7026.65
6753.39
6438.09
6080.75
5681.37
5239.95
4756.5
4231
3663.46
3053.88
1047.73
999.945
953.714
908.941
)


20
(
6832.76
6814.38
6759.24
6667.34
6538.68
6373.26
6171.07
5932.13
5656.43
5343.96
4994.74
4608.75
4186
3726.49
3230.22
2697.19
942.972
901.184
860.758
821.608
)


20
(
5785.05
5769.6
5723.24
5645.99
5537.84
5398.78
5228.82
5027.96
4796.2
4533.54
4239.98
3915.51
3560.14
3173.88
2756.71
2308.63
834.012
798.885
764.902
731.992
)


20
(
4648.87
4636.59
4599.76
4538.37
4452.43
4341.93
4206.88
4047.27
3863.1
3654.39
3421.11
3163.28
2880.9
2573.96
2242.46
1886.41
714.636
686.722
659.719
633.567
)


20
(
3429.35
3420.44
3393.71
3349.16
3286.78
3206.59
3108.57
2992.73
2859.07
2707.59
2538.29
2351.17
2146.23
1923.46
1682.88
1424.47
574.043
553.785
534.186
515.207
)


20
(
2131.36
2125.95
2109.74
2082.73
2044.91
1996.28
1936.85
1866.61
1785.56
1693.71
1591.05
1477.59
1353.32
1218.24
1072.36
915.667
399.996
387.713
375.829
364.32
)


20
(
774.503
772.693
767.261
758.208
745.533
729.237
709.32
685.782
658.623
627.842
593.44
555.416
513.772
468.506
419.619
367.111
194.305
190.188
186.206
182.349
)


20
(
2419.72
2417.93
2412.58
2403.65
2391.14
2375.07
2355.42
2332.2
2305.41
2275.05
2241.11
2203.6
2162.52
2117.86
2069.63
2017.83
1847.34
1843.28
1839.35
1835.55
)


20
(
3605.95
3600.62
3584.63
3557.97
3520.65
3472.67
3414.02
3344.71
3264.73
3174.09
3072.79
2960.83
2838.2
2704.9
2560.95
2406.32
1897.45
1885.33
1873.61
1862.25
)


20
(
4752.05
4743.25
4716.87
4672.91
4611.36
4532.22
4435.5
4321.19
4189.29
4039.81
3872.74
3688.09
3485.85
3266.02
3028.6
2773.6
1934.37
1914.38
1895.04
1876.31
)


20
(
5840.31
5828.2
5791.85
5731.27
5646.46
5537.42
5404.15
5246.64
5064.91
4858.94
4628.74
4374.31
4095.64
3792.75
3465.62
3114.25
1957.91
1930.36
1903.71
1877.91
)


20
(
6853.91
6838.67
6792.92
6716.69
6609.96
6472.73
6305.01
6106.79
5878.08
5618.88
5329.17
5008.98
4658.29
4277.1
3865.41
3423.23
1968
1933.34
1899.8
1867.32
)


20
(
7777.12
7758.98
7704.57
7613.87
7486.91
7323.66
7124.13
6888.33
6616.25
6307.9
5963.27
5582.35
5165.16
4711.7
4221.95
3695.93
1964.76
1923.53
1883.63
1845
)


20
(
8595.59
8574.85
8512.62
8408.9
8263.69
8077
7848.82
7579.15
7268
6915.36
6521.23
6085.61
5608.5
5089.91
4529.82
3928.25
1948.46
1901.3
1855.67
1811.49
)


20
(
9296.59
9273.57
9204.5
9089.4
8928.24
8721.05
8467.81
8168.53
7823.21
7431.84
6994.43
6510.97
5981.47
5405.93
4784.34
4116.71
1919.51
1867.17
1816.54
1767.5
)


20
(
9869.19
9844.25
9769.44
9644.76
9470.2
9245.78
8971.48
8647.3
8273.25
7849.33
7375.54
6851.87
6278.33
5654.92
4981.63
4258.47
1878.51
1821.82
1766.97
1713.86
)


20
(
10304.5
10278
10198.6
10066.3
9881.12
9643
9351.96
9008.01
8611.14
8161.35
7658.64
7103.02
6494.48
5833.03
5118.66
4351.37
1826.19
1766.04
1707.85
1651.49
)


20
(
10595.6
10568
10485.3
10347.5
10154.6
9906.52
9603.34
9245.02
8831.59
8363.03
7839.34
7260.53
6626.59
5937.53
5193.34
4394.03
1763.45
1700.79
1640.17
1581.46
)


20
(
10738
10709.8
10625.1
10484
10286.3
10032.2
9721.69
9354.67
8931.19
8451.24
7914.83
7321.96
6672.62
5966.81
5204.55
4385.81
1691.32
1627.14
1565.04
1504.91
)


20
(
10729.6
10701.2
10615.8
10473.5
10274.3
10018.2
9705.19
9335.26
8908.41
8424.65
7883.98
7286.39
6631.89
5920.47
5152.14
4326.9
1611
1546.3
1483.71
1423.1
)


20
(
10570.5
10542.3
10457.6
10316.4
10118.8
9864.72
9554.17
9187.15
8763.67
8283.72
7747.31
7154.44
6505.1
5799.29
5037.02
4218.28
1523.79
1459.61
1397.51
1337.38
)


20
(
10263.3
10235.8
10153.1
10015.3
9822.32
9574.25
9271.07
8912.75
8499.32
8030.75
7507.06
6928.25
6294.31
5605.24
4861.05
4061.74
1431.15
1368.49
1307.87
1249.16
)


20
(
9812.88
9786.43
9707.05
9574.76
9389.55
9151.43
8860.39
8516.43
8119.56
7669.77
7167.06
6611.43
6002.89
5341.43
4627.06
3859.77
1334.58
1274.42
1216.23
1159.87
)


20
(
9226.24
9201.31
9126.5
9001.81
8827.25
8602.82
8328.52
8004.34
7630.29
7206.37
6732.57
6208.9
5635.35
5011.93
4338.64
3615.47
1235.5
1178.8
1123.96
1070.84
)


20
(
8512.22
8489.2
8420.13
8305.02
8143.87
7936.67
7683.43
7384.15
7038.82
6647.45
6210.03
5726.57
5197.06
4621.52
3999.92
3332.28
1135.06
1082.72
1032.09
983.051
)


20
(
7680.96
7660.21
7597.98
7494.26
7349.06
7162.36
6934.18
6664.51
6353.35
6000.7
5606.57
5170.94
4693.83
4175.23
3615.15
3013.57
1033.76
986.599
940.975
896.79
)


20
(
6743.35
6725.21
6670.8
6580.1
6453.13
6289.88
6090.35
5854.54
5582.46
5274.1
4929.46
4548.54
4131.34
3677.86
3188.11
2662.08
930.887
889.648
849.752
811.116
)


20
(
5709.7
5694.45
5648.71
5572.47
5465.74
5328.51
5160.78
4962.56
4733.84
4474.63
4184.92
3864.71
3514.01
3132.81
2721.12
2278.93
823.667
789.001
755.464
722.986
)


20
(
4588.56
4576.44
4540.09
4479.51
4394.69
4285.65
4152.37
3994.85
3813.11
3607.13
3376.92
3122.47
2843.8
2540.89
2213.74
1862.37
705.975
678.429
651.78
625.971
)


20
(
3385.08
3376.28
3349.9
3305.93
3244.38
3165.24
3068.51
2954.19
2822.29
2672.8
2505.72
2321.05
2118.8
1898.96
1661.53
1406.52
567.256
547.264
527.923
509.192
)


20
(
2104.24
2098.91
2082.91
2056.25
2018.92
1970.93
1912.28
1842.96
1762.98
1672.34
1571.03
1459.05
1336.41
1203.11
1059.14
904.508
395.608
383.485
371.758
360.4
)


20
(
765.396
763.609
758.248
749.314
736.806
720.724
701.069
677.839
651.036
620.66
586.709
549.185
508.087
463.416
415.171
363.352
192.814
188.752
184.822
181.016
)


20
(
2452.56
2450.76
2445.34
2436.32
2423.68
2407.44
2387.58
2364.11
2337.04
2306.35
2272.05
2234.14
2192.62
2147.49
2098.75
2046.39
1874.09
1869.98
1866.01
1862.17
)


20
(
3651.58
3646.19
3630.02
3603.08
3565.36
3516.87
3457.59
3387.54
3306.72
3215.11
3112.73
2999.57
2875.64
2740.92
2595.43
2439.16
1924.86
1912.61
1900.76
1889.28
)


20
(
4809.94
4801.06
4774.4
4729.96
4667.76
4587.78
4490.02
4374.49
4241.19
4090.12
3921.27
3734.64
3530.25
3308.07
3068.13
2810.41
1962.23
1942.03
1922.48
1903.55
)


20
(
5909.8
5897.55
5860.82
5799.59
5713.88
5603.68
5468.98
5309.8
5126.13
4917.96
4685.31
4428.16
4146.53
3840.4
3509.78
3154.68
1986
1958.16
1931.23
1905.15
)


20
(
6934.11
6918.7
6872.48
6795.43
6687.56
6548.87
6379.36
6179.03
5947.88
5685.91
5393.12
5069.51
4715.08
4329.83
3913.75
3466.86
1996.11
1961.08
1927.19
1894.36
)


20
(
7867
7848.67
7793.67
7702.01
7573.69
7408.7
7207.05
6968.74
6693.76
6382.12
6033.81
5648.84
5227.2
4768.9
4273.93
3742.3
1992.68
1951
1910.68
1871.63
)


20
(
8693.96
8673
8610.1
8505.28
8358.53
8169.84
7939.23
7666.69
7352.22
6995.81
6597.48
6157.22
5675.03
5150.9
4584.85
3976.87
1975.96
1928.3
1882.19
1837.53
)


20
(
9402.13
9378.86
9309.06
9192.73
9029.86
8820.46
8564.52
8262.05
7913.04
7517.5
7075.43
6586.82
6051.67
5469.99
4841.78
4167.03
1946.4
1893.51
1842.33
1792.77
)


20
(
9980.47
9955.27
9879.66
9753.65
9577.23
9350.41
9073.19
8745.56
8367.52
7939.08
7460.23
6930.98
6351.33
5721.27
5040.8
4309.93
1904.6
1847.3
1791.87
1738.19
)


20
(
10419.9
10393.2
10313
10179.3
9992.1
9751.44
9457.3
9109.68
8708.58
8253.99
7745.93
7184.38
6569.36
5900.85
5178.86
4403.4
1851.3
1790.5
1731.69
1674.73
)


20
(
10713.7
10685.8
10602.3
10463
10268
10017.3
9710.87
9348.74
8930.9
8457.34
7928.07
7343.09
6702.39
6005.98
5253.86
4446.02
1787.4
1724.07
1662.8
1603.47
)


20
(
10857.1
10828.6
10743
10600.3
10400.6
10143.8
9829.95
9459.02
9031.03
8545.96
8003.83
7404.64
6748.38
6035.05
5264.65
4437.19
1713.97
1649.1
1586.35
1525.57
)


20
(
10848.1
10819.3
10733
10589.2
10387.9
10129.1
9812.7
9438.82
9007.42
8518.5
7972.06
7368.11
6706.63
5987.63
5211.11
4377.07
1632.21
1566.82
1503.57
1442.31
)


20
(
10686.6
10658.1
10572.5
10429.8
10230.1
9973.3
9659.44
9288.5
8860.51
8375.44
7833.31
7234.12
6577.85
5864.52
5094.12
4266.66
1543.44
1478.57
1415.82
1355.04
)


20
(
10375.5
10347.6
10264
10124.8
9929.77
9679.06
9372.64
9010.51
8592.66
8119.1
7589.83
7004.85
6364.15
5667.74
4915.61
4107.77
1449.14
1385.81
1324.54
1265.21
)


20
(
9919.54
9892.8
9812.58
9678.88
9491.7
9251.03
8956.89
8609.27
8208.16
7753.57
7245.51
6683.96
6068.93
5400.42
4678.43
3902.95
1350.84
1290.05
1231.24
1174.28
)


20
(
9325.96
9300.75
9225.15
9099.13
8922.71
8695.89
8418.66
8091.03
7712.99
7284.55
6805.7
6276.44
5696.78
5066.71
4386.24
3655.36
1250.02
1192.72
1137.29
1083.61
)


20
(
8603.68
8580.41
8510.61
8394.27
8231.4
8021.99
7766.05
7463.58
7114.57
6719.02
6276.94
5788.33
5253.18
4671.49
4043.27
3368.51
1147.87
1094.97
1043.79
994.234
)


20
(
7763
7742.03
7679.14
7574.31
7427.56
7238.87
7008.26
6735.71
6421.23
6064.83
5666.49
5226.22
4744.03
4219.9
3653.84
3045.85
1044.93
997.268
951.157
906.501
)


20
(
6814.98
6796.65
6741.65
6649.99
6521.67
6356.67
6155.02
5916.7
5641.71
5330.06
4981.75
4596.77
4175.12
3716.81
3221.84
2690.2
940.547
898.868
858.548
819.499
)


20
(
5770.06
5754.65
5708.42
5631.37
5523.49
5384.8
5215.29
5014.95
4783.79
4521.82
4229.02
3905.4
3550.96
3165.7
2749.62
2302.71
831.934
796.898
763.004
730.18
)


20
(
4636.87
4624.62
4587.89
4526.66
4440.94
4330.73
4196.03
4036.84
3853.15
3644.98
3412.31
3155.16
2873.51
2567.37
2236.74
1881.61
712.892
685.052
658.119
632.036
)


20
(
3420.54
3411.65
3384.99
3340.55
3278.34
3198.35
3100.59
2985.06
2851.75
2700.66
2531.8
2345.17
2140.76
1918.58
1678.62
1420.88
572.673
552.468
532.921
513.99
)


20
(
2125.95
2120.57
2104.4
2077.45
2039.73
1991.23
1931.95
1861.89
1781.06
1689.45
1587.06
1473.89
1349.94
1215.22
1069.71
913.434
399.108
386.857
375.004
363.525
)


20
(
772.692
770.886
765.468
756.439
743.797
727.544
707.679
684.202
657.113
626.413
592.1
554.176
512.64
467.492
418.733
366.361
194.006
189.9
185.928
182.081
)


20
(
2452.56
2450.76
2445.34
2436.32
2423.68
2407.44
2387.58
2364.11
2337.04
2306.35
2272.05
2234.14
2192.62
2147.49
2098.75
2046.39
1874.09
1869.98
1866.01
1862.17
)


20
(
3651.58
3646.19
3630.02
3603.08
3565.36
3516.87
3457.59
3387.54
3306.72
3215.11
3112.73
2999.57
2875.64
2740.92
2595.43
2439.16
1924.86
1912.61
1900.76
1889.28
)


20
(
4809.94
4801.06
4774.4
4729.96
4667.76
4587.78
4490.02
4374.49
4241.19
4090.12
3921.27
3734.64
3530.25
3308.07
3068.13
2810.41
1962.23
1942.03
1922.48
1903.55
)


20
(
5909.8
5897.55
5860.82
5799.6
5713.88
5603.68
5468.98
5309.8
5126.13
4917.96
4685.31
4428.16
4146.53
3840.4
3509.78
3154.68
1986
1958.16
1931.23
1905.15
)


20
(
6934.11
6918.7
6872.47
6795.42
6687.56
6548.87
6379.36
6179.03
5947.88
5685.91
5393.12
5069.51
4715.08
4329.83
3913.75
3466.86
1996.11
1961.08
1927.19
1894.36
)


20
(
7867
7848.67
7793.67
7702.01
7573.69
7408.7
7207.05
6968.74
6693.76
6382.11
6033.81
5648.83
5227.2
4768.9
4273.93
3742.3
1992.68
1951
1910.68
1871.63
)


20
(
8693.96
8673
8610.1
8505.28
8358.53
8169.84
7939.23
7666.69
7352.22
6995.81
6597.48
6157.22
5675.03
5150.9
4584.85
3976.87
1975.96
1928.3
1882.19
1837.53
)


20
(
9402.13
9378.86
9309.06
9192.73
9029.86
8820.46
8564.52
8262.05
7913.04
7517.5
7075.43
6586.82
6051.67
5469.99
4841.78
4167.03
1946.4
1893.51
1842.33
1792.77
)


20
(
9980.47
9955.27
9879.66
9753.65
9577.23
9350.41
9073.19
8745.56
8367.52
7939.08
7460.23
6930.98
6351.33
5721.27
5040.8
4309.93
1904.6
1847.3
1791.87
1738.19
)


20
(
10419.9
10393.2
10313
10179.3
9992.1
9751.44
9457.3
9109.68
8708.58
8253.99
7745.93
7184.38
6569.36
5900.85
5178.86
4403.4
1851.3
1790.5
1731.69
1674.73
)


20
(
10713.7
10685.8
10602.3
10463
10268
10017.3
9710.87
9348.74
8930.9
8457.34
7928.07
7343.09
6702.39
6005.98
5253.86
4446.02
1787.4
1724.07
1662.8
1603.47
)


20
(
10857.1
10828.6
10743
10600.3
10400.6
10143.8
9829.95
9459.02
9031.03
8545.96
8003.83
7404.64
6748.38
6035.05
5264.65
4437.19
1713.97
1649.1
1586.35
1525.57
)


20
(
10848.1
10819.3
10733
10589.2
10387.9
10129.1
9812.7
9438.82
9007.42
8518.5
7972.06
7368.1
6706.63
5987.63
5211.11
4377.07
1632.21
1566.82
1503.57
1442.31
)


20
(
10686.6
10658.1
10572.5
10429.8
10230.1
9973.3
9659.43
9288.5
8860.51
8375.44
7833.31
7234.12
6577.85
5864.52
5094.12
4266.66
1543.44
1478.57
1415.82
1355.04
)


20
(
10375.5
10347.6
10264
10124.8
9929.77
9679.06
9372.64
9010.51
8592.66
8119.1
7589.83
7004.85
6364.15
5667.74
4915.61
4107.77
1449.14
1385.81
1324.54
1265.21
)


20
(
9919.54
9892.8
9812.58
9678.88
9491.7
9251.03
8956.89
8609.27
8208.16
7753.57
7245.51
6683.96
6068.93
5400.42
4678.43
3902.95
1350.84
1290.05
1231.24
1174.28
)


20
(
9325.96
9300.75
9225.15
9099.13
8922.71
8695.89
8418.66
8091.03
7712.99
7284.55
6805.7
6276.44
5696.78
5066.71
4386.24
3655.36
1250.02
1192.72
1137.29
1083.61
)


20
(
8603.68
8580.41
8510.61
8394.27
8231.4
8021.99
7766.05
7463.58
7114.57
6719.02
6276.94
5788.33
5253.17
4671.49
4043.27
3368.51
1147.87
1094.97
1043.79
994.234
)


20
(
7763
7742.03
7679.14
7574.31
7427.56
7238.87
7008.26
6735.71
6421.23
6064.83
5666.49
5226.22
4744.03
4219.9
3653.84
3045.85
1044.93
997.268
951.157
906.501
)


20
(
6814.98
6796.65
6741.65
6649.99
6521.67
6356.67
6155.02
5916.7
5641.71
5330.06
4981.75
4596.77
4175.12
3716.81
3221.84
2690.2
940.547
898.868
858.547
819.499
)


20
(
5770.06
5754.65
5708.42
5631.37
5523.49
5384.8
5215.29
5014.95
4783.79
4521.82
4229.02
3905.4
3550.96
3165.7
2749.61
2302.71
831.934
796.898
763.004
730.18
)


20
(
4636.87
4624.62
4587.89
4526.66
4440.94
4330.73
4196.03
4036.84
3853.15
3644.98
3412.31
3155.16
2873.51
2567.37
2236.74
1881.61
712.892
685.052
658.119
632.036
)


20
(
3420.54
3411.65
3384.99
3340.55
3278.34
3198.35
3100.59
2985.06
2851.75
2700.66
2531.8
2345.17
2140.76
1918.58
1678.62
1420.88
572.673
552.468
532.921
513.99
)


20
(
2125.95
2120.57
2104.4
2077.45
2039.73
1991.23
1931.95
1861.89
1781.06
1689.45
1587.06
1473.89
1349.94
1215.22
1069.71
913.434
399.108
386.857
375.004
363.525
)


20
(
772.692
770.886
765.468
756.439
743.797
727.544
707.679
684.202
657.113
626.413
592.1
554.176
512.64
467.492
418.733
366.362
194.006
189.9
185.928
182.081
)


20
(
2419.72
2417.94
2412.58
2403.65
2391.15
2375.07
2355.42
2332.2
2305.41
2275.05
2241.11
2203.6
2162.52
2117.86
2069.63
2017.83
1847.34
1843.28
1839.35
1835.55
)


20
(
3605.96
3600.62
3584.63
3557.97
3520.65
3472.67
3414.02
3344.71
3264.73
3174.1
3072.79
2960.83
2838.2
2704.91
2560.95
2406.33
1897.46
1885.33
1873.61
1862.25
)


20
(
4752.05
4743.26
4716.88
4672.91
4611.36
4532.22
4435.5
4321.19
4189.3
4039.81
3872.75
3688.09
3485.85
3266.02
3028.6
2773.6
1934.37
1914.38
1895.04
1876.31
)


20
(
5840.32
5828.2
5791.85
5731.28
5646.47
5537.42
5404.15
5246.65
5064.91
4858.94
4628.74
4374.31
4095.64
3792.75
3465.62
3114.26
1957.91
1930.36
1903.71
1877.91
)


20
(
6853.91
6838.67
6792.93
6716.69
6609.96
6472.73
6305.01
6106.79
5878.08
5618.88
5329.18
5008.98
4658.29
4277.1
3865.42
3423.24
1968
1933.34
1899.8
1867.33
)


20
(
7777.12
7758.98
7704.57
7613.88
7486.91
7323.66
7124.14
6888.33
6616.26
6307.9
5963.27
5582.36
5165.17
4711.7
4221.95
3695.93
1964.77
1923.53
1883.63
1845
)


20
(
8595.59
8574.85
8512.62
8408.9
8263.7
8077
7848.82
7579.16
7268
6915.36
6521.23
6085.61
5608.5
5089.91
4529.83
3928.26
1948.46
1901.3
1855.68
1811.49
)


20
(
9296.59
9273.57
9204.5
9089.4
8928.25
8721.05
8467.81
8168.53
7823.21
7431.84
6994.43
6510.97
5981.48
5405.93
4784.35
4116.71
1919.51
1867.17
1816.54
1767.5
)


20
(
9869.19
9844.25
9769.44
9644.76
9470.21
9245.78
8971.48
8647.3
8273.26
7849.34
7375.54
6851.87
6278.33
5654.92
4981.63
4258.47
1878.51
1821.82
1766.97
1713.86
)


20
(
10304.5
10278
10198.6
10066.3
9881.12
9643
9351.96
9008.01
8611.14
8161.35
7658.64
7103.02
6494.49
5833.03
5118.66
4351.37
1826.19
1766.04
1707.85
1651.49
)


20
(
10595.6
10568
10485.3
10347.5
10154.6
9906.52
9603.34
9245.03
8831.59
8363.03
7839.34
7260.53
6626.59
5937.53
5193.34
4394.03
1763.45
1700.79
1640.17
1581.46
)


20
(
10738
10709.8
10625.1
10484
10286.3
10032.2
9721.69
9354.67
8931.19
8451.24
7914.83
7321.96
6672.62
5966.82
5204.55
4385.81
1691.33
1627.14
1565.05
1504.91
)


20
(
10729.6
10701.2
10615.8
10473.5
10274.3
10018.2
9705.19
9335.26
8908.41
8424.65
7883.98
7286.39
6631.89
5920.47
5152.14
4326.9
1611
1546.3
1483.71
1423.1
)


20
(
10570.5
10542.3
10457.6
10316.4
10118.8
9864.72
9554.17
9187.15
8763.67
8283.72
7747.31
7154.44
6505.1
5799.29
5037.02
4218.28
1523.79
1459.61
1397.51
1337.38
)


20
(
10263.3
10235.8
10153.1
10015.3
9822.32
9574.26
9271.07
8912.75
8499.32
8030.75
7507.06
6928.25
6294.31
5605.24
4861.05
4061.74
1431.15
1368.49
1307.87
1249.16
)


20
(
9812.89
9786.43
9707.05
9574.76
9389.55
9151.43
8860.39
8516.43
8119.56
7669.77
7167.06
6611.43
6002.89
5341.43
4627.06
3859.77
1334.58
1274.42
1216.23
1159.87
)


20
(
9226.24
9201.31
9126.5
9001.81
8827.26
8602.83
8328.52
8004.34
7630.29
7206.37
6732.57
6208.9
5635.35
5011.93
4338.64
3615.47
1235.5
1178.81
1123.96
1070.84
)


20
(
8512.22
8489.2
8420.13
8305.02
8143.87
7936.67
7683.43
7384.15
7038.82
6647.45
6210.03
5726.57
5197.06
4621.52
3999.92
3332.28
1135.06
1082.72
1032.09
983.052
)


20
(
7680.96
7660.22
7597.98
7494.26
7349.06
7162.36
6934.18
6664.51
6353.35
6000.7
5606.57
5170.94
4693.83
4175.23
3615.15
3013.57
1033.76
986.6
940.975
896.791
)


20
(
6743.35
6725.21
6670.8
6580.1
6453.13
6289.88
6090.35
5854.54
5582.46
5274.1
4929.46
4548.54
4131.34
3677.86
3188.11
2662.08
930.887
889.648
849.753
811.117
)


20
(
5709.7
5694.45
5648.71
5572.47
5465.74
5328.51
5160.78
4962.56
4733.84
4474.63
4184.92
3864.71
3514.01
3132.81
2721.12
2278.93
823.668
789.002
755.465
722.987
)


20
(
4588.56
4576.44
4540.09
4479.51
4394.7
4285.65
4152.37
3994.86
3813.11
3607.13
3376.92
3122.48
2843.8
2540.89
2213.75
1862.37
705.976
678.429
651.78
625.972
)


20
(
3385.08
3376.28
3349.9
3305.94
3244.38
3165.24
3068.51
2954.19
2822.29
2672.8
2505.72
2321.06
2118.8
1898.96
1661.53
1406.52
567.257
547.264
527.924
509.193
)


20
(
2104.24
2098.91
2082.91
2056.25
2018.92
1970.93
1912.28
1842.96
1762.98
1672.34
1571.03
1459.05
1336.41
1203.11
1059.14
904.509
395.608
383.486
371.758
360.401
)


20
(
765.396
763.609
758.249
749.314
736.806
720.724
701.069
677.84
651.037
620.66
586.709
549.185
508.088
463.416
415.171
363.352
192.814
188.752
184.822
181.016
)


20
(
2460.49
2458.68
2453.25
2444.2
2431.53
2415.25
2395.34
2371.81
2344.66
2313.89
2279.51
2241.5
2199.87
2154.62
2105.75
2053.26
1880.5
1876.39
1872.41
1868.55
)


20
(
3662.69
3657.29
3641.08
3614.07
3576.25
3527.63
3468.2
3397.97
3316.93
3225.09
3122.44
3008.99
2884.72
2749.66
2603.79
2447.11
1931.47
1919.18
1907.3
1895.79
)


20
(
4824.13
4815.22
4788.49
4743.94
4681.57
4601.38
4503.37
4387.54
4253.89
4102.42
3933.13
3746.02
3541.08
3318.33
3077.76
2819.36
1968.97
1948.71
1929.12
1910.14
)


20
(
5926.88
5914.6
5877.77
5816.38
5730.45
5619.95
5484.91
5325.31
5141.16
4932.45
4699.18
4441.37
4159
3852.07
3520.59
3164.55
1992.82
1964.91
1937.91
1911.76
)


20
(
6953.87
6938.42
6892.07
6814.82
6706.67
6567.61
6397.66
6196.81
5965.06
5702.4
5408.85
5084.39
4729.03
4342.77
3925.61
3477.55
2002.96
1967.84
1933.85
1900.94
)


20
(
7889.18
7870.8
7815.66
7723.76
7595.1
7429.68
7227.5
6988.57
6712.87
6400.41
6051.19
5665.21
5242.47
4782.97
4286.71
3753.69
1999.5
1957.71
1917.29
1878.14
)


20
(
8718.26
8697.24
8634.19
8529.09
8381.95
8192.77
7961.56
7688.3
7373.01
7015.68
6616.3
6174.89
5691.44
5165.94
4598.41
3988.84
1982.7
1934.92
1888.68
1843.91
)


20
(
9428.23
9404.9
9334.92
9218.28
9054.98
8845.03
8588.43
8285.16
7935.25
7538.67
7095.44
6605.55
6069.01
5485.81
4855.96
4179.44
1953.01
1899.98
1848.67
1798.98
)


20
(
10008
9982.74
9906.93
9780.59
9603.71
9376.3
9098.35
8769.86
8390.84
7961.28
7481.18
6950.55
6369.38
5737.67
5055.43
4322.64
1911.03
1853.58
1798
1744.18
)


20
(
10448.5
10421.7
10341.3
10207.3
10019.6
9778.29
9483.38
9134.85
8732.7
8276.93
7767.54
7204.52
6587.89
5917.64
5193.76
4416.27
1857.5
1796.54
1737.58
1680.47
)


20
(
10743
10715
10631.2
10491.6
10296.1
10044.7
9737.51
9374.43
8955.5
8480.7
7950.05
7363.54
6721.17
6022.94
5268.85
4458.9
1793.33
1729.84
1668.41
1608.92
)


20
(
10886.7
10858.1
10772.2
10629.2
10428.9
10171.5
9856.78
9484.88
9055.77
8569.44
8025.89
7425.13
6767.15
6051.96
5279.55
4449.92
1719.59
1654.55
1591.63
1530.7
)


20
(
10877.4
10848.6
10762.1
10617.9
10416.1
10156.5
9839.35
9464.5
9031.97
8541.77
7993.91
7388.37
6725.16
6004.28
5225.73
4389.51
1637.48
1571.92
1508.5
1447.08
)


20
(
10715.4
10686.8
10601
10458
10257.7
10000.2
9685.54
9313.64
8884.53
8398.19
7854.65
7253.88
6595.9
5880.71
5108.3
4278.67
1548.34
1483.3
1420.38
1359.44
)


20
(
10403.3
10375.4
10291.6
10151.9
9956.43
9705.06
9397.84
9034.76
8615.82
8141.03
7610.37
7023.86
6381.48
5683.25
4929.16
4119.21
1453.63
1390.14
1328.71
1269.22
)


20
(
9946.01
9919.2
9838.76
9704.71
9517.04
9275.75
8980.84
8632.3
8230.15
7774.38
7264.98
6701.96
6085.33
5415.07
4691.19
3913.69
1354.91
1293.96
1234.99
1177.88
)


20
(
9350.7
9325.43
9249.63
9123.28
8946.4
8718.99
8441.03
8112.54
7733.52
7303.95
6823.85
6293.21
5712.04
5080.32
4398.07
3665.29
1253.65
1196.2
1140.63
1086.81
)


20
(
8626.37
8603.04
8533.06
8416.42
8253.12
8043.17
7786.56
7483.29
7133.37
6736.79
6293.55
5803.66
5267.11
4683.91
4054.05
3377.53
1151.07
1098.04
1046.73
997.04
)


20
(
7783.36
7762.34
7699.28
7594.18
7447.04
7257.86
7026.65
6753.39
6438.09
6080.75
5681.37
5239.95
4756.5
4231
3663.46
3053.88
1047.73
999.945
953.714
908.941
)


20
(
6832.76
6814.38
6759.24
6667.34
6538.68
6373.26
6171.07
5932.13
5656.43
5343.96
4994.74
4608.75
4186
3726.49
3230.22
2697.19
942.972
901.184
860.758
821.608
)


20
(
5785.05
5769.6
5723.24
5645.99
5537.84
5398.78
5228.82
5027.96
4796.2
4533.54
4239.98
3915.51
3560.14
3173.88
2756.71
2308.63
834.012
798.885
764.902
731.992
)


20
(
4648.87
4636.59
4599.76
4538.37
4452.43
4341.93
4206.88
4047.27
3863.11
3654.39
3421.11
3163.28
2880.9
2573.96
2242.46
1886.41
714.636
686.723
659.719
633.568
)


20
(
3429.35
3420.44
3393.71
3349.16
3286.78
3206.59
3108.57
2992.73
2859.08
2707.6
2538.29
2351.17
2146.23
1923.46
1682.88
1424.47
574.043
553.785
534.187
515.207
)


20
(
2131.36
2125.95
2109.74
2082.73
2044.91
1996.28
1936.85
1866.61
1785.56
1693.71
1591.05
1477.59
1353.32
1218.24
1072.36
915.666
399.996
387.713
375.829
364.32
)


20
(