/*--------------------------------*- C++ -*----------------------------------*\
| =========                 |                                                 |
| \\      /  F ield         | OpenFOAM: The Open Source CFD Toolbox           |
|  \\    /   O peration     | Version:  2212                                  |
|   \\  /    A nd           | Website:  www.openfoam.com                      |
|    \\/     M anipulation  |                                                 |
\*---------------------------------------------------------------------------*/
FoamFile
{
    version     2.0;
    format      ascii;
    arch        "LSB;label=32;scalar=64";
    class       volScalarField;
    location    "30/fluidRegion";
    object      alphat;
}
// * * * * * * * * * * * * * * * * * * * * * * * * * * * * * * * * * * * * * //

dimensions      [1 -1 -1 0 0 0 0];

internalField   nonuniform List<scalar> 
350
(
0.00258538
0.00258538
0.00258538
0.00258538
0.00258538
0.00258538
0.00258539
0.0025854
0.00258541
0.00258543
0.00258546
0.0025855
0.00258555
0.00258564
0.00258577
0.00258596
0.00258626
0.00258672
0.00258743
0.00258851
0.00259017
0.0025927
0.00259656
0.00260247
0.00261149
0.00258538
0.00258538
0.00258538
0.00258538
0.00258538
0.00258538
0.00258539
0.0025854
0.00258541
0.00258543
0.00258546
0.0025855
0.00258555
0.00258564
0.00258577
0.00258596
0.00258626
0.00258672
0.00258743
0.00258851
0.00259017
0.0025927
0.00259656
0.00260247
0.00261149
0.000893634
0.000881777
0.000870214
0.000858513
0.000846566
0.000834268
0.000821514
0.000808209
0.000794268
0.000779631
0.000764268
0.000748186
0.000731428
0.00071406
0.000696158
0.000677817
0.000659226
0.00064086
0.000623935
0.000611322
0.000609413
0.000631409
0.000699424
0.00083013
0.000997296
0.000885918
0.000874071
0.000862538
0.000850875
0.000838974
0.00082673
0.000814038
0.000800799
0.00078693
0.00077237
0.000757091
0.000741106
0.000724464
0.000707244
0.000689535
0.000671439
0.000653141
0.000635107
0.000618528
0.000606253
0.000604659
0.000626991
0.000695583
0.00082753
0.000996591
0.000894867
0.000882999
0.000871426
0.000859713
0.000847755
0.000835443
0.000822675
0.000809355
0.000795397
0.000780743
0.000765362
0.000749259
0.000732477
0.000715079
0.000697139
0.000678754
0.000660108
0.000641683
0.000624694
0.000612017
0.000610046
0.000631979
0.00069991
0.000830459
0.000997412
0.00088769
0.000875845
0.000864308
0.000852638
0.00084073
0.000828475
0.00081577
0.000802518
0.000788633
0.000774055
0.000758757
0.000742749
0.00072608
0.000708825
0.000691071
0.000672919
0.000654553
0.000636441
0.000619782
0.000607429
0.000605762
0.000628017
0.000696477
0.000828137
0.000996758
0.00088769
0.000875845
0.000864308
0.000852638
0.00084073
0.000828475
0.00081577
0.000802518
0.000788633
0.000774055
0.000758757
0.000742749
0.00072608
0.000708825
0.000691071
0.000672919
0.000654553
0.000636441
0.000619782
0.000607429
0.000605762
0.000628017
0.000696477
0.000828137
0.000996757
0.000894866
0.000882998
0.000871426
0.000859713
0.000847754
0.000835443
0.000822675
0.000809354
0.000795397
0.000780743
0.000765361
0.000749259
0.000732476
0.000715078
0.000697138
0.000678753
0.000660107
0.000641682
0.000624693
0.000612016
0.000610044
0.000631978
0.000699909
0.00083046
0.000997416
0.000885918
0.000874071
0.000862538
0.000850875
0.000838974
0.00082673
0.000814038
0.000800799
0.00078693
0.00077237
0.000757091
0.000741106
0.000724464
0.000707244
0.000689535
0.000671439
0.000653141
0.000635107
0.000618528
0.000606253
0.000604659
0.000626991
0.000695583
0.000827529
0.00099659
0.000893634
0.000881778
0.000870214
0.000858513
0.000846566
0.000834268
0.000821515
0.000808209
0.000794268
0.000779631
0.000764268
0.000748186
0.000731428
0.00071406
0.000696158
0.000677817
0.000659225
0.00064086
0.000623935
0.000611321
0.000609412
0.000631408
0.000699425
0.000830133
0.000997303
0.00088769
0.000875845
0.000864308
0.000852638
0.00084073
0.000828475
0.00081577
0.000802518
0.000788633
0.000774055
0.000758757
0.000742749
0.00072608
0.000708825
0.000691071
0.000672918
0.000654552
0.000636441
0.000619782
0.000607429
0.000605762
0.000628017
0.000696477
0.000828138
0.00099676
0.000894866
0.000882999
0.000871426
0.000859714
0.000847755
0.000835443
0.000822676
0.000809355
0.000795398
0.000780743
0.000765362
0.000749259
0.000732477
0.000715079
0.000697139
0.000678754
0.000660108
0.000641683
0.000624694
0.000612017
0.000610045
0.000631977
0.000699906
0.00083045
0.000997396
0.000894866
0.000882998
0.000871426
0.000859713
0.000847754
0.000835443
0.000822675
0.000809354
0.000795397
0.000780743
0.000765361
0.000749259
0.000732476
0.000715078
0.000697138
0.000678753
0.000660107
0.000641681
0.000624692
0.000612015
0.000610044
0.000631977
0.000699908
0.000830458
0.000997411
0.00088769
0.000875845
0.000864308
0.000852639
0.00084073
0.000828475
0.000815771
0.000802518
0.000788633
0.000774055
0.000758757
0.000742749
0.00072608
0.000708825
0.000691071
0.000672919
0.000654552
0.000636441
0.000619782
0.000607429
0.000605762
0.000628017
0.000696479
0.000828144
0.000996769
)
;

boundaryField
{
    outletCentralUnloaded
    {
        type            zeroGradient;
    }
    inletCentralUnloaded
    {
        type            zeroGradient;
    }
    outletFuelElement
    {
        type            zeroGradient;
    }
    inletFuelElement
    {
        type            zeroGradient;
    }
    defaultFaces
    {
        type            zeroGradient;
    }
    baffle_master
    {
        type            calculated;
        value           nonuniform List<scalar> 
150
(
0.00258538
0.00258538
0.00258538
0.00258538
0.00258538
0.00258538
0.00258538
0.00258538
0.00258538
0.00258538
0.00258538
0.00258538
0.00258538
0.00258538
0.00258538
0.00258538
0.00258538
0.00258538
0.00258539
0.00258539
0.00258539
0.0025854
0.0025854
0.0025854
0.00258541
0.00258541
0.00258541
0.00258543
0.00258543
0.00258543
0.00258546
0.00258546
0.00258546
0.0025855
0.0025855
0.0025855
0.00258555
0.00258555
0.00258555
0.00258564
0.00258564
0.00258564
0.00258577
0.00258577
0.00258577
0.00258596
0.00258596
0.00258596
0.00258626
0.00258626
0.00258626
0.00258672
0.00258672
0.00258672
0.00258743
0.00258743
0.00258743
0.00258851
0.00258851
0.00258851
0.00259017
0.00259017
0.00259017
0.0025927
0.0025927
0.0025927
0.00259656
0.00259656
0.00259656
0.00260247
0.00260247
0.00260247
0.00261149
0.00261149
0.00261149
0.00258538
0.00258538
0.00258538
0.00258538
0.00258538
0.00258538
0.00258538
0.00258538
0.00258538
0.00258538
0.00258538
0.00258538
0.00258538
0.00258538
0.00258538
0.00258538
0.00258538
0.00258538
0.00258539
0.00258539
0.00258539
0.0025854
0.0025854
0.0025854
0.00258541
0.00258541
0.00258541
0.00258543
0.00258543
0.00258543
0.00258546
0.00258546
0.00258546
0.0025855
0.0025855
0.0025855
0.00258555
0.00258555
0.00258555
0.00258564
0.00258564
0.00258564
0.00258577
0.00258577
0.00258577
0.00258596
0.00258596
0.00258596
0.00258626
0.00258626
0.00258626
0.00258672
0.00258672
0.00258672
0.00258743
0.00258743
0.00258743
0.00258851
0.00258851
0.00258851
0.00259017
0.00259017
0.00259017
0.0025927
0.0025927
0.0025927
0.00259656
0.00259656
0.00259656
0.00260247
0.00260247
0.00260247
0.00261149
0.00261149
0.00261149
)
;
    }
    baffle_slave
    {
        type            calculated;
        value           nonuniform List<scalar> 
150
(
0.000885918
0.00088769
0.00088769
0.000874071
0.000875845
0.000875845
0.000862538
0.000864308
0.000864308
0.000850875
0.000852638
0.000852639
0.000838974
0.00084073
0.00084073
0.00082673
0.000828475
0.000828475
0.000814038
0.00081577
0.000815771
0.000800799
0.000802518
0.000802518
0.00078693
0.000788633
0.000788633
0.00077237
0.000774055
0.000774055
0.000757091
0.000758757
0.000758757
0.000741106
0.000742749
0.000742749
0.000724464
0.00072608
0.00072608
0.000707244
0.000708825
0.000708825
0.000689535
0.000691071
0.000691071
0.000671439
0.000672919
0.000672919
0.000653141
0.000654553
0.000654552
0.000635107
0.000636441
0.000636441
0.000618528
0.000619782
0.000619782
0.000606253
0.000607429
0.000607429
0.000604659
0.000605762
0.000605762
0.000626991
0.000628017
0.000628017
0.000695583
0.000696477
0.000696479
0.00082753
0.000828137
0.000828144
0.000996591
0.000996758
0.000996769
0.00088769
0.000885918
0.00088769
0.000875845
0.000874071
0.000875845
0.000864308
0.000862538
0.000864308
0.000852638
0.000850875
0.000852638
0.00084073
0.000838974
0.00084073
0.000828475
0.00082673
0.000828475
0.00081577
0.000814038
0.00081577
0.000802518
0.000800799
0.000802518
0.000788633
0.00078693
0.000788633
0.000774055
0.00077237
0.000774055
0.000758757
0.000757091
0.000758757
0.000742749
0.000741106
0.000742749
0.00072608
0.000724464
0.00072608
0.000708825
0.000707244
0.000708825
0.000691071
0.000689535
0.000691071
0.000672919
0.000671439
0.000672918
0.000654553
0.000653141
0.000654552
0.000636441
0.000635107
0.000636441
0.000619782
0.000618528
0.000619782
0.000607429
0.000606253
0.000607429
0.000605762
0.000604659
0.000605762
0.000628017
0.000626991
0.000628017
0.000696477
0.000695583
0.000696477
0.000828137
0.000827529
0.000828138
0.000996757
0.00099659
0.00099676
)
;
    }
}


// ************************************************************************* //
