/*--------------------------------*- C++ -*----------------------------------*\
| =========                 |                                                 |
| \\      /  F ield         | OpenFOAM: The Open Source CFD Toolbox           |
|  \\    /   O peration     | Version:  2212                                  |
|   \\  /    A nd           | Website:  www.openfoam.com                      |
|    \\/     M anipulation  |                                                 |
\*---------------------------------------------------------------------------*/
FoamFile
{
    version     2.0;
    format      ascii;
    arch        "LSB;label=32;scalar=64";
    class       volScalarField;
    location    "30/fluidRegion";
    object      nut;
}
// * * * * * * * * * * * * * * * * * * * * * * * * * * * * * * * * * * * * * //

dimensions      [0 2 -1 0 0 0 0];

internalField   nonuniform List<scalar> 
350
(
0.00053755
0.000537505
0.00053746
0.000537414
0.000537369
0.000537324
0.000537279
0.000537235
0.000537191
0.000537148
0.000537106
0.000537065
0.000537026
0.00053699
0.000536958
0.000536932
0.000536915
0.000536914
0.000536935
0.000536991
0.000537099
0.000537288
0.000537599
0.000538098
0.000539522
0.00053755
0.000537505
0.00053746
0.000537414
0.000537369
0.000537324
0.000537279
0.000537235
0.000537191
0.000537148
0.000537106
0.000537065
0.000537026
0.00053699
0.000536958
0.000536932
0.000536915
0.000536914
0.000536935
0.000536991
0.000537099
0.000537288
0.000537599
0.000538098
0.000539522
0.0101215
0.00991988
0.00966785
0.00935953
0.00899978
0.00859372
0.00814665
0.00766405
0.00715154
0.006615
0.00606061
0.00549496
0.0049252
0.00435906
0.00380475
0.00327063
0.00276473
0.00229429
0.00186545
0.00148341
0.00115276
0.000877942
0.000663129
0.000510733
0.000416423
0.0101859
0.00998342
0.00973059
0.00942096
0.00905948
0.0086513
0.00820174
0.00771629
0.00720063
0.00666065
0.00610253
0.00553291
0.00495899
0.00438855
0.0038299
0.00329151
0.00278154
0.00230733
0.00187513
0.00149017
0.00115711
0.00088041
0.000664274
0.000511101
0.000416488
0.010111
0.00990943
0.00965759
0.00934952
0.00899008
0.0085844
0.00813776
0.00765564
0.00714367
0.0066077
0.00605392
0.00548892
0.00491984
0.00435439
0.00380077
0.00326732
0.00276206
0.0022922
0.00186388
0.00148228
0.001152
0.000877466
0.000662855
0.000510588
0.000416376
0.0101717
0.00996936
0.00971667
0.00940729
0.00904617
0.00863843
0.0081894
0.00770457
0.0071896
0.00665037
0.00609307
0.00552433
0.00495133
0.00438186
0.00382418
0.00328676
0.00277771
0.00230436
0.00187292
0.00148863
0.00115612
0.000879854
0.000664022
0.000511027
0.000416479
0.0101717
0.00996936
0.00971667
0.00940729
0.00904617
0.00863843
0.0081894
0.00770457
0.0071896
0.00665037
0.00609307
0.00552433
0.00495133
0.00438186
0.00382418
0.00328676
0.00277771
0.00230436
0.00187292
0.00148863
0.00115612
0.000879854
0.000664022
0.000511027
0.000416479
0.010111
0.00990944
0.0096576
0.00934952
0.00899009
0.0085844
0.00813777
0.00765564
0.00714367
0.00660771
0.00605393
0.00548893
0.00491984
0.00435439
0.00380077
0.00326732
0.00276206
0.0022922
0.00186388
0.00148228
0.001152
0.000877465
0.000662854
0.000510588
0.000416375
0.0101859
0.00998342
0.00973059
0.00942096
0.00905948
0.0086513
0.00820174
0.00771629
0.00720063
0.00666065
0.00610253
0.00553291
0.00495899
0.00438855
0.0038299
0.00329151
0.00278154
0.00230733
0.00187513
0.00149017
0.00115711
0.00088041
0.000664274
0.000511101
0.000416488
0.0101215
0.00991988
0.00966785
0.00935953
0.00899978
0.00859372
0.00814665
0.00766405
0.00715154
0.006615
0.00606061
0.00549496
0.0049252
0.00435906
0.00380475
0.00327063
0.00276473
0.00229429
0.00186545
0.00148341
0.00115276
0.000877942
0.000663129
0.000510733
0.000416424
0.0101717
0.00996936
0.00971667
0.00940729
0.00904617
0.00863843
0.0081894
0.00770457
0.0071896
0.00665037
0.00609307
0.00552433
0.00495133
0.00438186
0.00382418
0.00328676
0.00277771
0.00230436
0.00187292
0.00148863
0.00115612
0.000879854
0.000664022
0.000511027
0.00041648
0.010111
0.00990943
0.00965759
0.00934952
0.00899008
0.0085844
0.00813776
0.00765564
0.00714367
0.0066077
0.00605393
0.00548892
0.00491984
0.00435439
0.00380077
0.00326732
0.00276206
0.0022922
0.00186388
0.00148228
0.001152
0.000877466
0.000662854
0.000510587
0.000416374
0.010111
0.00990944
0.0096576
0.00934952
0.00899009
0.0085844
0.00813777
0.00765564
0.00714367
0.00660771
0.00605393
0.00548893
0.00491984
0.00435439
0.00380077
0.00326732
0.00276206
0.0022922
0.00186388
0.00148228
0.001152
0.000877465
0.000662854
0.000510587
0.000416375
0.0101717
0.00996936
0.00971667
0.00940729
0.00904617
0.00863843
0.0081894
0.00770457
0.0071896
0.00665037
0.00609307
0.00552433
0.00495133
0.00438186
0.00382418
0.00328676
0.00277771
0.00230436
0.00187292
0.00148863
0.00115612
0.000879854
0.000664023
0.000511028
0.00041648
)
;

boundaryField
{
    outletCentralUnloaded
    {
        type            zeroGradient;
    }
    inletCentralUnloaded
    {
        type            zeroGradient;
    }
    outletFuelElement
    {
        type            zeroGradient;
    }
    inletFuelElement
    {
        type            zeroGradient;
    }
    defaultFaces
    {
        type            zeroGradient;
    }
    baffle_master
    {
        type            calculated;
        value           nonuniform List<scalar> 
150
(
0.00053755
0.00053755
0.00053755
0.000537505
0.000537505
0.000537505
0.00053746
0.00053746
0.00053746
0.000537414
0.000537414
0.000537414
0.000537369
0.000537369
0.000537369
0.000537324
0.000537324
0.000537324
0.000537279
0.000537279
0.000537279
0.000537235
0.000537235
0.000537235
0.000537191
0.000537191
0.000537191
0.000537148
0.000537148
0.000537148
0.000537106
0.000537106
0.000537106
0.000537065
0.000537065
0.000537065
0.000537026
0.000537026
0.000537026
0.00053699
0.00053699
0.00053699
0.000536958
0.000536958
0.000536958
0.000536932
0.000536932
0.000536932
0.000536915
0.000536915
0.000536915
0.000536914
0.000536914
0.000536914
0.000536935
0.000536935
0.000536935
0.000536991
0.000536991
0.000536991
0.000537099
0.000537099
0.000537099
0.000537288
0.000537288
0.000537288
0.000537599
0.000537599
0.000537599
0.000538098
0.000538098
0.000538098
0.000539522
0.000539522
0.000539522
0.00053755
0.00053755
0.00053755
0.000537505
0.000537505
0.000537505
0.00053746
0.00053746
0.00053746
0.000537414
0.000537414
0.000537414
0.000537369
0.000537369
0.000537369
0.000537324
0.000537324
0.000537324
0.000537279
0.000537279
0.000537279
0.000537235
0.000537235
0.000537235
0.000537191
0.000537191
0.000537191
0.000537148
0.000537148
0.000537148
0.000537106
0.000537106
0.000537106
0.000537065
0.000537065
0.000537065
0.000537026
0.000537026
0.000537026
0.00053699
0.00053699
0.00053699
0.000536958
0.000536958
0.000536958
0.000536932
0.000536932
0.000536932
0.000536915
0.000536915
0.000536915
0.000536914
0.000536914
0.000536914
0.000536935
0.000536935
0.000536935
0.000536991
0.000536991
0.000536991
0.000537099
0.000537099
0.000537099
0.000537288
0.000537288
0.000537288
0.000537599
0.000537599
0.000537599
0.000538098
0.000538098
0.000538098
0.000539522
0.000539522
0.000539522
)
;
    }
    baffle_slave
    {
        type            calculated;
        value           nonuniform List<scalar> 
150
(
0.0101859
0.0101717
0.0101717
0.00998342
0.00996936
0.00996936
0.00973059
0.00971667
0.00971667
0.00942096
0.00940729
0.00940729
0.00905948
0.00904617
0.00904617
0.0086513
0.00863843
0.00863843
0.00820174
0.0081894
0.0081894
0.00771629
0.00770457
0.00770457
0.00720063
0.0071896
0.0071896
0.00666065
0.00665037
0.00665037
0.00610253
0.00609307
0.00609307
0.00553291
0.00552433
0.00552433
0.00495899
0.00495133
0.00495133
0.00438855
0.00438186
0.00438186
0.0038299
0.00382418
0.00382418
0.00329151
0.00328676
0.00328676
0.00278154
0.00277771
0.00277771
0.00230733
0.00230436
0.00230436
0.00187513
0.00187292
0.00187292
0.00149017
0.00148863
0.00148863
0.00115711
0.00115612
0.00115612
0.00088041
0.000879854
0.000879854
0.000664274
0.000664022
0.000664023
0.000511101
0.000511027
0.000511028
0.000416488
0.000416479
0.00041648
0.0101717
0.0101859
0.0101717
0.00996936
0.00998342
0.00996936
0.00971667
0.00973059
0.00971667
0.00940729
0.00942096
0.00940729
0.00904617
0.00905948
0.00904617
0.00863843
0.0086513
0.00863843
0.0081894
0.00820174
0.0081894
0.00770457
0.00771629
0.00770457
0.0071896
0.00720063
0.0071896
0.00665037
0.00666065
0.00665037
0.00609307
0.00610253
0.00609307
0.00552433
0.00553291
0.00552433
0.00495133
0.00495899
0.00495133
0.00438186
0.00438855
0.00438186
0.00382418
0.0038299
0.00382418
0.00328676
0.00329151
0.00328676
0.00277771
0.00278154
0.00277771
0.00230436
0.00230733
0.00230436
0.00187292
0.00187513
0.00187292
0.00148863
0.00149017
0.00148863
0.00115612
0.00115711
0.00115612
0.000879854
0.00088041
0.000879854
0.000664022
0.000664274
0.000664022
0.000511027
0.000511101
0.000511027
0.000416479
0.000416488
0.00041648
)
;
    }
}


// ************************************************************************* //
