/*--------------------------------*- C++ -*----------------------------------*\
| =========                 |                                                 |
| \\      /  F ield         | OpenFOAM: The Open Source CFD Toolbox           |
|  \\    /   O peration     | Version:  2212                                  |
|   \\  /    A nd           | Website:  www.openfoam.com                      |
|    \\/     M anipulation  |                                                 |
\*---------------------------------------------------------------------------*/
FoamFile
{
    version     2.0;
    format      ascii;
    arch        "LSB;label=32;scalar=64";
    class       volScalarField;
    location    "30/fluidRegion";
    object      T.fuelAvForNeutronics;
}
// * * * * * * * * * * * * * * * * * * * * * * * * * * * * * * * * * * * * * //

dimensions      [0 0 0 1 0 0 0];

internalField   nonuniform List<scalar> 
350
(
0
0
0
0
0
0
0
0
0
0
0
0
0
0
0
0
0
0
0
0
0
0
0
0
0
0
0
0
0
0
0
0
0
0
0
0
0
0
0
0
0
0
0
0
0
0
0
0
0
0
2057.7
2832.06
3576.77
4280.52
4932.56
5522.92
6042.54
6483.42
6838.8
7103.2
7272.56
7344.32
7317.42
7192.4
6971.31
6657.69
6256.35
5773.18
5214.67
4587.45
3897.25
3147.98
2340.81
1477.29
570.944
2086.81
2870.24
3623.62
4335.49
4994.99
5592.03
6117.44
6563.15
6922.3
7189.37
7360.26
7432.36
7404.62
7277.59
7053.34
6735.47
6328.9
5839.6
5274.19
4639.41
3941.08
3183.14
2366.7
1493.17
576.278
2052.97
2825.9
3569.25
4271.72
4922.6
5511.91
6030.62
6470.75
6825.54
7089.52
7258.65
7330.36
7303.61
7178.91
6958.33
6645.37
6244.87
5762.67
5205.25
4579.24
3890.33
3142.44
2336.75
1474.8
570.102
2080.24
2861.57
3612.94
4322.93
4980.71
5576.19
6100.26
6544.84
6903.12
7169.56
7340.09
7412.1
7384.56
7257.98
7034.45
6717.56
6312.19
5824.3
5260.48
4627.44
3930.98
3175.04
2360.73
1489.51
575.049
2080.24
2861.57
3612.94
4322.93
4980.7
5576.19
6100.26
6544.84
6903.12
7169.56
7340.09
7412.1
7384.55
7257.98
7034.45
6717.56
6312.19
5824.3
5260.48
4627.44
3930.98
3175.04
2360.73
1489.51
575.049
2052.97
2825.9
3569.25
4271.72
4922.6
5511.91
6030.62
6470.75
6825.54
7089.52
7258.65
7330.36
7303.61
7178.91
6958.33
6645.37
6244.87
5762.67
5205.26
4579.24
3890.33
3142.44
2336.75
1474.8
570.102
2086.81
2870.24
3623.62
4335.49
4994.99
5592.03
6117.44
6563.15
6922.3
7189.37
7360.26
7432.36
7404.62
7277.59
7053.34
6735.47
6328.9
5839.6
5274.19
4639.41
3941.08
3183.15
2366.7
1493.17
576.278
2057.7
2832.05
3576.77
4280.52
4932.56
5522.92
6042.54
6483.42
6838.8
7103.2
7272.56
7344.32
7317.42
7192.4
6971.31
6657.69
6256.35
5773.18
5214.67
4587.45
3897.25
3147.98
2340.81
1477.29
570.944
2080.24
2861.57
3612.94
4322.93
4980.7
5576.19
6100.26
6544.84
6903.12
7169.56
7340.09
7412.1
7384.55
7257.98
7034.45
6717.56
6312.19
5824.3
5260.48
4627.44
3930.98
3175.04
2360.73
1489.51
575.049
2052.97
2825.9
3569.25
4271.72
4922.6
5511.91
6030.62
6470.75
6825.53
7089.52
7258.65
7330.36
7303.61
7178.91
6958.33
6645.37
6244.87
5762.67
5205.25
4579.24
3890.33
3142.44
2336.75
1474.8
570.102
2052.97
2825.9
3569.25
4271.72
4922.6
5511.91
6030.62
6470.75
6825.54
7089.52
7258.65
7330.36
7303.61
7178.91
6958.33
6645.37
6244.87
5762.67
5205.26
4579.24
3890.33
3142.44
2336.75
1474.8
570.102
2080.24
2861.57
3612.94
4322.93
4980.7
5576.19
6100.26
6544.84
6903.12
7169.56
7340.09
7412.1
7384.55
7257.98
7034.45
6717.56
6312.19
5824.3
5260.48
4627.44
3930.98
3175.04
2360.73
1489.51
575.049
)
;

boundaryField
{
    outletCentralUnloaded
    {
        type            zeroGradient;
    }
    inletCentralUnloaded
    {
        type            zeroGradient;
    }
    outletFuelElement
    {
        type            zeroGradient;
    }
    inletFuelElement
    {
        type            zeroGradient;
    }
    defaultFaces
    {
        type            zeroGradient;
    }
    baffle_master
    {
        type            zeroGradient;
    }
    baffle_slave
    {
        type            zeroGradient;
    }
}


// ************************************************************************* //
