/*--------------------------------*- C++ -*----------------------------------*\
| =========                 |                                                 |
| \\      /  F ield         | OpenFOAM: The Open Source CFD Toolbox           |
|  \\    /   O peration     | Version:  2212                                  |
|   \\  /    A nd           | Website:  www.openfoam.com                      |
|    \\/     M anipulation  |                                                 |
\*---------------------------------------------------------------------------*/
FoamFile
{
    version     2.0;
    format      ascii;
    arch        "LSB;label=32;scalar=64";
    class       volScalarField;
    location    "30/fluidRegion";
    object      Tcav.nuclearFuelPin;
}
// * * * * * * * * * * * * * * * * * * * * * * * * * * * * * * * * * * * * * //

dimensions      [0 0 0 1 0 0 0];

internalField   nonuniform List<scalar> 
350
(
0
0
0
0
0
0
0
0
0
0
0
0
0
0
0
0
0
0
0
0
0
0
0
0
0
0
0
0
0
0
0
0
0
0
0
0
0
0
0
0
0
0
0
0
0
0
0
0
0
0
1794.63
1834.44
1861.37
1875.43
1876.74
1865.57
1842.35
1807.63
1762.12
1706.65
1642.19
1569.83
1490.78
1406.37
1318.02
1227.16
1135.13
1042.96
950.981
858.331
762.11
656.206
530.478
373.971
188.687
1821.85
1862.31
1889.67
1903.94
1905.23
1893.82
1870.14
1834.76
1788.39
1731.88
1666.22
1592.5
1511.96
1425.95
1335.9
1243.28
1149.5
1055.6
962.006
867.872
770.295
663.081
535.882
377.468
189.87
1790.2
1829.92
1856.8
1870.85
1872.18
1861.07
1837.94
1803.34
1757.98
1702.69
1638.43
1566.29
1487.49
1403.34
1315.25
1224.67
1132.93
1041.02
949.298
856.881
760.873
655.178
529.681
373.46
188.507
1815.73
1856.03
1883.28
1897.48
1898.76
1887.39
1863.81
1828.57
1782.38
1726.1
1660.71
1587.29
1507.09
1421.44
1331.78
1239.56
1146.18
1052.68
959.458
865.666
768.402
661.49
534.63
376.657
189.596
1815.73
1856.03
1883.28
1897.48
1898.76
1887.39
1863.81
1828.57
1782.38
1726.1
1660.71
1587.29
1507.09
1421.44
1331.78
1239.56
1146.18
1052.68
959.458
865.666
768.402
661.49
534.63
376.657
189.596
1790.2
1829.92
1856.81
1870.85
1872.18
1861.07
1837.94
1803.34
1757.98
1702.69
1638.43
1566.29
1487.49
1403.34
1315.26
1224.67
1132.93
1041.02
949.299
856.882
760.874
655.178
529.682
373.46
188.507
1821.85
1862.31
1889.67
1903.94
1905.23
1893.82
1870.14
1834.76
1788.39
1731.88
1666.22
1592.5
1511.96
1425.95
1335.9
1243.28
1149.5
1055.6
962.006
867.872
770.295
663.081
535.883
377.468
189.87
1794.63
1834.44
1861.37
1875.43
1876.74
1865.57
1842.35
1807.63
1762.12
1706.65
1642.19
1569.83
1490.78
1406.37
1318.02
1227.16
1135.13
1042.96
950.981
858.331
762.11
656.206
530.479
373.971
188.687
1815.73
1856.03
1883.28
1897.48
1898.76
1887.39
1863.81
1828.57
1782.38
1726.1
1660.71
1587.29
1507.09
1421.44
1331.78
1239.56
1146.18
1052.68
959.458
865.666
768.402
661.49
534.63
376.657
189.596
1790.2
1829.92
1856.8
1870.85
1872.18
1861.07
1837.94
1803.34
1757.98
1702.69
1638.43
1566.29
1487.49
1403.34
1315.25
1224.67
1132.93
1041.02
949.298
856.881
760.873
655.178
529.682
373.46
188.507
1790.2
1829.92
1856.81
1870.85
1872.18
1861.07
1837.94
1803.34
1757.98
1702.69
1638.43
1566.29
1487.49
1403.34
1315.26
1224.67
1132.93
1041.02
949.299
856.882
760.874
655.178
529.682
373.46
188.507
1815.73
1856.03
1883.28
1897.48
1898.76
1887.39
1863.81
1828.57
1782.38
1726.1
1660.71
1587.29
1507.09
1421.44
1331.78
1239.56
1146.18
1052.68
959.458
865.666
768.402
661.49
534.63
376.657
189.596
)
;

boundaryField
{
    outletCentralUnloaded
    {
        type            zeroGradient;
    }
    inletCentralUnloaded
    {
        type            zeroGradient;
    }
    outletFuelElement
    {
        type            zeroGradient;
    }
    inletFuelElement
    {
        type            zeroGradient;
    }
    defaultFaces
    {
        type            zeroGradient;
    }
    baffle_master
    {
        type            zeroGradient;
    }
    baffle_slave
    {
        type            zeroGradient;
    }
}


// ************************************************************************* //
