/*--------------------------------*- C++ -*----------------------------------*\
| =========                 |                                                 |
| \\      /  F ield         | OpenFOAM: The Open Source CFD Toolbox           |
|  \\    /   O peration     | Version:  2212                                  |
|   \\  /    A nd           | Website:  www.openfoam.com                      |
|    \\/     M anipulation  |                                                 |
\*---------------------------------------------------------------------------*/
FoamFile
{
    version     2.0;
    format      ascii;
    arch        "LSB;label=32;scalar=64";
    class       volScalarField;
    location    "30/fluidRegion";
    object      Tci.nuclearFuelPin;
}
// * * * * * * * * * * * * * * * * * * * * * * * * * * * * * * * * * * * * * //

dimensions      [0 0 0 1 0 0 0];

internalField   nonuniform List<scalar> 
350
(
0
0
0
0
0
0
0
0
0
0
0
0
0
0
0
0
0
0
0
0
0
0
0
0
0
0
0
0
0
0
0
0
0
0
0
0
0
0
0
0
0
0
0
0
0
0
0
0
0
0
1798.94
1850.67
1889.25
1914.51
1926.38
1924.98
1910.56
1883.56
1844.55
1794.27
1733.6
1663.58
1585.38
1500.3
1409.79
1315.31
1218.26
1119.74
1020.19
918.86
812.995
696.646
559.855
391.867
194.874
1826.2
1878.72
1917.86
1943.45
1955.42
1953.89
1939.12
1911.54
1871.75
1820.5
1758.67
1687.31
1607.63
1520.95
1428.71
1332.44
1233.57
1133.26
1032
929.09
821.76
703.981
565.591
395.566
196.125
1794.51
1846.13
1884.64
1909.86
1921.73
1920.37
1906.03
1879.13
1840.26
1790.15
1729.68
1659.87
1581.91
1497.1
1406.86
1312.67
1215.91
1117.67
1018.38
917.3
811.667
695.545
559.005
391.324
194.683
1820.07
1872.39
1911.39
1936.89
1948.82
1947.31
1932.61
1905.15
1865.53
1814.49
1752.92
1681.86
1602.51
1516.19
1424.35
1328.49
1230.04
1130.14
1029.27
926.725
819.733
702.284
564.263
394.708
195.836
1820.07
1872.39
1911.39
1936.89
1948.82
1947.31
1932.61
1905.15
1865.53
1814.49
1752.92
1681.86
1602.51
1516.19
1424.35
1328.49
1230.04
1130.14
1029.27
926.725
819.733
702.284
564.263
394.708
195.836
1794.51
1846.13
1884.64
1909.86
1921.74
1920.37
1906.03
1879.13
1840.26
1790.15
1729.68
1659.87
1581.91
1497.1
1406.86
1312.67
1215.91
1117.67
1018.38
917.301
811.667
695.546
559.005
391.324
194.684
1826.2
1878.72
1917.86
1943.45
1955.42
1953.89
1939.12
1911.54
1871.75
1820.5
1758.67
1687.31
1607.63
1520.95
1428.71
1332.44
1233.57
1133.26
1032
929.09
821.76
703.981
565.591
395.566
196.125
1798.94
1850.67
1889.25
1914.51
1926.38
1924.98
1910.56
1883.56
1844.55
1794.27
1733.6
1663.58
1585.38
1500.3
1409.79
1315.31
1218.26
1119.74
1020.19
918.86
812.995
696.646
559.855
391.867
194.874
1820.07
1872.39
1911.39
1936.89
1948.82
1947.31
1932.61
1905.15
1865.53
1814.49
1752.92
1681.86
1602.51
1516.19
1424.35
1328.49
1230.04
1130.14
1029.27
926.725
819.733
702.284
564.263
394.708
195.836
1794.51
1846.13
1884.64
1909.86
1921.73
1920.37
1906.03
1879.13
1840.26
1790.15
1729.68
1659.87
1581.91
1497.1
1406.86
1312.67
1215.91
1117.67
1018.38
917.3
811.667
695.545
559.005
391.324
194.683
1794.51
1846.13
1884.64
1909.86
1921.74
1920.37
1906.03
1879.13
1840.26
1790.15
1729.68
1659.87
1581.91
1497.1
1406.86
1312.67
1215.91
1117.67
1018.38
917.301
811.667
695.546
559.005
391.324
194.683
1820.07
1872.39
1911.39
1936.89
1948.82
1947.31
1932.61
1905.15
1865.53
1814.49
1752.92
1681.86
1602.51
1516.19
1424.35
1328.49
1230.04
1130.14
1029.27
926.725
819.733
702.284
564.263
394.708
195.836
)
;

boundaryField
{
    outletCentralUnloaded
    {
        type            zeroGradient;
    }
    inletCentralUnloaded
    {
        type            zeroGradient;
    }
    outletFuelElement
    {
        type            zeroGradient;
    }
    inletFuelElement
    {
        type            zeroGradient;
    }
    defaultFaces
    {
        type            zeroGradient;
    }
    baffle_master
    {
        type            zeroGradient;
    }
    baffle_slave
    {
        type            zeroGradient;
    }
}


// ************************************************************************* //
