/*--------------------------------*- C++ -*----------------------------------*\
| =========                 |                                                 |
| \\      /  F ield         | OpenFOAM: The Open Source CFD Toolbox           |
|  \\    /   O peration     | Version:  2212                                  |
|   \\  /    A nd           | Website:  www.openfoam.com                      |
|    \\/     M anipulation  |                                                 |
\*---------------------------------------------------------------------------*/
FoamFile
{
    version     2.0;
    format      ascii;
    arch        "LSB;label=32;scalar=64";
    class       volScalarField;
    location    "30/fluidRegion";
    object      Tfo.nuclearFuelPin;
}
// * * * * * * * * * * * * * * * * * * * * * * * * * * * * * * * * * * * * * //

dimensions      [0 0 0 1 0 0 0];

internalField   nonuniform List<scalar> 
350
(
0
0
0
0
0
0
0
0
0
0
0
0
0
0
0
0
0
0
0
0
0
0
0
0
0
0
0
0
0
0
0
0
0
0
0
0
0
0
0
0
0
0
0
0
0
0
0
0
0
0
1921.33
2306.25
2670.39
3008.45
3315.42
3586.78
3818.49
4007.1
4149.8
4244.46
4289.69
4284.86
4230.13
4126.46
3975.56
3779.85
3542.33
3266.29
2954.96
2611.01
2235.58
1827.24
1381.15
892.172
367.739
1949.5
2339.04
2707.48
3049.45
3359.92
3634.29
3868.48
4059
4203.01
4298.37
4343.68
4338.29
4282.38
4176.9
4023.61
3824.98
3584.06
3304.22
2988.79
2640.5
2260.53
1847.42
1396.19
901.497
370.875
1916.75
2300.95
2664.43
3001.88
3308.31
3579.21
3810.54
3998.86
4141.36
4235.92
4281.15
4276.42
4221.89
4118.51
3967.99
3772.75
3535.76
3260.32
2949.65
2606.38
2231.67
1824.09
1378.81
890.73
367.247
1943.16
2331.61
2699.05
3040.11
3349.77
3623.43
3857.03
4047.1
4190.8
4285.99
4331.27
4326
4270.36
4165.29
4012.54
3814.58
3574.44
3295.48
2981
2633.7
2254.78
1842.77
1392.72
899.344
370.152
1943.16
2331.61
2699.05
3040.11
3349.77
3623.43
3857.03
4047.1
4190.8
4285.99
4331.27
4326
4270.36
4165.29
4012.54
3814.58
3574.44
3295.48
2981
2633.7
2254.78
1842.77
1392.72
899.344
370.152
1916.75
2300.95
2664.43
3001.88
3308.32
3579.21
3810.54
3998.86
4141.36
4235.92
4281.15
4276.42
4221.89
4118.51
3967.99
3772.75
3535.76
3260.32
2949.65
2606.38
2231.67
1824.1
1378.82
890.73
367.247
1949.5
2339.04
2707.48
3049.45
3359.92
3634.29
3868.48
4059
4203.01
4298.37
4343.68
4338.29
4282.38
4176.9
4023.61
3824.98
3584.06
3304.22
2988.79
2640.5
2260.53
1847.42
1396.19
901.497
370.875
1921.33
2306.25
2670.39
3008.45
3315.42
3586.78
3818.49
4007.1
4149.8
4244.46
4289.69
4284.86
4230.13
4126.46
3975.56
3779.85
3542.33
3266.29
2954.96
2611.01
2235.58
1827.24
1381.15
892.172
367.739
1943.16
2331.61
2699.05
3040.11
3349.77
3623.43
3857.03
4047.1
4190.8
4285.99
4331.27
4326
4270.36
4165.29
4012.54
3814.58
3574.44
3295.48
2981
2633.7
2254.78
1842.77
1392.72
899.344
370.152
1916.75
2300.95
2664.43
3001.88
3308.31
3579.21
3810.54
3998.86
4141.36
4235.92
4281.15
4276.42
4221.89
4118.51
3967.99
3772.75
3535.76
3260.32
2949.65
2606.38
2231.67
1824.09
1378.81
890.73
367.247
1916.75
2300.95
2664.43
3001.88
3308.32
3579.21
3810.54
3998.86
4141.36
4235.92
4281.15
4276.42
4221.89
4118.51
3967.99
3772.75
3535.76
3260.32
2949.65
2606.38
2231.67
1824.1
1378.82
890.73
367.247
1943.16
2331.61
2699.05
3040.11
3349.77
3623.43
3857.03
4047.1
4190.8
4285.99
4331.27
4326
4270.36
4165.29
4012.54
3814.58
3574.44
3295.48
2981
2633.7
2254.78
1842.77
1392.72
899.344
370.152
)
;

boundaryField
{
    outletCentralUnloaded
    {
        type            zeroGradient;
    }
    inletCentralUnloaded
    {
        type            zeroGradient;
    }
    outletFuelElement
    {
        type            zeroGradient;
    }
    inletFuelElement
    {
        type            zeroGradient;
    }
    defaultFaces
    {
        type            zeroGradient;
    }
    baffle_master
    {
        type            zeroGradient;
    }
    baffle_slave
    {
        type            zeroGradient;
    }
}


// ************************************************************************* //
