/*--------------------------------*- C++ -*----------------------------------*\
| =========                 |                                                 |
| \\      /  F ield         | OpenFOAM: The Open Source CFD Toolbox           |
|  \\    /   O peration     | Version:  2212                                  |
|   \\  /    A nd           | Website:  www.openfoam.com                      |
|    \\/     M anipulation  |                                                 |
\*---------------------------------------------------------------------------*/
FoamFile
{
    version     2.0;
    format      ascii;
    arch        "LSB;label=32;scalar=64";
    class       scalarFieldField;
    location    "30/fluidRegion";
    object      Trad.nuclearFuelPin;
}
// * * * * * * * * * * * * * * * * * * * * * * * * * * * * * * * * * * * * * //


350
(
0()
0()
0()
0()
0()
0()
0()
0()
0()
0()
0()
0()
0()
0()
0()
0()
0()
0()
0()
0()
0()
0()
0()
0()
0()
0()
0()
0()
0()
0()
0()
0()
0()
0()
0()
0()
0()
0()
0()
0()
0()
0()
0()
0()
0()
0()
0()
0()
0()
0()

20
(
2187.83
2186.75
2183.49
2178.06
2170.4
2160.49
2148.27
2133.69
2116.66
2097.11
2074.95
2050.09
2022.4
1991.8
1958.14
1921.33
1798.94
1796.07
1793.29
1790.61
)


20
(
3353.4
3348.87
3335.28
3312.61
3280.81
3239.85
3189.65
3130.15
3061.24
2982.84
2894.84
2797.1
2689.52
2571.94
2444.23
2306.25
1850.67
1839.86
1829.41
1819.29
)


20
(
4480.48
4472.58
4448.89
4409.36
4353.97
4282.65
4195.33
4091.92
3972.31
3836.39
3684.03
3515.08
3329.41
3126.84
2907.23
2670.39
1889.25
1870.69
1852.73
1835.34
)


20
(
5551.71
5540.58
5507.17
5451.45
5373.38
5272.88
5149.88
5004.27
4835.93
4644.72
4430.51
4193.13
3932.42
3648.19
3340.26
3008.45
1914.51
1888.49
1863.32
1838.95
)


20
(
6550.57
6536.38
6493.8
6422.8
6323.31
6195.28
6038.6
5853.16
5638.82
5395.45
5122.87
4820.91
4489.38
4128.1
3736.85
3315.42
1926.38
1893.33
1861.36
1830.4
)


20
(
7461.6
7444.58
7393.52
7308.38
7189.1
7035.6
6847.78
6625.51
6368.64
6077.03
5750.48
5388.82
4991.83
4559.31
4091.03
3586.78
1924.98
1885.43
1847.17
1810.12
)


20
(
8270.68
8251.11
8192.4
8094.49
7957.34
7780.85
7564.91
7309.39
7014.13
6678.97
6303.71
5888.15
5432.08
4935.27
4397.48
3818.49
1910.56
1865.15
1821.22
1778.68
)


20
(
8965.29
8943.48
8878.05
8768.96
8616.13
8419.49
8178.9
7894.23
7565.32
7191.98
6774.03
6311.24
5803.4
5250.25
4651.57
4007.1
1883.56
1833.01
1784.11
1736.76
)


20
(
9534.64
9510.95
9439.86
9321.32
9155.27
8941.62
8680.24
8370.98
8013.69
7608.17
7154.21
6651.6
6100.1
5499.47
4849.45
4149.8
1844.55
1789.67
1736.58
1685.17
)


20
(
9969.91
9944.71
9869.09
9743.01
9566.4
9339.16
9061.17
8732.28
8352.32
7921.09
7438.38
6903.98
6317.64
5679.11
4988.13
4244.46
1794.27
1735.94
1679.51
1624.86
)


20
(
10264.4
10238
10159.1
10027.5
9843.16
9605.97
9315.81
8972.54
8575.98
8125.93
7622.19
7064.52
6452.7
5786.45
5065.54
4289.69
1733.6
1672.75
1613.87
1556.86
)


20
(
10413.4
10386.4
10305.5
10170.4
9981.28
9737.93
9440.25
9088.07
8681.24
8219.56
7702.82
7130.79
6503.23
5819.9
5080.53
4284.86
1663.58
1601.17
1540.79
1482.32
)


20
(
10414.9
10387.7
10305.9
10169.6
9978.7
9733.08
9432.61
9077.16
8666.56
8200.61
7679.11
7101.83
6468.54
5779
5032.95
4230.13
1585.38
1522.4
1461.48
1402.48
)


20
(
10268.9
10241.8
10160.6
10025.2
9835.56
9591.58
9293.13
8940.07
8532.24
8069.46
7551.51
6978.19
6349.27
5664.5
4923.65
4126.46
1500.3
1437.77
1377.27
1318.69
)


20
(
9977.67
9951.22
9871.86
9739.54
9554.2
9315.76
9024.09
8679.06
8280.51
7828.27
7322.14
6761.91
6147.37
5478.29
4754.43
3975.56
1409.79
1348.69
1289.59
1232.35
)


20
(
9545.98
9520.57
9444.31
9317.18
9139.11
8910.01
8629.78
8298.28
7915.38
7480.89
6994.65
6456.45
5866.08
5223.34
4528.01
3779.85
1315.31
1256.62
1199.85
1144.87
)


20
(
8980.47
8956.49
8884.57
8764.65
8596.69
8380.6
8116.28
7803.62
7442.47
7032.68
6574.09
6066.5
5509.73
4903.58
4247.85
3542.33
1218.26
1162.92
1109.38
1057.53
)


20
(
8289.58
8267.43
8200.99
8090.21
7935.04
7735.42
7491.24
7202.41
6868.79
6490.25
6066.63
5597.77
5083.48
4523.6
3917.93
3266.29
1119.74
1068.62
1019.17
971.285
)


20
(
7483.08
7463.12
7403.22
7303.35
7163.46
6983.5
6763.38
6503.01
6202.26
5861.03
5479.16
5056.51
4592.93
4088.26
3542.32
2954.96
1020.19
974.114
929.542
886.377
)


20
(
6571.62
6554.15
6501.75
6414.39
6292.03
6134.62
5942.07
5714.32
5451.25
5152.78
4818.76
4449.09
4043.62
3602.21
3124.72
2611.01
918.86
878.564
839.581
801.829
)


20
(
5565.52
5550.83
5506.77
5433.32
5330.43
5198.07
5036.18
4844.68
4623.49
4372.53
4091.7
3780.89
3439.99
3068.89
2667.46
2235.58
812.995
779.119
746.346
714.609
)


20
(
4474.1
4462.43
4427.4
4369
4287.21
4181.99
4053.29
3901.05
3725.23
3525.74
3302.51
3055.46
2784.5
2489.54
2170.48
1827.24
696.646
669.723
643.678
618.456
)


20
(
3304.66
3296.17
3270.71
3228.25
3168.79
3092.29
2998.73
2888.07
2760.27
2615.28
2453.04
2273.51
2076.61
1862.3
1630.5
1381.15
559.855
540.298
521.378
503.057
)


20
(
2065.51
2060.33
2044.77
2018.83
1982.51
1935.79
1878.66
1811.1
1733.09
1644.6
1545.61
1436.09
1316.02
1185.37
1044.09
892.172
391.867
379.953
368.427
357.266
)


20
(
776.325
774.504
769.041
759.938
747.195
730.815
710.8
687.154
659.879
628.98
594.46
556.326
514.581
469.231
420.282
367.739
194.874
190.755
186.77
182.911
)


20
(
2217.73
2216.64
2213.37
2207.91
2200.21
2190.25
2177.96
2163.29
2146.17
2126.5
2104.2
2079.17
2051.31
2020.49
1986.59
1949.5
1826.2
1823.3
1820.51
1817.8
)


20
(
3396.86
3392.29
3378.56
3355.66
3323.55
3282.18
3231.48
3171.37
3101.77
3022.58
2933.68
2834.95
2726.26
2607.48
2478.45
2339.04
1878.72
1867.79
1857.23
1847.01
)


20
(
4536.99
4529.01
4505.06
4465.12
4409.14
4337.06
4248.81
4144.3
4023.42
3886.04
3732.05
3561.29
3373.62
3168.87
2946.88
2707.48
1917.86
1899.09
1880.94
1863.37
)


20
(
5620.57
5609.31
5575.54
5519.22
5440.3
5338.71
5214.37
5067.17
4896.99
4703.7
4487.14
4247.17
3983.59
3696.24
3384.92
3049.45
1943.45
1917.14
1891.7
1867.06
)


20
(
6630.87
6616.52
6573.47
6501.69
6401.11
6271.67
6113.26
5925.78
5709.08
5463.02
5187.42
4882.12
4546.92
4181.63
3786.03
3359.92
1955.42
1922
1889.68
1858.38
)


20
(
7552.26
7535.06
7483.43
7397.35
7276.75
7121.54
6931.64
6706.9
6447.18
6152.32
5822.14
5456.45
5055.04
4617.69
4144.18
3634.29
1953.89
1913.9
1875.21
1837.75
)


20
(
8370.48
8350.69
8291.32
8192.33
8053.65
7875.19
7656.84
7398.46
7099.91
6761
6381.55
5961.34
5500.16
4997.79
4453.97
3868.48
1939.12
1893.2
1848.77
1805.76
)


20
(
9072.84
9050.79
8984.63
8874.32
8719.78
8520.93
8277.65
7989.79
7657.2
7279.68
6857.04
6389.06
5875.5
5316.14
4710.73
4059
1911.54
1860.42
1810.97
1763.09
)


20
(
9648.45
9624.49
9552.6
9432.73
9264.82
9048.77
8784.46
8471.73
8110.42
7700.34
7241.28
6733.01
6175.3
5567.91
4910.56
4203.01
1871.75
1816.25
1762.57
1710.58
)


20
(
10088.4
10062.9
9986.42
9858.92
9680.33
9450.53
9169.41
8836.82
8452.58
8016.49
7528.35
6987.93
6394.97
5749.23
5050.46
4298.37
1820.5
1761.5
1704.43
1649.17
)


20
(
10385.8
10359.2
10279.4
10146.3
9959.86
9720
9426.57
9079.43
8678.39
8223.27
7713.85
7149.89
6531.15
5857.37
5128.31
4343.68
1758.67
1697.12
1637.58
1579.92
)


20
(
10536.1
10508.8
10426.9
10290.4
10099.1
9853.02
9551.97
9195.83
8784.4
8317.51
7794.93
7216.43
6581.78
5890.71
5142.97
4338.29
1687.31
1624.19
1563.13
1504
)


20
(
10537.1
10509.6
10426.9
10289.1
10096
9847.6
9543.74
9184.27
8769.03
8297.81
7770.41
7186.6
6546.15
5848.8
5094.29
4282.38
1607.63
1543.94
1482.33
1422.66
)


20
(
10388.9
10361.5
10279.4
10142.4
9950.66
9703.92
9402.1
9045.05
8632.61
8164.58
7640.77
7060.96
6424.91
5732.38
4983.13
4176.9
1520.95
1457.7
1396.52
1337.27
)


20
(
10093.7
10067
9986.74
9852.92
9665.49
9424.35
9129.38
8780.44
8377.38
7920.02
7408.15
6841.58
6220.07
5543.4
4811.32
4023.61
1428.71
1366.92
1307.15
1249.26
)


20
(
9656.51
9630.8
9553.69
9425.11
9245.02
9013.33
8729.93
8394.68
8007.43
7568.02
7076.27
6531.96
5934.9
5284.87
4581.63
3824.98
1332.44
1273.08
1215.66
1160.06
)


20
(
9083.92
9059.67
8986.93
8865.66
8695.79
8477.25
8209.94
7893.73
7528.49
7114.05
6650.25
6136.9
5573.81
4960.78
4297.6
3584.06
1233.57
1177.6
1123.45
1071.01
)


20
(
8384.56
8362.17
8294.97
8182.93
8026
7824.12
7577.17
7285.06
6947.66
6564.82
6136.39
5662.2
5142.07
4575.83
3963.27
3304.22
1133.26
1081.56
1031.55
983.115
)


20
(
7568.36
7548.17
7487.59
7386.59
7245.12
7063.12
6840.5
6577.17
6273.01
5927.89
5541.69
5114.24
4645.39
4134.98
3582.84
2988.79
1032
985.403
940.323
896.668
)


20
(
6646.11
6628.45
6575.46
6487.11
6363.36
6204.15
6009.43
5779.09
5513.04
5211.17
4873.36
4499.48
4089.4
3642.97
3160.06
2640.5
929.09
888.335
848.908
810.727
)


20
(
5628.29
5613.44
5568.88
5494.59
5390.54
5256.67
5092.94
4899.27
4675.58
4421.77
4137.75
3823.41
3478.64
3103.31
2697.32
2260.53
821.76
787.498
754.352
722.254
)


20
(
4524.29
4512.48
4477.06
4418
4335.28
4228.87
4098.71
3944.76
3766.94
3565.19
3339.43
3089.58
2815.54
2517.24
2194.56
1847.42
703.981
676.752
650.411
624.903
)


20
(
3341.42
3332.84
3307.08
3264.15
3204.02
3126.66
3032.05
2920.14
2790.9
2644.27
2480.2
2298.64
2099.52
1882.78
1648.36
1396.19
565.591
545.813
526.679
508.15
)


20
(
2087.97
2082.73
2067
2040.77
2004.05
1956.81
1899.04
1830.72
1751.84
1662.36
1562.27
1451.52
1330.11
1197.99
1055.13
901.497
395.566
383.518
371.862
360.575
)


20
(
783.862
782.022
776.501
767.301
754.423
737.868
717.64
693.741
666.174
634.943
600.053
561.508
519.312
473.471
423.99
370.875
196.125
191.961
187.932
184.031
)


20
(
2182.98
2181.9
2178.65
2173.21
2165.56
2155.66
2143.45
2128.88
2111.87
2092.34
2070.2
2045.36
2017.71
1987.14
1953.52
1916.75
1794.51
1791.64
1788.87
1786.19
)


20
(
3346.41
3341.88
3328.32
3305.68
3273.93
3233.03
3182.92
3123.51
3054.71
2976.44
2888.58
2791
2683.59
2566.2
2438.71
2300.95
1846.13
1835.34
1824.9
1814.8
)


20
(
4471.42
4463.54
4439.88
4400.43
4345.13
4273.93
4186.76
4083.52
3964.12
3828.43
3676.32
3507.67
3322.31
3120.09
2900.86
2664.43
1884.64
1866.11
1848.18
1830.82
)


20
(
5540.71
5529.59
5496.24
5440.62
5362.68
5262.36
5139.57
4994.21
4826.16
4635.29
4421.45
4184.49
3924.23
3640.49
3333.11
3001.88
1909.86
1883.89
1858.76
1834.44
)


20
(
6537.76
6523.59
6481.09
6410.21
6310.9
6183.09
6026.69
5841.57
5627.61
5384.66
5112.56
4811.14
4480.2
4119.55
3728.99
3308.31
1921.73
1888.74
1856.83
1825.93
)


20
(
7447.15
7430.16
7379.19
7294.2
7175.13
7021.9
6834.41
6612.53
6356.13
6065.03
5739.06
5378.04
4981.76
4550
4082.56
3579.21
1920.37
1880.89
1842.7
1805.72
)


20
(
8254.79
8235.26
8176.65
8078.92
7942.01
7765.83
7550.27
7295.2
7000.47
6665.91
6291.32
5876.5
5421.24
4925.32
4388.5
3810.54
1906.03
1860.7
1816.84
1774.38
)


20
(
8948.18
8926.41
8861.1
8752.2
8599.65
8403.35
8163.19
7879.03
7550.7
7178.04
6760.83
6298.87
5791.94
5239.78
4642.17
3998.86
1879.13
1828.67
1779.86
1732.59
)


20
(
9516.55
9492.9
9421.93
9303.61
9137.86
8924.59
8663.67
8354.97
7998.32
7593.52
7140.38
6638.67
6088.16
5488.6
4839.76
4141.36
1840.26
1785.48
1732.49
1681.17
)


20
(
9951.09
9925.93
9850.45
9724.59
9548.3
9321.47
9043.98
8715.68
8336.39
7905.94
7424.1
6890.66
6305.37
5667.99
4978.26
4235.92
1790.15
1731.92
1675.59
1621.04
)


20
(
10245.1
10218.8
10140
10008.6
9824.62
9587.86
9298.23
8955.57
8559.72
8110.48
7607.65
7050.99
6440.26
5775.22
5055.6
4281.15
1729.68
1668.93
1610.16
1553.25
)


20
(
10394
10367
10286.2
10151.4
9962.58
9719.66
9422.51
9070.97
8664.88
8204.03
7688.22
7117.22
6490.79
5808.69
5070.65
4276.42
1659.87
1597.57
1537.3
1478.94
)


20
(
10395.5
10368.3
10286.7
10150.7
9960.09
9714.9
9414.98
9060.17
8650.31
8185.2
7664.64
7088.4
6456.26
5767.96
5023.25
4221.89
1581.91
1519.05
1458.24
1399.35
)


20
(
10249.8
10222.8
10141.7
10006.6
9817.3
9573.76
9275.85
8923.43
8516.33
8054.38
7537.37
6965.08
6337.29
5653.76
4914.25
4118.51
1497.1
1434.68
1374.29
1315.82
)


20
(
9959.25
9932.85
9853.63
9721.55
9536.55
9298.54
9007.4
8662.99
8265.16
7813.73
7308.52
6749.3
6135.87
5468
4745.45
3967.99
1406.86
1345.88
1286.88
1229.74
)


20
(
9528.45
9503.08
9426.96
9300.06
9122.31
8893.62
8613.9
8283
7900.79
7467.09
6981.72
6444.5
5855.2
5213.62
4519.55
3772.75
1312.67
1254.09
1197.41
1142.53
)


20
(
8964.06
8940.13
8868.33
8748.64
8580.98
8365.28
8101.44
7789.34
7428.84
7019.8
6562.03
6055.36
5499.6
4894.55
4240.01
3535.76
1215.91
1160.66
1107.22
1055.47
)


20
(
8274.52
8252.41
8186.08
8075.5
7920.62
7721.36
7477.62
7189.32
6856.3
6478.45
6055.59
5587.57
5074.22
4515.35
3910.78
3260.32
1117.67
1066.64
1017.28
969.479
)


20
(
7469.56
7449.64
7389.84
7290.15
7150.52
6970.89
6751.17
6491.26
6191.06
5850.44
5469.26
5047.38
4584.64
4080.88
3535.94
2949.65
1018.38
972.39
927.898
884.812
)


20
(
6559.81
6542.38
6490.07
6402.87
6280.73
6123.6
5931.41
5704.06
5441.48
5143.54
4810.13
4441.12
4036.39
3595.78
3119.16
2606.38
917.3
877.077
838.164
800.481
)


20
(
5555.58
5540.92
5496.94
5423.62
5320.92
5188.8
5027.19
4836.04
4615.26
4364.75
4084.43
3774.18
3433.9
3063.47
2662.76
2231.67
811.667
777.851
745.138
713.459
)


20
(
4466.17
4454.51
4419.55
4361.26
4279.61
4174.58
4046.11
3894.15
3718.64
3519.52
3296.69
3050.09
2779.61
2485.19
2166.71
1824.09
695.545
668.671
642.673
617.496
)


20
(
3298.86
3290.39
3264.97
3222.59
3163.23
3086.87
2993.48
2883.02
2755.45
2610.72
2448.78
2269.56
2073.02
1859.1
1627.71
1378.81
559.005
539.483
520.598
502.309
)


20
(
2061.97
2056.8
2041.27
2015.38
1979.12
1932.49
1875.46
1808.01
1730.14
1641.81
1543
1433.68
1313.82
1183.4
1042.38
890.73
391.324
379.431
367.926
356.784
)


20
(
775.131
773.314
767.86
758.772
746.051
729.699
709.719
686.112
658.884
628.037
593.577
555.508
513.836
468.564
419.699
367.247
194.683
190.571
186.593
182.74
)


20
(
2210.97
2209.89
2206.62
2201.16
2193.48
2183.52
2171.26
2156.61
2139.5
2119.87
2097.6
2072.61
2044.79
2014.02
1980.18
1943.16
1820.07
1817.18
1814.39
1811.69
)


20
(
3386.97
3382.41
3368.71
3345.86
3313.83
3272.55
3221.96
3162
3092.56
3013.55
2924.86
2826.36
2717.93
2599.42
2470.7
2331.61
1872.39
1861.5
1850.96
1840.76
)


20
(
4524.08
4516.12
4492.23
4452.39
4396.54
4324.64
4236.61
4132.35
4011.76
3874.72
3721.1
3550.76
3363.55
3159.31
2937.86
2699.05
1911.39
1892.67
1874.56
1857.03
)


20
(
5604.81
5593.58
5559.89
5503.71
5424.98
5323.65
5199.61
5052.78
4883.03
4690.22
4474.2
4234.82
3971.91
3685.27
3374.74
3040.11
1936.89
1910.65
1885.27
1860.69
)


20
(
6612.46
6598.15
6555.21
6483.61
6383.28
6254.16
6096.16
5909.14
5692.99
5447.54
5172.64
4868.11
4533.76
4169.39
3774.8
3349.77
1948.82
1915.49
1883.25
1852.03
)


20
(
7531.46
7514.29
7462.8
7376.93
7256.64
7101.83
6912.4
6688.23
6429.17
6135.06
5805.71
5440.95
5040.56
4604.32
4132.02
3623.43
1947.31
1907.42
1868.83
1831.47
)


20
(
8347.56
8327.83
8268.61
8169.86
8031.53
7853.53
7635.73
7378.01
7080.22
6742.18
6363.69
5944.55
5484.55
4983.45
4441.03
3857.03
1932.61
1886.8
1842.49
1799.58
)


20
(
9048.13
9026.13
8960.14
8850.11
8695.97
8497.62
8254.96
7967.84
7636.09
7259.54
6837.98
6371.19
5858.95
5301.02
4697.16
4047.1
1905.15
1854.16
1804.84
1757.08
)


20
(
9622.29
9598.39
9526.68
9407.12
9239.64
9024.14
8760.5
8448.57
8088.19
7679.16
7221.27
6714.31
6158.03
5552.19
4896.53
4190.8
1865.53
1810.17
1756.62
1704.77
)


20
(
10061.1
10035.7
9959.43
9832.26
9654.13
9424.92
9144.52
8812.78
8429.53
7994.56
7507.67
6968.63
6377.2
5733.12
5036.14
4285.99
1814.49
1755.65
1698.72
1643.6
)


20
(
10357.9
10331.3
10251.7
10119
9933.01
9693.76
9401.09
9054.84
8654.84
8200.88
7692.76
7130.25
6513.11
5841.07
5113.88
4331.27
1752.92
1691.53
1632.14
1574.63
)


20
(
10507.9
10480.7
10399
10262.8
10072
9826.54
9526.26
9171.03
8760.67
8294.97
7773.74
7196.73
6563.71
5874.42
5128.61
4326
1681.86
1618.9
1558
1499.02
)


20
(
10509
10481.5
10399.1
10261.6
10069
9821.24
9518.16
9159.62
8745.44
8275.44
7749.4
7167.09
6528.29
5832.73
5080.18
4270.36
1602.51
1538.99
1477.53
1418.02
)


20
(
10361.2
10333.9
10252
10115.5
9924.17
9678.06
9377.01
9020.88
8609.5
8142.68
7620.23
7041.91
6407.5
5716.76
4969.44
4165.29
1516.19
1453.11
1392.09
1332.99
)


20
(
10067
10040.3
9960.29
9826.82
9639.87
9399.35
9105.14
8757.1
8355.08
7898.89
7388.35
6823.23
6203.33
5528.4
4798.22
4012.54
1424.35
1362.72
1303.1
1245.36
)


20
(
9631.06
9605.42
9528.5
9400.26
9220.64
8989.54
8706.87
8372.48
7986.23
7547.96
7057.47
6514.57
5919.05
5270.7
4569.28
3814.58
1328.49
1269.29
1212.01
1156.55
)


20
(
9060.09
9035.91
8963.36
8842.4
8672.97
8454.99
8188.37
7872.98
7508.68
7095.31
6632.71
6120.69
5559.05
4947.6
4286.14
3574.44
1230.04
1174.21
1120.2
1067.9
)


20
(
8362.69
8340.35
8273.32
8161.58
8005.05
7803.69
7557.38
7266.03
6929.5
6547.65
6120.32
5647.36
5128.58
4563.8
3952.83
3295.48
1130.14
1078.57
1028.69
980.381
)


20
(
7548.72
7528.59
7468.16
7367.42
7226.31
7044.78
6822.74
6560.09
6256.71
5912.49
5527.28
5100.94
4633.3
4124.21
3573.5
2981
1029.27
982.794
937.831
894.288
)


20
(
6628.96
6611.34
6558.48
6470.36
6346.93
6188.14
5993.91
5764.17
5498.8
5197.72
4860.78
4487.87
4078.85
3633.58
3151.91
2633.7
926.725
886.075
846.751
808.669
)


20
(
5613.83
5599.02
5554.57
5480.48
5376.69
5243.18
5079.87
4886.7
4663.58
4410.43
4127.14
3813.61
3469.73
3095.38
2690.43
2254.78
819.733
785.56
752.5
720.485
)


20
(
4512.73
4500.95
4465.62
4406.72
4324.21
4218.07
4088.25
3934.69
3757.33
3556.1
3330.92
3081.72
2808.39
2510.85
2189.01
1842.77
702.284
675.125
648.852
623.41
)


20
(
3332.95
3324.39
3298.7
3255.88
3195.9
3118.74
3024.37
2912.75
2783.84
2637.59
2473.94
2292.85
2094.24
1878.06
1644.24
1392.72
564.263
544.535
525.451
506.97
)


20
(
2082.8
2077.57
2061.88
2035.72
1999.09
1951.97
1894.34
1826.2
1747.52
1658.27
1558.43
1447.97
1326.86
1195.07
1052.58
899.344
394.708
382.691
371.065
359.807
)


20
(
782.126
780.29
774.783
765.605
752.758
736.244
716.064
692.223
664.724
633.569
598.764
560.314
518.222
472.494
423.135
370.152
195.836
191.682
187.663
183.772
)


20
(
2210.97
2209.89
2206.62
2201.16
2193.48
2183.52
2171.26
2156.61
2139.5
2119.87
2097.6
2072.61
2044.79
2014.02
1980.18
1943.16
1820.07
1817.18
1814.39
1811.69
)


20
(
3386.97
3382.41
3368.71
3345.86
3313.83
3272.55
3221.96
3162
3092.56
3013.55
2924.86
2826.36
2717.93
2599.42
2470.7
2331.61
1872.39
1861.5
1850.96
1840.76
)


20
(
4524.08
4516.12
4492.23
4452.39
4396.54
4324.64
4236.61
4132.35
4011.76
3874.72
3721.1
3550.76
3363.55
3159.31
2937.86
2699.05
1911.39
1892.67
1874.56
1857.03
)


20
(
5604.81
5593.58
5559.89
5503.71
5424.98
5323.65
5199.61
5052.78
4883.03
4690.22
4474.2
4234.82
3971.91
3685.28
3374.74
3040.11
1936.89
1910.65
1885.27
1860.69
)


20
(
6612.46
6598.15
6555.21
6483.6
6383.28
6254.16
6096.16
5909.14
5692.99
5447.54
5172.64
4868.11
4533.76
4169.39
3774.79
3349.77
1948.82
1915.49
1883.25
1852.03
)


20
(
7531.46
7514.29
7462.8
7376.93
7256.64
7101.83
6912.4
6688.23
6429.17
6135.06
5805.71
5440.95
5040.56
4604.32
4132.02
3623.43
1947.31
1907.42
1868.83
1831.47
)


20
(
8347.56
8327.83
8268.61
8169.86
8031.53
7853.53
7635.73
7378.01
7080.22
6742.18
6363.69
5944.55
5484.55
4983.45
4441.03
3857.03
1932.61
1886.8
1842.49
1799.58
)


20
(
9048.13
9026.13
8960.14
8850.11
8695.97
8497.62
8254.96
7967.84
7636.09
7259.54
6837.97
6371.19
5858.95
5301.02
4697.16
4047.1
1905.15
1854.16
1804.84
1757.08
)


20
(
9622.28
9598.39
9526.68
9407.12
9239.64
9024.14
8760.5
8448.57
8088.19
7679.16
7221.27
6714.31
6158.03
5552.19
4896.53
4190.8
1865.53
1810.17
1756.62
1704.77
)


20
(
10061.1
10035.7
9959.43
9832.26
9654.13
9424.92
9144.52
8812.78
8429.53
7994.56
7507.67
6968.63
6377.2
5733.12
5036.14
4285.99
1814.49
1755.65
1698.72
1643.6
)


20
(
10357.9
10331.3
10251.7
10119
9933.01
9693.76
9401.09
9054.84
8654.84
8200.88
7692.76
7130.25
6513.11
5841.07
5113.87
4331.27
1752.92
1691.53
1632.14
1574.63
)


20
(
10507.9
10480.7
10399
10262.8
10072
9826.54
9526.26
9171.03
8760.67
8294.97
7773.74
7196.73
6563.71
5874.42
5128.6
4326
1681.86
1618.9
1558
1499.02
)


20
(
10509
10481.5
10399.1
10261.6
10069
9821.24
9518.16
9159.62
8745.44
8275.44
7749.4
7167.09
6528.29
5832.73
5080.18
4270.36
1602.51
1538.99
1477.53
1418.02
)


20
(
10361.2
10333.9
10252
10115.5
9924.17
9678.06
9377.01
9020.88
8609.5
8142.68
7620.22
7041.91
6407.5
5716.76
4969.44
4165.29
1516.19
1453.11
1392.09
1332.99
)


20
(
10067
10040.3
9960.29
9826.82
9639.87
9399.35
9105.14
8757.1
8355.08
7898.89
7388.35
6823.23
6203.33
5528.4
4798.22
4012.54
1424.35
1362.72
1303.1
1245.36
)


20
(
9631.06
9605.42
9528.5
9400.26
9220.64
8989.54
8706.87
8372.48
7986.23
7547.96
7057.47
6514.57
5919.05
5270.7
4569.28
3814.58
1328.49
1269.29
1212.01
1156.55
)


20
(
9060.09
9035.91
8963.36
8842.4
8672.97
8454.99
8188.37
7872.98
7508.68
7095.31
6632.71
6120.69
5559.05
4947.6
4286.14
3574.44
1230.04
1174.21
1120.2
1067.9
)


20
(
8362.69
8340.35
8273.32
8161.57
8005.05
7803.69
7557.38
7266.03
6929.5
6547.65
6120.32
5647.36
5128.58
4563.79
3952.83
3295.48
1130.14
1078.57
1028.69
980.381
)


20
(
7548.72
7528.59
7468.16
7367.42
7226.31
7044.78
6822.74
6560.09
6256.71
5912.49
5527.28
5100.94
4633.3
4124.21
3573.5
2981
1029.27
982.794
937.831
894.288
)


20
(
6628.96
6611.34
6558.48
6470.36
6346.93
6188.14
5993.91
5764.17
5498.8
5197.72
4860.78
4487.87
4078.85
3633.58
3151.91
2633.7
926.725
886.075
846.751
808.669
)


20
(
5613.83
5599.02
5554.57
5480.48
5376.69
5243.18
5079.87
4886.7
4663.58
4410.43
4127.14
3813.61
3469.73
3095.38
2690.43
2254.78
819.733
785.56
752.5
720.485
)


20
(
4512.73
4500.95
4465.62
4406.72
4324.21
4218.07
4088.25
3934.69
3757.33
3556.1
3330.93
3081.72
2808.39
2510.85
2189.01
1842.77
702.284
675.125
648.852
623.41
)


20
(
3332.95
3324.39
3298.7
3255.88
3195.9
3118.74
3024.37
2912.75
2783.84
2637.59
2473.94
2292.85
2094.24
1878.06
1644.24
1392.72
564.263
544.535
525.451
506.97
)


20
(
2082.8
2077.57
2061.88
2035.72
1999.09
1951.97
1894.34
1826.2
1747.52
1658.27
1558.43
1447.97
1326.86
1195.07
1052.58
899.344
394.708
382.691
371.065
359.807
)


20
(
782.126
780.29
774.783
765.605
752.758
736.244
716.064
692.223
664.724
633.569
598.765
560.314
518.222
472.494
423.135
370.152
195.836
191.682
187.663
183.772
)


20
(
2182.98
2181.9
2178.65
2173.21
2165.56
2155.66
2143.46
2128.88
2111.87
2092.34
2070.21
2045.36
2017.71
1987.14
1953.52
1916.75
1794.51
1791.64
1788.87
1786.19
)


20
(
3346.41
3341.89
3328.32
3305.68
3273.93
3233.03
3182.92
3123.51
3054.71
2976.44
2888.58
2791
2683.59
2566.21
2438.71
2300.95
1846.13
1835.34
1824.9
1814.8
)


20
(
4471.42
4463.54
4439.88
4400.43
4345.13
4273.93
4186.76
4083.52
3964.12
3828.43
3676.33
3507.67
3322.31
3120.1
2900.86
2664.43
1884.64
1866.11
1848.18
1830.82
)


20
(
5540.71
5529.59
5496.24
5440.62
5362.68
5262.36
5139.57
4994.21
4826.16
4635.29
4421.45
4184.49
3924.23
3640.49
3333.11
3001.88
1909.86
1883.89
1858.76
1834.44
)


20
(
6537.76
6523.59
6481.09
6410.21
6310.9
6183.09
6026.69
5841.57
5627.61
5384.66
5112.56
4811.14
4480.2
4119.55
3728.99
3308.32
1921.74
1888.74
1856.83
1825.93
)


20
(
7447.15
7430.16
7379.19
7294.2
7175.13
7021.9
6834.41
6612.54
6356.13
6065.03
5739.06
5378.04
4981.76
4550
4082.56
3579.21
1920.37
1880.89
1842.7
1805.72
)


20
(
8254.8
8235.26
8176.65
8078.92
7942.01
7765.83
7550.27
7295.21
7000.47
6665.91
6291.32
5876.5
5421.24
4925.32
4388.5
3810.54
1906.03
1860.7
1816.85
1774.38
)


20
(
8948.18
8926.41
8861.1
8752.2
8599.65
8403.35
8163.19
7879.03
7550.71
7178.04
6760.83
6298.87
5791.94
5239.78
4642.18
3998.86
1879.13
1828.67
1779.86
1732.59
)


20
(
9516.55
9492.9
9421.93
9303.61
9137.86
8924.59
8663.68
8354.97
7998.32
7593.52
7140.38
6638.67
6088.16
5488.61
4839.76
4141.36
1840.26
1785.48
1732.49
1681.17
)


20
(
9951.09
9925.93
9850.45
9724.6
9548.3
9321.47
9043.98
8715.68
8336.39
7905.94
7424.1
6890.66
6305.37
5667.99
4978.26
4235.92
1790.15
1731.92
1675.59
1621.04
)


20
(
10245.1
10218.8
10140
10008.6
9824.62
9587.86
9298.23
8955.57
8559.72
8110.48
7607.65
7050.99
6440.26
5775.22
5055.6
4281.15
1729.68
1668.93
1610.16
1553.25
)


20
(
10394
10367
10286.2
10151.4
9962.58
9719.67
9422.51
9070.98
8664.88
8204.03
7688.22
7117.22
6490.79
5808.69
5070.65
4276.42
1659.87
1597.57
1537.3
1478.94
)


20
(
10395.5
10368.3
10286.7
10150.7
9960.09
9714.9
9414.98
9060.17
8650.31
8185.2
7664.64
7088.4
6456.26
5767.96
5023.25
4221.89
1581.91
1519.05
1458.24
1399.35
)


20
(
10249.8
10222.8
10141.7
10006.6
9817.3
9573.76
9275.85
8923.43
8516.33
8054.38
7537.37
6965.08
6337.29
5653.77
4914.25
4118.51
1497.1
1434.68
1374.29
1315.82
)


20
(
9959.26
9932.85
9853.63
9721.55
9536.55
9298.54
9007.4
8662.99
8265.16
7813.73
7308.52
6749.3
6135.87
5468
4745.45
3967.99
1406.86
1345.88
1286.88
1229.74
)


20
(
9528.45
9503.08
9426.96
9300.06
9122.31
8893.63
8613.9
8283
7900.79
7467.09
6981.73
6444.5
5855.2
5213.62
4519.55
3772.75
1312.67
1254.09
1197.41
1142.53
)


20
(
8964.06
8940.13
8868.34
8748.64
8580.98
8365.28
8101.44
7789.34
7428.85
7019.8
6562.03
6055.36
5499.6
4894.55
4240.01
3535.76
1215.91
1160.66
1107.22
1055.47
)


20
(
8274.52
8252.41
8186.09
8075.51
7920.62
7721.36
7477.63
7189.32
6856.3
6478.45
6055.59
5587.57
5074.22
4515.35
3910.78
3260.32
1117.67
1066.64
1017.28
969.48
)


20
(
7469.57
7449.64
7389.84
7290.15
7150.52
6970.89
6751.17
6491.26
6191.06
5850.44
5469.26
5047.38
4584.64
4080.88
3535.94
2949.65
1018.38
972.391
927.899
884.812
)


20
(
6559.81
6542.38
6490.07
6402.87
6280.73
6123.6
5931.41
5704.06
5441.48
5143.54
4810.13
4441.12
4036.39
3595.78
3119.16
2606.38
917.301
877.077
838.165
800.482
)


20
(
5555.58
5540.92
5496.94
5423.62
5320.92
5188.8
5027.19
4836.04
4615.26
4364.75
4084.43
3774.18
3433.9
3063.47
2662.76
2231.67
811.667
777.852
745.139
713.46
)


20
(
4466.17
4454.52
4419.55
4361.26
4279.61
4174.58
4046.11
3894.15
3718.65
3519.52
3296.69
3050.09
2779.62
2485.19
2166.71
1824.1
695.546
668.671
642.673
617.497
)


20
(
3298.86
3290.39
3264.97
3222.59
3163.23
3086.87
2993.48
2883.02
2755.45
2610.72
2448.78
2269.57
2073.03
1859.1
1627.71
1378.82
559.005
539.484
520.598
502.31
)


20
(
2061.97
2056.8
2041.27
2015.38
1979.12
1932.49
1875.46
1808.01
1730.14
1641.81
1543
1433.68
1313.82
1183.4
1042.38
890.73
391.324
379.431
367.926
356.785
)


20
(
775.132
773.314
767.861
758.773
746.052
729.699
709.719
686.112
658.884
628.038
593.578
555.509
513.836
468.564
419.7
367.247
194.684
190.571
186.593
182.74
)


20
(
2217.73
2216.64
2213.37
2207.91
2200.21
2190.25
2177.96
2163.29
2146.17
2126.5
2104.2
2079.17
2051.31
2020.49
1986.59
1949.5
1826.2
1823.3
1820.51
1817.8
)


20
(
3396.86
3392.29
3378.56
3355.66
3323.55
3282.17
3231.47
3171.37
3101.77
3022.58
2933.68
2834.95
2726.26
2607.48
2478.45
2339.04
1878.72
1867.79
1857.23
1847.01
)


20
(
4536.99
4529.01
4505.06
4465.12
4409.14
4337.07
4248.82
4144.3
4023.42
3886.04
3732.05
3561.29
3373.62
3168.87
2946.88
2707.48
1917.86
1899.09
1880.94
1863.37
)


20
(
5620.57
5609.31
5575.54
5519.22
5440.3
5338.71
5214.37
5067.17
4896.99
4703.7
4487.15
4247.17
3983.59
3696.24
3384.93
3049.45
1943.45
1917.14
1891.7
1867.06
)


20
(
6630.87
6616.52
6573.47
6501.69
6401.11
6271.67
6113.26
5925.78
5709.08
5463.01
5187.42
4882.12
4546.92
4181.63
3786.03
3359.92
1955.42
1922
1889.68
1858.38
)


20
(
7552.26
7535.06
7483.43
7397.35
7276.75
7121.54
6931.64
6706.9
6447.18
6152.32
5822.14
5456.45
5055.04
4617.69
4144.18
3634.29
1953.89
1913.9
1875.21
1837.75
)


20
(
8370.48
8350.69
8291.32
8192.33
8053.65
7875.19
7656.84
7398.46
7099.91
6761
6381.55
5961.34
5500.16
4997.79
4453.97
3868.48
1939.12
1893.2
1848.77
1805.76
)


20
(
9072.84
9050.79
8984.63
8874.31
8719.78
8520.93
8277.65
7989.79
7657.19
7279.68
6857.04
6389.05
5875.5
5316.14
4710.73
4059
1911.54
1860.42
1810.97
1763.09
)


20
(
9648.45
9624.49
9552.6
9432.73
9264.82
9048.77
8784.46
8471.73
8110.42
7700.34
7241.28
6733.01
6175.3
5567.91
4910.56
4203.01
1871.75
1816.25
1762.57
1710.58
)


20
(
10088.4
10062.9
9986.42
9858.92
9680.33
9450.53
9169.41
8836.82
8452.58
8016.49
7528.35
6987.93
6394.97
5749.23
5050.46
4298.37
1820.5
1761.5
1704.43
1649.17
)


20
(
10385.8
10359.2
10279.4
10146.3
9959.86
9720
9426.57
9079.43
8678.39
8223.27
7713.85
7149.89
6531.15
5857.37
5128.31
4343.68
1758.67
1697.12
1637.58
1579.92
)


20
(
10536.1
10508.8
10426.9
10290.4
10099.1
9853.02
9551.97
9195.82
8784.4
8317.51
7794.93
7216.43
6581.78
5890.71
5142.97
4338.29
1687.31
1624.19
1563.13
1504
)


20
(
10537.1
10509.6
10426.9
10289.1
10096
9847.6
9543.74
9184.27
8769.03
8297.81
7770.41
7186.6
6546.15
5848.8
5094.29
4282.38
1607.63
1543.94
1482.33
1422.66
)


20
(
10388.9
10361.5
10279.4
10142.4
9950.66
9703.92
9402.1
9045.05
8632.61
8164.58
7640.77
7060.96
6424.91
5732.38
4983.13
4176.9
1520.95
1457.7
1396.52
1337.27
)


20
(
10093.7
10067
9986.74
9852.92
9665.49
9424.35
9129.38
8780.44
8377.38
7920.02
7408.15
6841.58
6220.07
5543.4
4811.32
4023.61
1428.71
1366.92
1307.15
1249.26
)


20
(
9656.51
9630.8
9553.69
9425.11
9245.03
9013.33
8729.93
8394.68
8007.43
7568.02
7076.27
6531.96
5934.9
5284.87
4581.63
3824.98
1332.44
1273.08
1215.66
1160.06
)


20
(
9083.92
9059.67
8986.93
8865.66
8695.79
8477.25
8209.94
7893.73
7528.49
7114.05
6650.25
6136.9
5573.81
4960.78
4297.6
3584.06
1233.57
1177.6
1123.45
1071.01
)


20
(
8384.56
8362.16
8294.96
8182.93
8026
7824.11
7577.17
7285.06
6947.66
6564.82
6136.39
5662.2
5142.07
4575.83
3963.27
3304.22
1133.26
1081.56
1031.55
983.115
)


20
(
7568.36
7548.17
7487.59
7386.59
7245.12
7063.12
6840.5
6577.17
6273.01
5927.89
5541.69
5114.24
4645.39
4134.98
3582.84
2988.79
1032
985.403
940.323
896.668
)


20
(
6646.11
6628.45
6575.46
6487.11
6363.36
6204.15
6009.43
5779.08
5513.04
5211.17
4873.36
4499.48
4089.4
3642.97
3160.06
2640.5
929.09
888.335
848.908
810.727
)


20
(
5628.29
5613.44
5568.88
5494.59
5390.54
5256.67
5092.94
4899.27
4675.58
4421.77
4137.75
3823.41
3478.64
3103.31
2697.32
2260.53
821.76
787.498
754.352
722.254
)


20
(
4524.29
4512.49
4477.06
4418
4335.29
4228.87
4098.71
3944.76
3766.94
3565.19
3339.43
3089.58
2815.55
2517.24
2194.56
1847.42
703.981
676.752
650.411
624.903
)


20
(
3341.42
3332.84
3307.08
3264.15
3204.02
3126.66
3032.05
2920.14
2790.9
2644.27
2480.2
2298.64
2099.52
1882.78
1648.36
1396.19
565.591
545.813
526.679
508.15
)


20
(
2087.97
2082.73
2067
2040.77
2004.05
1956.81
1899.04
1830.72
1751.84
1662.36
1562.27
1451.52
1330.11
1197.99
1055.13
901.497
395.566
383.517
371.862
360.575
)


20
(
783.862
782.022