/*--------------------------------*- C++ -*----------------------------------*\
| =========                 |                                                 |
| \\      /  F ield         | OpenFOAM: The Open Source CFD Toolbox           |
|  \\    /   O peration     | Version:  2212                                  |
|   \\  /    A nd           | Website:  www.openfoam.com                      |
|    \\/     M anipulation  |                                                 |
\*---------------------------------------------------------------------------*/
FoamFile
{
    version     2.0;
    format      ascii;
    arch        "LSB;label=32;scalar=64";
    class       surfaceScalarField;
    location    "93/fluidRegion";
    object      alphaPhi;
}
// * * * * * * * * * * * * * * * * * * * * * * * * * * * * * * * * * * * * * //

dimensions      [0 3 -1 0 0 0 0];

oriented        oriented;

internalField   nonuniform List<scalar> 
661
(
-0.000538912
2.81543e-12
-0.000538874
3.12777e-12
-0.000538836
2.38968e-12
-0.000538799
1.35509e-12
-0.000538761
2.32801e-13
-0.000538724
-8.28313e-13
-0.000538687
-1.72874e-12
-0.000538649
-2.38747e-12
-0.000538611
-2.78428e-12
-0.000538572
-2.91886e-12
-0.000538533
-2.81383e-12
-0.000538497
-2.48617e-12
-0.000538463
-1.95287e-12
-0.000538433
-1.23934e-12
-0.000538405
-4.09456e-13
-0.000538376
4.47358e-13
-0.000538345
1.22198e-12
-0.00053831
1.79961e-12
-0.000538268
2.09041e-12
-0.000538219
2.08276e-12
-0.000538164
1.8395e-12
-0.000538103
1.42193e-12
-0.000538037
8.26603e-13
-0.00053797
-2.77831e-13
-1.74806e-12
-0.000538912
-0.000538874
-0.000538836
-0.000538799
-0.000538761
-0.000538724
-0.000538687
-0.000538649
-0.000538611
-0.000538572
-0.000538533
-0.000538497
-0.000538463
-0.000538433
-0.000538405
-0.000538376
-0.000538345
-0.00053831
-0.000538268
-0.000538219
-0.000538164
-0.000538103
-0.000538037
-0.00053797
-0.0202316
1.41436e-06
-0.0198033
6.71723e-07
-0.0192586
7.27757e-07
-0.0186066
6.54942e-07
-0.0178567
5.92912e-07
-0.0170189
5.35448e-07
-0.0161035
4.82225e-07
-0.0151209
4.30624e-07
-0.0140818
3.74899e-07
-0.0129975
3.05602e-07
-0.0118797
2.10859e-07
-0.0107413
7.90047e-08
-0.00959658
-9.34415e-08
-0.00846124
-2.92579e-07
-0.00735214
-4.95888e-07
-0.00628645
-6.69194e-07
-0.00528038
-7.85753e-07
-0.00434809
-8.38408e-07
-0.00350116
-8.40909e-07
-0.00274931
-8.17519e-07
-0.00210126
-7.90266e-07
-0.00156638
-7.64285e-07
-0.00115537
-7.28898e-07
-0.00087935
-6.32435e-07
-6.02605e-07
-0.0203616
-3.85058e-08
-3.73949e-08
-0.0199323
-1.73354e-07
-1.77547e-07
-0.0193855
-1.64251e-07
-1.68465e-07
-0.0187304
-1.41691e-07
-1.4628e-07
-0.0179768
-1.22219e-07
-1.27094e-07
-0.0171344
-1.04232e-07
-1.09447e-07
-0.0162138
-8.77388e-08
-9.33297e-08
-0.0152252
-7.20885e-08
-7.80165e-08
-0.0141796
-5.57495e-08
-6.20453e-08
-0.0130882
-3.6065e-08
-4.27531e-08
-0.0119628
-9.31075e-09
-1.64385e-08
-0.0108163
2.78992e-08
2.04213e-08
-0.00966307
7.62263e-08
6.81125e-08
-0.00851894
1.36629e-07
1.27756e-07
-0.00740099
1.9907e-07
1.89248e-07
-0.00632664
2.53667e-07
2.42688e-07
-0.00531238
2.9143e-07
2.78942e-07
-0.00437258
3.09311e-07
2.94947e-07
-0.00351898
3.11303e-07
2.94399e-07
-0.00276143
3.0482e-07
2.84957e-07
-0.0021087
2.96914e-07
2.73215e-07
-0.00157023
2.87368e-07
2.60433e-07
-0.00115682
2.69782e-07
2.39662e-07
-0.000879545
2.15467e-07
1.87352e-07
1.64318e-07
1.46272e-07
-0.0202103
6.94995e-07
-0.0197823
6.56001e-07
-0.0192381
6.31668e-07
-0.0185866
5.6262e-07
-0.0178374
5.00775e-07
-0.0170004
4.43815e-07
-0.0160859
3.90939e-07
-0.0151043
3.39131e-07
-0.0140663
2.81922e-07
-0.0129831
2.0907e-07
-0.0118665
1.07783e-07
-0.0107295
-3.23409e-08
-0.00958612
-2.14381e-07
-0.00845216
-4.24653e-07
-0.00734445
-6.36351e-07
-0.00628011
-8.13432e-07
-0.00527531
-9.28657e-07
-0.00434418
-9.76159e-07
-0.00349826
-9.72016e-07
-0.00274728
-9.42232e-07
-0.00209992
-9.08543e-07
-0.00156557
-8.74529e-07
-0.00115493
-8.16982e-07
-0.000879132
-6.79737e-07
-5.54645e-07
-0.0203326
4.44575e-09
-0.0199035
1.21792e-09
-0.0193571
1.49982e-09
-0.0187027
1.4699e-09
-0.0179498
1.52466e-09
-0.0171084
1.5086e-09
-0.0161889
1.36281e-09
-0.0152017
1.21693e-09
-0.0141575
9.74388e-10
-0.0130676
6.23319e-10
-0.0119439
2.73596e-10
-0.0107993
-1.11204e-10
-0.00964794
-5.81296e-10
-0.00850579
-1.10436e-09
-0.00738984
-1.73642e-09
-0.00631746
-2.4501e-09
-0.00530507
-3.17519e-09
-0.00436698
-3.85983e-09
-0.00351491
-4.62611e-09
-0.00275867
-5.38418e-09
-0.00210701
-6.12426e-09
-0.00156937
-6.78934e-09
-0.00115652
-7.3347e-09
-0.000879527
-6.60394e-09
-5.15873e-09
-0.0203327
-6.85314e-07
-0.0199035
-6.53338e-07
-0.0193571
-6.28138e-07
-0.0187027
-5.59072e-07
-0.0179498
-4.97074e-07
-0.0171085
-4.4011e-07
-0.0161889
-3.8741e-07
-0.0152017
-3.35808e-07
-0.0141575
-2.78975e-07
-0.0130677
-2.06664e-07
-0.0119439
-1.05958e-07
-0.0107993
3.36481e-08
-0.00964795
2.14941e-07
-0.0085058
4.24317e-07
-0.00738985
6.34926e-07
-0.00631747
8.10731e-07
-0.00530508
9.24558e-07
-0.00436699
9.70533e-07
-0.00351492
9.64459e-07
-0.00275867
9.32414e-07
-0.00210701
8.96033e-07
-0.00156937
8.59149e-07
-0.00115652
7.98741e-07
-0.000879528
6.62139e-07
5.39953e-07
-0.0202103
3.51281e-08
-0.0197824
1.74821e-07
-0.0192381
1.65435e-07
-0.0185866
1.43028e-07
-0.0178374
1.23787e-07
-0.0170004
1.06045e-07
-0.0160859
8.98151e-08
-0.0151043
7.44972e-08
-0.0140663
5.84902e-08
-0.0129831
3.91466e-08
-0.0118665
1.28046e-08
-0.0107295
-2.40248e-08
-0.00958613
-7.17129e-08
-0.00845217
-1.31527e-07
-0.00734446
-1.93338e-07
-0.00628012
-2.47254e-07
-0.00527532
-2.84227e-07
-0.00434418
-3.01237e-07
-0.00349826
-3.02382e-07
-0.00274728
-2.95216e-07
-0.00209992
-2.86804e-07
-0.00156557
-2.77467e-07
-0.00115493
-2.61199e-07
-0.00087913
-2.09063e-07
-1.60605e-07
-0.0203616
-1.41412e-06
-4.20163e-08
-0.0199323
-6.71387e-07
-1.77709e-07
-0.0193855
-7.27451e-07
-1.68957e-07
-0.0187304
-6.54646e-07
-1.46654e-07
-0.0179768
-5.9254e-07
-1.2744e-07
-0.0171344
-5.35042e-07
-1.09681e-07
-0.0162138
-4.81817e-07
-9.3343e-08
-0.0152252
-4.30195e-07
-7.77918e-08
-0.0141796
-3.7451e-07
-6.1469e-08
-0.0130882
-3.05288e-07
-4.17002e-08
-0.0119628
-2.10583e-07
-1.4841e-08
-0.0108163
-7.88023e-08
2.2364e-08
-0.00966307
9.34494e-08
7.08787e-08
-0.00851894
2.92273e-07
1.31521e-07
-0.00740099
4.94962e-07
1.94356e-07
-0.00632664
6.67232e-07
2.49629e-07
-0.00531238
7.82094e-07
2.88457e-07
-0.00437258
8.31949e-07
3.08107e-07
-0.00351898
8.29694e-07
3.13102e-07
-0.00276143
7.98824e-07
3.11591e-07
-0.0021087
7.60435e-07
3.10958e-07
-0.00157023
7.20493e-07
3.11117e-07
-0.00115682
6.687e-07
3.03643e-07
-0.000879545
5.65357e-07
2.54636e-07
5.43258e-07
2.02343e-07
-0.0202316
-0.0198033
-0.0192586
-0.0186066
-0.0178567
-0.0170189
-0.0161035
-0.0151209
-0.0140818
-0.0129975
-0.0118797
-0.0107413
-0.00959658
-0.00846124
-0.00735214
-0.00628645
-0.00528038
-0.00434809
-0.00350116
-0.00274931
-0.00210126
-0.00156638
-0.00115537
-0.000879351
-0.0203326
-6.90387e-07
1.67646e-09
-0.0199035
-6.50487e-07
-2.15144e-09
-0.0193571
-6.25778e-07
-2.07818e-09
-0.0187027
-5.56408e-07
-2.26411e-09
-0.0179498
-4.94175e-07
-2.52305e-09
-0.0171084
-4.36917e-07
-2.78779e-09
-0.0161889
-3.83872e-07
-3.03129e-09
-0.0152017
-3.3192e-07
-3.33841e-09
-0.0141575
-2.74693e-07
-3.63705e-09
-0.0130676
-2.01955e-07
-3.94761e-09
-0.0119439
-1.00811e-07
-4.41215e-09
-0.0107993
3.93344e-08
-4.56811e-09
-0.00964794
2.21341e-07
-5.28958e-09
-0.00850579
4.31621e-07
-6.01724e-09
-0.00738984
6.43487e-07
-6.94268e-09
-0.00631746
8.21079e-07
-8.19425e-09
-0.00530507
9.37658e-07
-1.00949e-08
-0.00436698
9.8788e-07
-1.29438e-08
-0.00351491
9.8872e-07
-1.73158e-08
-0.00275867
9.67204e-07
-2.37347e-08
-0.00210701
9.46618e-07
-3.34135e-08
-0.00156937
9.2942e-07
-4.49328e-08
-0.00115651
8.90168e-07
-5.76601e-08
-0.000879528
7.62686e-07
-6.23743e-08
6.25704e-07
-5.55064e-08
-0.0202103
-0.0197823
-0.0192381
-0.0185866
-0.0178374
-0.0170004
-0.0160859
-0.0151043
-0.0140663
-0.0129831
-0.0118665
-0.0107295
-0.00958612
-0.00845216
-0.00734445
-0.00628011
-0.00527531
-0.00434418
-0.00349826
-0.00274727
-0.00209992
-0.00156557
-0.00115493
-0.000879132
-0.0202103
6.86825e-07
-0.0197824
6.54948e-07
-0.0192381
6.29769e-07
-0.0185866
5.60758e-07
-0.0178374
4.9898e-07
-0.0170004
4.42156e-07
-0.0160859
3.89512e-07
-0.0151043
3.38043e-07
-0.0140663
2.81259e-07
-0.0129831
2.08933e-07
-0.0118665
1.08281e-07
-0.0107295
-3.15631e-08
-0.00958613
-2.12571e-07
-0.00845217
-4.21828e-07
-0.00734446
-6.32421e-07
-0.00628012
-8.08272e-07
-0.00527532
-9.22202e-07
-0.00434418
-9.68573e-07
-0.00349826
-9.6386e-07
-0.00274728
-9.34823e-07
-0.00209992
-9.04369e-07
-0.00156557
-8.76964e-07
-0.00115493
-8.29947e-07
-0.00087913
-7.03407e-07
-5.82176e-07
-0.0203327
-0.0199035
-0.0193571
-0.0187027
-0.0179498
-0.0171085
-0.0161889
-0.0152017
-0.0141575
-0.0130677
-0.0119439
-0.0107993
-0.00964795
-0.0085058
-0.00738985
-0.00631747
-0.00530508
-0.00436699
-0.00351492
-0.00275867
-0.00210701
-0.00156937
-0.00115652
-0.00087953
)
;

boundaryField
{
    outletCentralUnloaded
    {
        type            calculated;
        value           nonuniform List<scalar> 2(0.000538952 0.000538952);
    }
    inletCentralUnloaded
    {
        type            calculated;
        value           uniform -0.000540134;
    }
    outletFuelElement
    {
        type            calculated;
        value           nonuniform List<scalar> 
12
(
0.0205725
0.0207057
0.0205517
0.0206759
0.0206759
0.0205517
0.0207057
0.0205725
0.0206759
0.0205517
0.0205517
0.0206759
)
;
    }
    inletFuelElement
    {
        type            calculated;
        value           nonuniform List<scalar> 
12
(
-0.000722059
-0.00072206
-0.000722059
-0.000722059
-0.00072206
-0.000722059
-0.00072206
-0.000722059
-0.000722059
-0.000722059
-0.000722059
-0.00072206
)
;
    }
    defaultFaces
    {
        type            calculated;
        value           nonuniform List<scalar> 
450
(
1.09483e-23
-2.30239e-23
0
2.32642e-23
-1.88296e-24
0
1.67623e-23
7.92884e-24
0
-3.72507e-23
-2.84537e-23
0
-1.81636e-23
-3.61001e-23
0
-3.83217e-23
-1.52159e-23
0
-3.01653e-23
-1.07751e-23
0
-3.00817e-23
-2.48186e-23
0
-2.18857e-23
-3.7817e-25
0
-2.0747e-23
-9.08449e-24
0
-1.54874e-23
-8.41132e-24
0
-5.17406e-24
-1.94643e-24
0
5.91035e-24
3.35936e-24
0
1.88389e-23
5.71582e-24
0
3.3493e-23
9.47208e-24
0
3.71138e-23
1.1685e-23
0
4.69566e-23
-6.19982e-24
0
6.8449e-23
2.14557e-23
0
4.5123e-23
-3.28348e-23
0
-3.07824e-23
-7.27891e-24
0
-2.42786e-23
-1.21293e-23
0
4.18786e-23
9.27001e-25
0
-1.4163e-23
-5.41564e-24
0
-2.65118e-23
-1.11168e-23
0
-1.01244e-23
-3.56079e-23
0
2.40681e-23
0
2.40681e-23
0
8.0227e-24
0
2.40681e-23
0
-8.0227e-24
0
8.0227e-24
0
4.01135e-24
0
1.40397e-23
0
-4.01135e-24
0
6.01702e-24
0
3.00851e-24
0
-2.00567e-24
0
-8.0227e-24
0
-2.00567e-23
0
-8.0227e-24
0
-8.0227e-24
0
4.81362e-23
0
-3.20908e-23
0
3.20908e-23
0
-4.81362e-23
0
-4.81362e-23
0
4.81362e-23
0
0
0
-2.40681e-23
0
-2.40681e-23
0
-1.60454e-23
-8.0227e-24
0
-1.60454e-23
8.0227e-24
-8.0227e-24
-8.0227e-24
0
8.0227e-24
0
-2.00567e-24
5.01419e-25
4.01135e-24
8.0227e-24
0
0
-3.20908e-23
0
-1.60454e-23
0
1.60454e-23
-3.20908e-23
-1.60454e-23
1.60454e-23
8.0227e-24
0
0
0
0
0
0
0
0
0
0
0
0
0
0
0
0
0
0
0
0
0
0
0
0
0
-1.60454e-23
8.0227e-24
8.0227e-24
2.40681e-23
1.60454e-23
4.01135e-23
-1.60454e-23
-1.2034e-23
1.60454e-23
-1.2034e-23
-8.0227e-24
-1.60454e-23
-1.2034e-23
-8.0227e-24
-8.0227e-24
-8.0227e-24
1.60454e-23
-4.01135e-24
-6.01702e-24
-6.01702e-24
-2.50709e-24
0
2.00567e-24
8.77483e-25
6.01702e-24
8.0227e-24
8.0227e-24
1.60454e-23
2.40681e-23
1.60454e-23
4.01135e-23
1.60454e-23
-2.40681e-23
4.81362e-23
3.20908e-23
4.01135e-23
-6.41816e-23
5.61589e-23
-4.81362e-23
-2.40681e-23
0
-1.60454e-23
-3.20908e-23
4.01135e-23
-2.40681e-23
-2.40681e-23
-8.0227e-24
-2.00567e-23
-3.20908e-23
-1.2034e-23
1.48677e-24
0
0
7.43623e-24
0
-8.0227e-24
8.03784e-24
0
-4.81362e-23
-6.10283e-23
0
8.0227e-24
1.49781e-23
0
8.0227e-24
-4.10571e-23
0
0
-3.89766e-23
0
8.0227e-24
-4.22187e-23
0
8.0227e-24
-2.88245e-23
0
-1.60454e-23
-2.57939e-23
0
4.01135e-24
-1.78515e-23
0
0
-6.30725e-24
0
1.00284e-24
7.19562e-24
-0
-2.00567e-24
2.43576e-23
-0
0
3.67554e-23
-0
-1.60454e-23
6.5896e-23
-0
-8.0227e-24
4.92384e-23
-0
0
7.29652e-23
-0
-1.60454e-23
3.81086e-23
-0
-1.60454e-23
-2.98914e-23
-0
1.60454e-23
-6.94341e-24
-0
0
2.47619e-23
-0
3.20908e-23
-2.04726e-23
-0
-1.60454e-23
-6.01378e-24
-0
8.0227e-24
-8.94657e-24
-0
8.0227e-24
0
-8.0227e-24
-8.0227e-24
-8.0227e-24
8.0227e-24
-1.60454e-23
-8.0227e-24
-8.0227e-24
-4.01135e-24
0
-2.00567e-24
1.00284e-24
4.01135e-24
8.0227e-24
8.0227e-24
3.20908e-23
-4.81362e-23
3.20908e-23
-3.20908e-23
1.60454e-23
0
-4.81362e-23
-1.60454e-23
-1.60454e-23
0
2.20624e-23
0
2.40681e-23
0
0
0
1.60454e-23
0
-1.2034e-23
0
1.2034e-23
0
1.60454e-23
0
1.60454e-23
0
2.00567e-24
0
4.01135e-24
0
2.50709e-24
0
-1.00284e-24
-0
-8.0227e-24
-0
-2.00567e-23
-0
-3.20908e-23
-0
-4.01135e-23
-0
4.81362e-23
-0
-3.20908e-23
-0
4.81362e-23
-0
-3.20908e-23
-0
-3.20908e-23
-0
3.20908e-23
-0
3.20908e-23
-0
-4.01135e-23
-0
-2.40681e-23
-0
-2.20624e-23
8.0227e-24
-1.60454e-23
2.40681e-23
-8.0227e-24
8.0227e-24
-1.60454e-23
-4.81362e-23
-4.01135e-24
1.60454e-23
-1.2034e-23
-2.80794e-23
-8.0227e-24
-3.20908e-23
-4.01135e-24
-2.40681e-23
2.00567e-24
-2.00567e-23
-6.01702e-24
-1.2034e-23
-4.01135e-24
-8.0227e-24
0
4.23072e-24
4.01135e-24
1.80511e-23
8.0227e-24
3.61021e-23
1.60454e-23
5.61589e-23
8.0227e-24
6.41816e-23
0
3.20908e-23
1.60454e-23
8.0227e-23
-1.60454e-23
3.20908e-23
0
-2.40681e-23
8.0227e-24
-3.20908e-23
8.0227e-24
5.61589e-23
2.40681e-23
-3.20908e-23
-8.0227e-24
-1.60454e-23
0
-1.60454e-23
-0
-0
-0
-0
-0
-0
-0
-0
-0
-0
-0
0
0
0
0
0
0
0
0
0
0
0
0
0
0
)
;
    }
    baffle_master
    {
        type            calculated;
        value           nonuniform List<scalar> 
150
(
-9.23057e-30
0
0
-1.87715e-29
0
-4.57867e-29
-4.74174e-29
0
-4.57867e-29
-1.7358e-30
0
2.28934e-29
1.34824e-29
0
8.58502e-30
9.15664e-30
0
-1.14467e-29
-1.16482e-29
0
2.28934e-29
-2.94396e-29
0
4.57867e-29
-1.43394e-29
0
0
7.38421e-30
0
0
-1.31264e-29
0
4.57867e-29
-1.46339e-29
0
4.57867e-29
-2.00382e-30
0
0
-7.32317e-30
0
2.28934e-29
-1.69266e-30
0
0
-6.0011e-30
0
-1.14467e-29
-1.18581e-28
0
-4.57867e-29
-1.87291e-30
0
0
-1.14567e-28
0
-4.57867e-29
3.32007e-30
0
0
-4.80689e-30
0
-2.28934e-29
9.44128e-29
0
4.57867e-29
3.39051e-30
0
1.14467e-29
2.42408e-30
0
5.72334e-30
4.36945e-30
0
0
-4.57867e-29
4.90035e-29
-0
0
1.21644e-28
-0
-4.57867e-29
7.08378e-29
-0
-4.57867e-29
5.26933e-29
-0
2.86167e-30
-3.30162e-30
-0
1.14467e-29
-3.31886e-29
0
2.28934e-29
-7.99754e-29
0
0
-6.79077e-29
0
-9.15735e-29
-1.5048e-28
0
4.57867e-29
-7.55826e-29
0
4.57867e-29
-9.25444e-29
0
4.57867e-29
-1.18408e-28
0
0
-7.12804e-29
0
2.28934e-29
-3.40158e-29
0
5.72334e-30
-1.44905e-29
0
0
1.13399e-29
-0
6.86801e-29
3.27471e-29
-0
0
7.47631e-29
-0
4.57867e-29
1.49957e-30
-0
4.57867e-29
-3.58041e-29
-0
4.57867e-29
-2.98914e-29
-0
4.57867e-29
-7.89737e-29
-0
4.57867e-29
2.70061e-29
-0
-5.72334e-30
6.24427e-30
0
-2.28934e-29
3.58329e-29
0
)
;
    }
    baffle_slave
    {
        type            calculated;
        value           nonuniform List<scalar> 
150
(
1.81764e-23
-0
0
-6.6438e-24
-0
8.0227e-24
-1.25355e-24
-0
8.0227e-24
3.25922e-24
-0
-8.0227e-24
-2.58231e-23
-0
-2.40681e-23
-3.76064e-24
-0
0
2.00567e-24
-0
8.0227e-24
-4.51277e-24
-0
8.0227e-24
-5.01419e-25
-0
4.01135e-24
1.25355e-24
-0
4.01135e-24
2.50709e-24
-0
0
-2.50709e-25
0
-5.01419e-25
2.50709e-25
0
-4.01135e-24
-5.01419e-25
0
8.0227e-24
-2.00567e-24
0
8.0227e-24
3.00851e-24
0
0
-4.36234e-23
0
-1.60454e-23
-6.01702e-24
0
0
-3.50993e-23
0
-4.81362e-23
-5.01419e-24
0
-1.60454e-23
6.01702e-24
0
0
3.20908e-23
0
3.20908e-23
1.00284e-24
0
-1.60454e-23
1.00284e-24
0
-8.0227e-24
0
0
0
-2.34018e-23
6.44323e-23
0
-3.17911e-24
1.54186e-23
0
8.12232e-25
1.61708e-23
0
-9.44218e-24
1.7675e-23
0
2.25037e-24
-3.24669e-23
0
-4.0194e-24
1.40397e-23
0
-5.63964e-25
1.10312e-23
0
-5.04087e-24
1.00284e-23
0
7.80535e-24
1.40397e-23
0
-5.25758e-24
7.52128e-24
0
-1.41662e-24
6.70647e-24
0
3.47468e-26
4.45009e-24
0
7.22058e-25
-6.89451e-25
0
7.79541e-24
-6.13332e-24
0
6.95859e-24
-9.15089e-24
0
1.17503e-24
-1.99314e-23
0
-2.9989e-23
-1.29115e-23
0
-2.82798e-24
-2.43188e-23
0
-3.52015e-23
-3.50993e-24
0
3.68509e-24
1.70482e-23
0
2.0341e-23
1.40397e-23
0
-6.47152e-23
2.70766e-23
0
-4.75275e-23
-1.00284e-23
0
-1.21069e-23
4.01135e-24
0
-2.57154e-24
1.00284e-23
0
)
;
    }
}


// ************************************************************************* //
