/*--------------------------------*- C++ -*----------------------------------*\
| =========                 |                                                 |
| \\      /  F ield         | OpenFOAM: The Open Source CFD Toolbox           |
|  \\    /   O peration     | Version:  2212                                  |
|   \\  /    A nd           | Website:  www.openfoam.com                      |
|    \\/     M anipulation  |                                                 |
\*---------------------------------------------------------------------------*/
FoamFile
{
    version     2.0;
    format      ascii;
    arch        "LSB;label=32;scalar=64";
    class       surfaceScalarField;
    location    "93/fluidRegion";
    object      alphaRhoPhi;
}
// * * * * * * * * * * * * * * * * * * * * * * * * * * * * * * * * * * * * * //

dimensions      [1 0 -1 0 0 0 0];

oriented        oriented;

internalField   nonuniform List<scalar> 
661
(
-0.00584902
3.05557e-11
-0.00584909
3.39483e-11
-0.00584916
2.59393e-11
-0.00584923
1.47103e-11
-0.0058493
2.52741e-12
-0.00584939
-8.99332e-12
-0.00584947
-1.87712e-11
-0.00584954
-2.5926e-11
-0.00584961
-3.02376e-11
-0.00584968
-3.17018e-11
-0.00584975
-3.05636e-11
-0.00584985
-2.70069e-11
-0.00584998
-2.12155e-11
-0.00585013
-1.3465e-11
-0.0058503
-4.44896e-12
-0.00585047
4.86119e-12
-0.00585062
1.32796e-11
-0.00585072
1.95585e-11
-0.00585075
2.27209e-11
-0.00585071
2.26397e-11
-0.00585059
1.99971e-11
-0.00585041
1.5459e-11
-0.00585018
8.98744e-12
-0.00584991
-3.02102e-12
-1.90093e-11
-0.00584902
-0.00584909
-0.00584916
-0.00584923
-0.0058493
-0.00584939
-0.00584947
-0.00584954
-0.00584961
-0.00584968
-0.00584975
-0.00584985
-0.00584998
-0.00585013
-0.0058503
-0.00585047
-0.00585062
-0.00585072
-0.00585075
-0.00585071
-0.00585059
-0.00585041
-0.00585018
-0.00584991
-0.00939703
6.46022e-07
-0.00939726
3.12408e-07
-0.00939753
3.4688e-07
-0.00939777
3.22018e-07
-0.009398
3.02701e-07
-0.00939822
2.85777e-07
-0.00939842
2.70959e-07
-0.00939861
2.56632e-07
-0.00939879
2.38845e-07
-0.00939894
2.09918e-07
-0.00939906
1.57622e-07
-0.00939911
6.49304e-08
-0.00939903
-8.53922e-08
-0.00939878
-3.01053e-07
-0.00939827
-5.82521e-07
-0.00939746
-9.11229e-07
-0.00939633
-1.26126e-06
-0.00939485
-1.61621e-06
-0.009393
-1.98779e-06
-0.00939073
-2.42613e-06
-0.00938787
-3.02265e-06
-0.00938417
-3.873e-06
-0.00937932
-5.00739e-06
-0.00937358
-5.89831e-06
-7.21284e-06
-0.00931278
-1.76101e-08
-1.71021e-08
-0.00931233
-8.07273e-08
-8.26798e-08
-0.00931185
-7.83897e-08
-8.04005e-08
-0.00931142
-6.97554e-08
-7.20145e-08
-0.00931101
-6.24776e-08
-6.49696e-08
-0.00931064
-5.57027e-08
-5.84898e-08
-0.00931029
-4.93642e-08
-5.25098e-08
-0.00930996
-4.30177e-08
-4.65552e-08
-0.00930967
-3.55643e-08
-3.95805e-08
-0.00930943
-2.48056e-08
-2.94057e-08
-0.00930926
-6.96912e-09
-1.23043e-08
-0.00930924
2.29591e-08
1.68053e-08
-0.00930945
6.97506e-08
6.2326e-08
-0.00931001
1.40766e-07
1.31625e-07
-0.00931102
2.34142e-07
2.22589e-07
-0.00931257
3.45834e-07
3.30865e-07
-0.00931471
4.68336e-07
4.48266e-07
-0.00931745
5.96918e-07
5.69198e-07
-0.00932083
7.36622e-07
6.96621e-07
-0.00932497
9.05435e-07
8.46434e-07
-0.00933014
1.13656e-06
1.04584e-06
-0.00933678
1.45717e-06
1.32059e-06
-0.00934529
1.85423e-06
1.64721e-06
-0.00935495
2.01006e-06
1.74778e-06
1.96696e-06
1.75094e-06
-0.00941084
3.18388e-07
-0.00941116
3.06012e-07
-0.00941148
3.01992e-07
-0.00941178
2.77471e-07
-0.00941204
2.5645e-07
-0.00941229
2.37607e-07
-0.00941251
2.20352e-07
-0.00941271
2.02742e-07
-0.00941289
1.80178e-07
-0.00941303
1.44067e-07
-0.00941311
8.08271e-08
-0.00941307
-2.66643e-08
-0.00941284
-1.96537e-07
-0.00941233
-4.38328e-07
-0.00941145
-7.49837e-07
-0.00941012
-1.11097e-06
-0.00940831
-1.49496e-06
-0.00940599
-1.88693e-06
-0.00940313
-2.30358e-06
-0.00939962
-2.80274e-06
-0.00939522
-3.48212e-06
-0.00938958
-4.43907e-06
-0.0093824
-5.61938e-06
-0.00937437
-6.34389e-06
-6.64015e-06
-0.00933167
2.02199e-09
-0.0093314
5.64001e-10
-0.00933113
7.11779e-10
-0.00933089
7.19553e-10
-0.00933067
7.74966e-10
-0.00933046
8.016e-10
-0.00933027
7.62343e-10
-0.00933009
7.21987e-10
-0.00932994
6.17981e-10
-0.00932981
4.26222e-10
-0.00932975
2.03591e-10
-0.00932977
-9.09788e-11
-0.00932995
-5.28821e-10
-0.00933036
-1.13126e-09
-0.00933106
-2.03079e-09
-0.0093321
-3.32195e-09
-0.00933352
-5.07566e-09
-0.00933532
-7.41156e-09
-0.00933754
-1.08956e-08
-0.00934024
-1.59255e-08
-0.0093436
-2.33562e-08
-0.00934791
-3.43223e-08
-0.00935337
-5.02997e-08
-0.00935954
-6.15295e-08
-6.17295e-08
-0.00933168
-3.13953e-07
-0.00933141
-3.0477e-07
-0.00933115
-3.00305e-07
-0.0093309
-2.75721e-07
-0.00933068
-2.54555e-07
-0.00933047
-2.35623e-07
-0.00933028
-2.18363e-07
-0.00933011
-2.00755e-07
-0.00932995
-1.78295e-07
-0.00932983
-1.42409e-07
-0.00932976
-7.94581e-08
-0.00932978
2.7742e-08
-0.00932997
1.9705e-07
-0.00933037
4.37981e-07
-0.00933107
7.48157e-07
-0.00933212
1.10728e-06
-0.00933353
1.48836e-06
-0.00933534
1.87605e-06
-0.00933755
2.28567e-06
-0.00934025
2.77353e-06
-0.00934361
3.43417e-06
-0.00934792
4.361e-06
-0.00935338
5.49391e-06
-0.00935955
6.17965e-06
6.46426e-06
-0.00941084
1.60654e-08
-0.00941117
8.14102e-08
-0.00941149
7.89545e-08
-0.00941178
7.04138e-08
-0.00941205
6.32792e-08
-0.00941229
5.66718e-08
-0.00941251
5.05324e-08
-0.00941271
4.44551e-08
-0.00941289
3.73126e-08
-0.00941303
2.69252e-08
-0.00941311
9.58427e-09
-0.00941306
-1.97707e-08
-0.00941284
-6.56206e-08
-0.00941233
-1.3551e-07
-0.00941144
-2.27399e-07
-0.00941011
-3.37091e-07
-0.0094083
-4.56759e-07
-0.00940598
-5.81337e-07
-0.00940312
-7.15511e-07
-0.00939961
-8.76907e-07
-0.00939521
-1.09786e-06
-0.00938956
-1.40697e-06
-0.00938238
-1.79524e-06
-0.00937434
-1.95032e-06
-1.92252e-06
-0.00931278
-6.45913e-07
-1.92156e-08
-0.00931233
-3.12252e-07
-8.27552e-08
-0.00931185
-3.46734e-07
-8.06355e-08
-0.00931142
-3.21872e-07
-7.21991e-08
-0.00931101
-3.02511e-07
-6.51465e-08
-0.00931064
-2.85561e-07
-5.86147e-08
-0.00931029
-2.7073e-07
-5.25172e-08
-0.00930997
-2.56377e-07
-4.64211e-08
-0.00930967
-2.38598e-07
-3.92129e-08
-0.00930943
-2.09702e-07
-2.86815e-08
-0.00930926
-1.57415e-07
-1.11086e-08
-0.00930924
-6.4764e-08
1.8404e-08
-0.00930945
8.53994e-08
6.48573e-08
-0.00931001
3.00738e-07
1.35504e-07
-0.00931102
5.81432e-07
2.28597e-07
-0.00931257
9.08557e-07
3.40328e-07
-0.00931471
1.25538e-06
4.63557e-07
-0.00931745
1.60376e-06
5.94594e-07
-0.00932083
1.96128e-06
7.40878e-07
-0.00932497
2.37065e-06
9.25547e-07
-0.00933014
2.90856e-06
1.19032e-06
-0.00933678
3.65108e-06
1.5776e-06
-0.00934529
4.59384e-06
2.08695e-06
-0.00935495
5.27271e-06
2.37547e-06
6.5025e-06
2.42214e-06
-0.00939703
-0.00939726
-0.00939753
-0.00939777
-0.009398
-0.00939822
-0.00939842
-0.00939861
-0.00939879
-0.00939894
-0.00939906
-0.00939911
-0.00939904
-0.00939878
-0.00939827
-0.00939746
-0.00939633
-0.00939485
-0.009393
-0.00939073
-0.00938787
-0.00938417
-0.00937932
-0.00937359
-0.00933167
-3.16277e-07
7.62476e-10
-0.0093314
-3.0344e-07
-9.96305e-10
-0.00933113
-2.99176e-07
-9.86256e-10
-0.00933089
-2.74407e-07
-1.10834e-09
-0.00933067
-2.5307e-07
-1.28243e-09
-0.00933046
-2.33914e-07
-1.4813e-09
-0.00933027
-2.16369e-07
-1.69567e-09
-0.00933009
-1.98432e-07
-1.98063e-09
-0.00932994
-1.75558e-07
-2.3067e-09
-0.00932981
-1.39164e-07
-2.69936e-09
-0.00932975
-7.55987e-08
-3.28322e-09
-0.00932977
3.24302e-08
-3.73729e-09
-0.00932995
2.02917e-07
-4.81208e-09
-0.00933036
4.4552e-07
-6.16379e-09
-0.00933106
7.58246e-07
-8.11968e-09
-0.0093321
1.12142e-06
-1.11101e-08
-0.00933352
1.50945e-06
-1.61371e-08
-0.00933532
1.90958e-06
-2.48544e-08
-0.00933753
2.34317e-06
-4.07829e-08
-0.00934023
2.87702e-06
-7.02034e-08
-0.0093436
3.62805e-06
-1.2743e-07
-0.0093479
4.7177e-06
-2.2715e-07
-0.00935337
6.12277e-06
-3.9542e-07
-0.00935955
7.11804e-06
-5.81148e-07
7.49087e-06
-6.64191e-07
-0.00941084
-0.00941116
-0.00941148
-0.00941178
-0.00941204
-0.00941229
-0.00941251
-0.00941271
-0.00941289
-0.00941303
-0.00941311
-0.00941306
-0.00941284
-0.00941233
-0.00941144
-0.00941012
-0.00940831
-0.00940599
-0.00940313
-0.00939961
-0.00939521
-0.00938957
-0.00938239
-0.00937437
-0.00941084
3.14645e-07
-0.00941117
3.0552e-07
-0.00941149
3.01085e-07
-0.00941178
2.76553e-07
-0.00941205
2.55531e-07
-0.00941229
2.36718e-07
-0.00941251
2.19548e-07
-0.00941271
2.02092e-07
-0.00941289
1.79755e-07
-0.00941303
1.43972e-07
-0.00941311
8.12002e-08
-0.00941307
-2.60229e-08
-0.00941284
-1.94877e-07
-0.00941233
-4.35412e-07
-0.00941144
-7.45206e-07
-0.00941012
-1.10392e-06
-0.0094083
-1.48457e-06
-0.00940598
-1.87226e-06
-0.00940312
-2.28425e-06
-0.00939961
-2.7807e-06
-0.00939521
-3.46612e-06
-0.00938956
-4.45144e-06
-0.00938238
-5.70856e-06
-0.00937434
-6.5648e-06
-6.96975e-06
-0.00933168
-0.00933141
-0.00933115
-0.0093309
-0.00933068
-0.00933047
-0.00933028
-0.00933011
-0.00932995
-0.00932983
-0.00932976
-0.00932979
-0.00932997
-0.00933037
-0.00933107
-0.00933212
-0.00933353
-0.00933534
-0.00933755
-0.00934025
-0.00934361
-0.00934792
-0.00935339
-0.00935958
)
;

boundaryField
{
    outletCentralUnloaded
    {
        type            calculated;
        value           nonuniform List<scalar> 2(0.00584898 0.00584898);
    }
    inletCentralUnloaded
    {
        type            calculated;
        value           nonuniform List<scalar> 2(-0.0058737 -0.0058737);
    }
    outletFuelElement
    {
        type            calculated;
        value           nonuniform List<scalar> 
12
(
0.00939646
0.00931343
0.00941056
0.00933195
0.00933196
0.00941057
0.00931343
0.00939646
0.00933195
0.00941056
0.00941057
0.00933196
)
;
    }
    inletFuelElement
    {
        type            calculated;
        value           nonuniform List<scalar> 
12
(
-0.00953895
-0.00953896
-0.00953895
-0.00953895
-0.00953896
-0.00953895
-0.00953896
-0.00953895
-0.00953895
-0.00953895
-0.00953895
-0.00953896
)
;
    }
    defaultFaces
    {
        type            calculated;
        value           nonuniform List<scalar> 
450
(
5.03905e-24
-1.0597e-23
0
1.09037e-23
-8.82521e-25
0
8.05214e-24
3.8088e-24
0
-1.84598e-23
-1.41004e-23
0
-9.347e-24
-1.85771e-23
0
-2.06172e-23
-8.18617e-24
0
-1.70868e-23
-6.10347e-24
0
-1.80734e-23
-1.49113e-23
0
-1.40575e-23
-2.42905e-25
0
-1.43686e-23
-6.2916e-24
0
-1.1673e-23
-6.33969e-24
0
-4.28758e-24
-1.61295e-24
0
5.44591e-24
3.09537e-24
0
1.95436e-23
5.92964e-24
0
3.96623e-23
1.12168e-23
0
5.09355e-23
1.60366e-23
0
7.59448e-23
-1.00272e-23
0
1.32902e-22
4.16588e-23
0
1.07382e-22
-7.81389e-23
0
-9.19123e-23
-2.17339e-23
0
-9.33626e-23
-4.66427e-23
0
2.13163e-22
4.71845e-24
0
-9.7614e-23
-3.73256e-23
0
-2.47715e-22
-1.0387e-22
0
-1.21247e-22
-4.26431e-22
0
1.11054e-23
0
1.1309e-23
0
3.8637e-24
0
1.19576e-23
0
-4.1391e-24
0
4.32738e-24
0
2.27808e-24
0
8.45715e-24
0
-2.58327e-24
0
4.17805e-24
0
2.27345e-24
0
-1.66636e-24
0
-7.41133e-24
0
-2.086e-23
0
-9.52414e-24
0
-1.1037e-23
0
7.80324e-23
0
-6.24436e-23
0
7.65223e-23
0
-1.4399e-22
0
-1.85399e-22
0
2.45331e-22
0
0
0
-2.25004e-22
0
-2.88282e-22
0
-7.29767e-24
-3.7152e-24
0
-7.85465e-24
4.07784e-24
-4.26289e-24
-4.48782e-24
0
5.08819e-24
0
-1.49249e-24
4.10224e-25
3.64924e-24
8.21809e-24
0
0
-5.12984e-23
0
-3.77908e-23
0
6.11928e-23
-1.6223e-22
-1.10036e-22
1.49496e-22
9.59999e-23
0
0
0
0
0
0
0
0
0
0
0
0
0
0
0
0
0
0
0
0
0
0
0
0
0
-7.40362e-24
3.70181e-24
3.76966e-24
1.1309e-23
7.7274e-24
1.93185e-23
-7.97176e-24
-5.97882e-24
8.2782e-24
-6.20865e-24
-4.32738e-24
-8.65476e-24
-6.83423e-24
-4.55615e-24
-4.83265e-24
-4.83265e-24
1.03331e-23
-2.58327e-24
-4.17804e-24
-4.17804e-24
-1.89454e-24
0
1.66636e-24
7.29031e-25
5.55849e-24
7.41133e-24
8.34401e-24
1.6688e-23
2.85724e-23
1.90482e-23
5.5185e-23
2.2074e-23
-3.90162e-23
7.80323e-23
6.24435e-23
7.80544e-23
-1.53044e-22
1.33914e-22
-1.4399e-22
-7.1995e-23
0
-6.17997e-23
-1.63554e-22
2.04442e-22
-1.66038e-22
-1.66038e-22
-7.50012e-23
-1.87503e-22
-3.84376e-22
-1.44141e-22
6.84298e-25
0
0
3.48527e-24
0
-3.76014e-24
3.86116e-24
0
-2.31233e-23
-3.0243e-23
0
3.9757e-24
7.70772e-24
0
4.12848e-24
-2.20889e-23
0
0
-2.20779e-23
0
4.54437e-24
-2.53655e-23
0
4.82013e-24
-1.85145e-23
0
-1.03062e-23
-1.78639e-23
0
2.77812e-24
-1.34549e-23
0
0
-5.22662e-24
0
8.3102e-25
6.63018e-24
-0
-1.84807e-24
2.52688e-23
-0
0
4.35257e-23
-0
-1.90009e-23
9.04364e-23
-0
-1.10104e-23
7.96353e-23
-0
0
1.4167e-22
-0
-3.1154e-23
9.06894e-23
-0
-3.81842e-23
-8.9252e-23
-0
4.79095e-23
-2.67006e-23
-0
0
1.26038e-22
-0
1.63342e-22
-1.41101e-22
-0
-1.10588e-22
-5.61903e-23
-0
7.49608e-23
-1.07142e-22
-0
9.60779e-23
0
-3.7152e-24
-3.80739e-24
-3.92732e-24
4.07784e-24
-8.52578e-24
-4.48782e-24
-4.75975e-24
-2.5441e-24
0
-1.49249e-24
8.20449e-25
3.64924e-24
8.21809e-24
9.38279e-24
4.35101e-23
-7.69475e-23
6.16201e-23
-7.55816e-23
4.74596e-23
0
-2.43344e-22
-1.10036e-22
-1.49496e-22
0
1.018e-23
0
1.1309e-23
0
0
0
7.97177e-24
0
-6.20865e-24
0
6.49108e-24
0
9.11231e-24
0
9.66531e-24
0
1.29164e-24
0
2.78537e-24
0
1.89454e-24
0
-8.3318e-25
-0
-7.41133e-24
-0
-2.086e-23
-0
-3.80965e-23
-0
-5.51851e-23
-0
7.80324e-23
-0
-6.24436e-23
-0
1.14783e-22
-0
-9.59934e-23
-0
-1.23599e-22
-0
1.63554e-22
-0
2.21384e-22
-0
-3.75006e-22
-0
-2.88282e-22
-0
-1.018e-23
3.70181e-24
-7.53933e-24
1.1309e-23
-3.8637e-24
3.8637e-24
-7.97176e-24
-2.39153e-23
-2.06955e-24
8.2782e-24
-6.49107e-24
-1.51458e-23
-4.55615e-24
-1.82246e-23
-2.41633e-24
-1.4498e-23
1.29164e-24
-1.29164e-23
-4.17804e-24
-8.35609e-24
-3.03127e-24
-6.06254e-24
0
3.51497e-24
3.70566e-24
1.66755e-23
8.34401e-24
3.7548e-23
1.90482e-23
6.66689e-23
1.1037e-23
8.82961e-23
0
5.20216e-23
3.12218e-23
1.56109e-22
-3.82611e-23
7.65222e-23
0
-7.1995e-23
3.08998e-23
-1.23599e-22
4.08884e-23
2.86219e-22
1.66038e-22
-2.21383e-22
-7.50012e-23
-1.50002e-22
0
-1.92188e-22
-0
-0
-0
-0
-0
-0
-0
-0
-0
-0
-0
0
0
0
0
0
0
0
0
0
0
0
0
0
0
)
;
    }
    baffle_master
    {
        type            calculated;
        value           nonuniform List<scalar> 
150
(
-1.00179e-28
0
0
-2.03743e-28
0
-4.96962e-28
-5.14702e-28
0
-4.97002e-28
-1.88431e-29
0
2.48521e-28
1.46371e-28
0
9.32032e-29
9.94173e-29
0
-1.24281e-28
-1.26479e-28
0
2.48583e-28
-3.1969e-28
0
4.97207e-28
-1.55728e-28
0
0
8.02e-29
0
0
-1.42578e-28
0
4.97332e-28
-1.58966e-28
0
4.97374e-28
-2.1769e-29
0
0
-7.95637e-29
0
2.48729e-28
-1.83916e-29
0
0
-6.52106e-29
0
-1.24385e-28
-1.28866e-27
0
-4.9758e-28
-2.03552e-29
0
0
-1.24524e-27
0
-4.97662e-28
3.60893e-29
0
0
-5.22554e-29
0
-2.48873e-28
1.02644e-27
0
4.97787e-28
3.68641e-29
0
1.24457e-28
2.63585e-29
0
6.22334e-29
4.75155e-29
0
0
-4.96921e-28
5.31833e-28
-0
0
1.3203e-27
-0
-4.97002e-28
7.68925e-28
-0
-4.97043e-28
5.72018e-28
-0
3.10677e-29
-3.5844e-29
-0
1.24281e-28
-3.60342e-28
0
2.48583e-28
-8.68396e-28
0
0
-7.37423e-28
0
-9.94497e-28
-1.63422e-27
0
4.9729e-28
-8.20904e-28
0
4.97332e-28
-1.00521e-27
0
4.97374e-28
-1.28624e-27
0
0
-7.74373e-28
0
2.48729e-28
-3.6957e-28
0
6.21873e-29
-1.57448e-28
0
0
1.23225e-28
-0
7.4637e-28
3.55874e-28
-0
0
8.12543e-28
-0
4.97662e-28
1.6299e-29
-0
4.97704e-28
-3.89192e-28
-0
4.97745e-28
-3.24948e-28
-0
4.97787e-28
-8.5859e-28
-0
4.97827e-28
2.9363e-28
-0
-6.22334e-29
6.78978e-29
0
-2.48953e-28
3.89664e-28
0
)
;
    }
    baffle_slave
    {
        type            calculated;
        value           nonuniform List<scalar> 
150
(
8.23862e-24
-0
0
-3.06599e-24
-0
3.71521e-24
-5.92819e-25
-0
3.80739e-24
1.58982e-24
-0
-3.92733e-24
-1.30785e-23
-0
-1.22335e-23
-1.99099e-24
-0
0
1.11785e-24
-0
4.48782e-24
-2.66749e-24
-0
4.75975e-24
-3.1683e-25
-0
2.5441e-24
8.53962e-25
-0
2.74294e-24
1.85859e-24
-0
0
-2.04338e-25
0
-4.10224e-25
2.27217e-25
0
-3.64924e-24
-5.11705e-25
0
8.21809e-24
-2.33703e-24
0
9.38279e-24
4.06435e-24
0
0
-6.94909e-23
0
-2.56492e-23
-1.15155e-23
0
0
-8.24115e-23
0
-1.13372e-22
-1.47892e-23
0
-4.74596e-23
2.28903e-23
0
0
1.61896e-22
0
1.6223e-22
6.86687e-24
0
-1.10036e-22
9.33553e-24
0
-7.47483e-23
0
0
0
-1.06435e-23
2.92045e-23
0
-1.47221e-24
7.11542e-24
0
3.85467e-25
7.64736e-24
0
-4.6222e-24
8.62169e-24
0
1.14384e-24
-1.64433e-23
0
-2.13572e-24
7.43305e-24
0
-3.15476e-25
6.14819e-24
0
-2.99067e-24
5.92775e-24
0
4.95034e-24
8.87125e-24
0
-3.59511e-24
5.12377e-24
0
-1.05415e-24
4.97172e-24
0
2.84273e-26
3.627e-24
0
6.56876e-25
-6.24846e-25
0
7.98527e-24
-6.25914e-24
0
8.13828e-24
-1.06627e-23
0
1.59316e-24
-2.69263e-23
0
-4.79386e-23
-2.05677e-23
0
-5.43024e-24
-4.65419e-23
0
-8.2908e-23
-8.24115e-24
0
1.08999e-23
5.02834e-23
0
7.75751e-23
5.34106e-23
0
-3.27157e-22
1.366e-22
0
-3.25933e-22
-6.86687e-23
0
-1.12801e-22
3.73421e-23
0
-3.07711e-23
1.19971e-22
0
)
;
    }
}


// ************************************************************************* //
