/*--------------------------------*- C++ -*----------------------------------*\
| =========                 |                                                 |
| \\      /  F ield         | OpenFOAM: The Open Source CFD Toolbox           |
|  \\    /   O peration     | Version:  2212                                  |
|   \\  /    A nd           | Website:  www.openfoam.com                      |
|    \\/     M anipulation  |                                                 |
\*---------------------------------------------------------------------------*/
FoamFile
{
    version     2.0;
    format      ascii;
    arch        "LSB;label=32;scalar=64";
    class       volScalarField;
    location    "93/fluidRegion";
    object      k;
}
// * * * * * * * * * * * * * * * * * * * * * * * * * * * * * * * * * * * * * //

dimensions      [0 2 -2 0 0 0 0];

internalField   nonuniform List<scalar> 
350
(
0.421087
0.421019
0.420954
0.420889
0.420824
0.420758
0.42069
0.420621
0.420551
0.420483
0.420415
0.420351
0.42029
0.420235
0.420188
0.420155
0.420141
0.420158
0.420222
0.420357
0.420602
0.421013
0.42168
0.422734
0.424379
0.421087
0.421019
0.420954
0.420889
0.420824
0.420758
0.42069
0.420621
0.420551
0.420483
0.420415
0.420351
0.42029
0.420235
0.420188
0.420155
0.420141
0.420158
0.420222
0.420357
0.420602
0.421013
0.42168
0.422734
0.424379
406.917
384.31
358.602
330.302
300.197
269.063
237.649
206.655
176.718
148.403
122.184
98.4439
77.4544
59.3719
44.2279
31.9299
22.2726
14.9625
9.65022
5.9662
3.55025
2.07283
1.25017
0.853304
0.713257
412.641
389.769
363.756
335.102
304.604
273.051
241.203
209.769
179.398
150.662
124.046
99.9385
78.6192
60.2495
44.8643
32.3718
22.5647
15.1448
9.75647
6.02304
3.57745
2.08403
1.25394
0.854332
0.713645
405.969
383.404
357.75
329.513
299.474
268.412
237.071
206.15
176.286
148.039
121.886
98.2051
77.2687
59.2322
44.1267
31.8597
22.2261
14.9333
9.63301
5.95678
3.54553
2.07069
1.24929
0.852962
0.713125
411.384
388.568
362.619
334.04
303.627
272.165
240.411
209.073
178.798
150.155
123.627
99.6017
78.3561
60.0508
44.7199
32.2714
22.4983
15.1032
9.73226
6.01009
3.57126
2.0815
1.2531
0.854118
0.713569
411.384
388.568
362.619
334.04
303.627
272.165
240.411
209.073
178.798
150.155
123.627
99.6017
78.3561
60.0508
44.7199
32.2714
22.4983
15.1032
9.73226
6.01009
3.57127
2.0815
1.2531
0.854118
0.713569
405.97
383.405
357.751
329.513
299.475
268.412
237.071
206.15
176.286
148.039
121.886
98.2052
77.2688
59.2323
44.1268
31.8597
22.2262
14.9333
9.63302
5.95679
3.54553
2.07068
1.24929
0.85296
0.713124
412.641
389.769
363.756
335.102
304.604
273.051
241.202
209.769
179.398
150.662
124.046
99.9385
78.6192
60.2495
44.8643
32.3718
22.5647
15.1448
9.75647
6.02304
3.57745
2.08403
1.25394
0.854332
0.713644
406.917
384.31
358.602
330.302
300.197
269.063
237.649
206.655
176.718
148.403
122.184
98.4439
77.4544
59.3718
44.2279
31.9299
22.2726
14.9625
9.65023
5.9662
3.55025
2.07283
1.25017
0.853305
0.713258
411.384
388.568
362.619
334.04
303.627
272.165
240.411
209.073
178.798
150.155
123.627
99.6017
78.3561
60.0508
44.7199
32.2714
22.4983
15.1032
9.73226
6.01009
3.57127
2.0815
1.25311
0.854118
0.713569
405.969
383.404
357.75
329.513
299.474
268.412
237.071
206.15
176.286
148.039
121.886
98.2051
77.2687
59.2322
44.1267
31.8597
22.2261
14.9333
9.63301
5.95678
3.54552
2.07068
1.24929
0.852961
0.713125
405.97
383.405
357.751
329.513
299.475
268.412
237.071
206.15
176.286
148.039
121.886
98.2052
77.2688
59.2323
44.1268
31.8597
22.2262
14.9333
9.63302
5.95679
3.54553
2.07068
1.24929
0.85296
0.713124
411.384
388.568
362.619
334.04
303.627
272.165
240.411
209.073
178.798
150.155
123.627
99.6017
78.3561
60.0508
44.7199
32.2714
22.4983
15.1032
9.73226
6.01009
3.57127
2.0815
1.25311
0.854119
0.71357
)
;

boundaryField
{
    outletCentralUnloaded
    {
        type            zeroGradient;
    }
    inletCentralUnloaded
    {
        type            zeroGradient;
    }
    outletFuelElement
    {
        type            zeroGradient;
    }
    inletFuelElement
    {
        type            zeroGradient;
    }
    defaultFaces
    {
        type            zeroGradient;
    }
    baffle_master
    {
        type            zeroGradient;
    }
    baffle_slave
    {
        type            zeroGradient;
    }
}


// ************************************************************************* //
