/*--------------------------------*- C++ -*----------------------------------*\
| =========                 |                                                 |
| \\      /  F ield         | OpenFOAM: The Open Source CFD Toolbox           |
|  \\    /   O peration     | Version:  2212                                  |
|   \\  /    A nd           | Website:  www.openfoam.com                      |
|    \\/     M anipulation  |                                                 |
\*---------------------------------------------------------------------------*/
FoamFile
{
    version     2.0;
    format      ascii;
    arch        "LSB;label=32;scalar=64";
    class       volScalarField;
    location    "66/fluidRegion";
    object      alphat;
}
// * * * * * * * * * * * * * * * * * * * * * * * * * * * * * * * * * * * * * //

dimensions      [1 -1 -1 0 0 0 0];

internalField   nonuniform List<scalar> 
350
(
0.00258559
0.00258557
0.00258558
0.00258561
0.00258564
0.00258566
0.00258565
0.00258565
0.00258565
0.00258568
0.00258573
0.0025858
0.00258589
0.00258599
0.00258611
0.00258628
0.00258655
0.00258698
0.00258766
0.0025887
0.0025903
0.00259276
0.00259651
0.00260225
0.00261102
0.00258559
0.00258557
0.00258558
0.00258561
0.00258564
0.00258566
0.00258565
0.00258565
0.00258565
0.00258567
0.00258573
0.0025858
0.00258589
0.00258599
0.00258611
0.00258628
0.00258655
0.00258698
0.00258766
0.0025887
0.0025903
0.00259276
0.00259651
0.00260225
0.00261102
0.000895877
0.000884273
0.000872862
0.000861291
0.000849453
0.000837243
0.000824556
0.000811294
0.00079737
0.000782722
0.000767316
0.00075116
0.000734297
0.000716797
0.00069874
0.000680222
0.000661419
0.000642785
0.000625501
0.000612402
0.000609883
0.00063133
0.000699562
0.000832306
0.00100221
0.000888019
0.000876429
0.000865054
0.000853525
0.000841738
0.000829586
0.000816965
0.000803774
0.000789926
0.000775358
0.000760039
0.00074398
0.000727233
0.000709881
0.000692016
0.000673742
0.000655235
0.000636937
0.000620005
0.000607247
0.000605042
0.000626816
0.000695612
0.000829607
0.00100147
0.000897131
0.000885514
0.000874093
0.00086251
0.000850659
0.000838435
0.000825733
0.000812455
0.000798514
0.000783848
0.000768424
0.000752247
0.000735359
0.000717829
0.000699735
0.000681172
0.000662314
0.00064362
0.000626271
0.000613107
0.000610525
0.000631909
0.000700057
0.000832643
0.00100233
0.000889823
0.000878234
0.000866854
0.000855318
0.000843522
0.000831359
0.000818724
0.000805518
0.000791654
0.000777068
0.000761728
0.000745646
0.000728872
0.000711485
0.000693576
0.000675246
0.00065667
0.000638294
0.00062128
0.000608444
0.000606166
0.000627866
0.000696532
0.000830239
0.00100165
0.000889823
0.000878234
0.000866854
0.000855318
0.000843522
0.000831359
0.000818724
0.000805518
0.000791654
0.000777068
0.000761728
0.000745647
0.000728872
0.000711485
0.000693576
0.000675246
0.00065667
0.000638294
0.000621281
0.000608444
0.000606167
0.000627866
0.000696532
0.000830238
0.00100165
0.000897131
0.000885514
0.000874093
0.00086251
0.000850659
0.000838435
0.000825733
0.000812454
0.000798514
0.000783848
0.000768424
0.000752246
0.000735359
0.000717829
0.000699735
0.000681171
0.000662314
0.00064362
0.000626271
0.000613107
0.000610525
0.00063191
0.000700059
0.000832645
0.00100233
0.000888019
0.000876429
0.000865054
0.000853525
0.000841738
0.000829586
0.000816965
0.000803774
0.000789926
0.000775358
0.000760039
0.00074398
0.000727233
0.000709881
0.000692016
0.000673742
0.000655235
0.000636937
0.000620005
0.000607247
0.000605043
0.000626816
0.000695612
0.000829606
0.00100147
0.000895878
0.000884273
0.000872863
0.000861291
0.000849454
0.000837243
0.000824556
0.000811294
0.00079737
0.000782722
0.000767316
0.00075116
0.000734297
0.000716797
0.000698741
0.000680222
0.000661419
0.000642786
0.000625502
0.000612404
0.000609886
0.000631334
0.00069957
0.000832315
0.00100222
0.000889823
0.000878234
0.000866854
0.000855318
0.000843522
0.000831359
0.000818724
0.000805518
0.000791654
0.000777068
0.000761728
0.000745646
0.000728872
0.000711485
0.000693576
0.000675245
0.00065667
0.000638294
0.00062128
0.000608444
0.000606167
0.000627867
0.000696534
0.000830242
0.00100165
0.000897132
0.000885514
0.000874093
0.00086251
0.000850659
0.000838435
0.000825733
0.000812455
0.000798514
0.000783848
0.000768424
0.000752247
0.000735359
0.000717829
0.000699735
0.000681171
0.000662313
0.000643618
0.000626269
0.000613104
0.000610519
0.0006319
0.000700043
0.000832625
0.00100231
0.000897131
0.000885514
0.000874093
0.00086251
0.000850659
0.000838435
0.000825733
0.000812455
0.000798514
0.000783848
0.000768424
0.000752247
0.000735359
0.000717829
0.000699735
0.000681172
0.000662314
0.00064362
0.000626271
0.000613108
0.000610526
0.000631911
0.000700059
0.000832642
0.00100233
0.000889824
0.000878234
0.000866854
0.000855318
0.000843522
0.000831359
0.000818724
0.000805518
0.000791654
0.000777068
0.000761729
0.000745647
0.000728873
0.000711486
0.000693576
0.000675246
0.000656671
0.000638295
0.000621282
0.000608447
0.000606171
0.000627873
0.000696544
0.000830254
0.00100166
)
;

boundaryField
{
    outletCentralUnloaded
    {
        type            zeroGradient;
    }
    inletCentralUnloaded
    {
        type            zeroGradient;
    }
    outletFuelElement
    {
        type            zeroGradient;
    }
    inletFuelElement
    {
        type            zeroGradient;
    }
    defaultFaces
    {
        type            zeroGradient;
    }
    baffle_master
    {
        type            calculated;
        value           nonuniform List<scalar> 
150
(
0.00258559
0.00258559
0.00258559
0.00258557
0.00258557
0.00258557
0.00258558
0.00258558
0.00258558
0.00258561
0.00258561
0.00258561
0.00258564
0.00258564
0.00258564
0.00258566
0.00258566
0.00258566
0.00258565
0.00258565
0.00258565
0.00258565
0.00258565
0.00258565
0.00258565
0.00258565
0.00258565
0.00258568
0.00258568
0.00258568
0.00258573
0.00258573
0.00258573
0.0025858
0.0025858
0.0025858
0.00258589
0.00258589
0.00258589
0.00258599
0.00258599
0.00258599
0.00258611
0.00258611
0.00258611
0.00258628
0.00258628
0.00258628
0.00258655
0.00258655
0.00258655
0.00258698
0.00258698
0.00258698
0.00258766
0.00258766
0.00258766
0.0025887
0.0025887
0.0025887
0.0025903
0.0025903
0.0025903
0.00259276
0.00259276
0.00259276
0.00259651
0.00259651
0.00259651
0.00260225
0.00260225
0.00260225
0.00261102
0.00261102
0.00261102
0.00258559
0.00258559
0.00258559
0.00258557
0.00258557
0.00258557
0.00258558
0.00258558
0.00258558
0.00258561
0.00258561
0.00258561
0.00258564
0.00258564
0.00258564
0.00258566
0.00258566
0.00258566
0.00258565
0.00258565
0.00258565
0.00258565
0.00258565
0.00258565
0.00258565
0.00258565
0.00258565
0.00258567
0.00258567
0.00258567
0.00258573
0.00258573
0.00258573
0.0025858
0.0025858
0.0025858
0.00258589
0.00258589
0.00258589
0.00258599
0.00258599
0.00258599
0.00258611
0.00258611
0.00258611
0.00258628
0.00258628
0.00258628
0.00258655
0.00258655
0.00258655
0.00258698
0.00258698
0.00258698
0.00258766
0.00258766
0.00258766
0.0025887
0.0025887
0.0025887
0.0025903
0.0025903
0.0025903
0.00259276
0.00259276
0.00259276
0.00259651
0.00259651
0.00259651
0.00260225
0.00260225
0.00260225
0.00261102
0.00261102
0.00261102
)
;
    }
    baffle_slave
    {
        type            calculated;
        value           nonuniform List<scalar> 
150
(
0.000888019
0.000889823
0.000889824
0.000876429
0.000878234
0.000878234
0.000865054
0.000866854
0.000866854
0.000853525
0.000855318
0.000855318
0.000841738
0.000843522
0.000843522
0.000829586
0.000831359
0.000831359
0.000816965
0.000818724
0.000818724
0.000803774
0.000805518
0.000805518
0.000789926
0.000791654
0.000791654
0.000775358
0.000777068
0.000777068
0.000760039
0.000761728
0.000761729
0.00074398
0.000745646
0.000745647
0.000727233
0.000728872
0.000728873
0.000709881
0.000711485
0.000711486
0.000692016
0.000693576
0.000693576
0.000673742
0.000675246
0.000675246
0.000655235
0.00065667
0.000656671
0.000636937
0.000638294
0.000638295
0.000620005
0.00062128
0.000621282
0.000607247
0.000608444
0.000608447
0.000605042
0.000606166
0.000606171
0.000626816
0.000627866
0.000627873
0.000695612
0.000696532
0.000696544
0.000829607
0.000830239
0.000830254
0.00100147
0.00100165
0.00100166
0.000889823
0.000888019
0.000889823
0.000878234
0.000876429
0.000878234
0.000866854
0.000865054
0.000866854
0.000855318
0.000853525
0.000855318
0.000843522
0.000841738
0.000843522
0.000831359
0.000829586
0.000831359
0.000818724
0.000816965
0.000818724
0.000805518
0.000803774
0.000805518
0.000791654
0.000789926
0.000791654
0.000777068
0.000775358
0.000777068
0.000761728
0.000760039
0.000761728
0.000745647
0.00074398
0.000745646
0.000728872
0.000727233
0.000728872
0.000711485
0.000709881
0.000711485
0.000693576
0.000692016
0.000693576
0.000675246
0.000673742
0.000675245
0.00065667
0.000655235
0.00065667
0.000638294
0.000636937
0.000638294
0.000621281
0.000620005
0.00062128
0.000608444
0.000607247
0.000608444
0.000606167
0.000605043
0.000606167
0.000627866
0.000626816
0.000627867
0.000696532
0.000695612
0.000696534
0.000830238
0.000829606
0.000830242
0.00100165
0.00100147
0.00100165
)
;
    }
}


// ************************************************************************* //
