/*--------------------------------*- C++ -*----------------------------------*\
| =========                 |                                                 |
| \\      /  F ield         | OpenFOAM: The Open Source CFD Toolbox           |
|  \\    /   O peration     | Version:  2212                                  |
|   \\  /    A nd           | Website:  www.openfoam.com                      |
|    \\/     M anipulation  |                                                 |
\*---------------------------------------------------------------------------*/
FoamFile
{
    version     2.0;
    format      ascii;
    arch        "LSB;label=32;scalar=64";
    class       volScalarField;
    location    "66/fluidRegion";
    object      epsilon;
}
// * * * * * * * * * * * * * * * * * * * * * * * * * * * * * * * * * * * * * //

dimensions      [0 2 -3 0 0 0 0];

internalField   nonuniform List<scalar> 
350
(
66.9848
66.9687
66.9527
66.9365
66.9201
66.9036
66.8869
66.8703
66.8537
66.8374
66.8214
66.8059
66.7912
66.7777
66.7658
66.7564
66.7505
66.7502
66.7583
66.7796
66.8211
66.8935
67.0132
67.2049
67.5063
66.9848
66.9687
66.9527
66.9365
66.9201
66.9036
66.8869
66.8703
66.8537
66.8374
66.8214
66.8059
66.7912
66.7777
66.7658
66.7564
66.7505
66.7502
66.7583
66.7796
66.8211
66.8935
67.0132
67.2049
67.5063
7.65487e+06
7.0443e+06
6.36851e+06
5.64873e+06
4.91281e+06
4.18631e+06
3.49138e+06
2.84606e+06
2.26386e+06
1.75362e+06
1.31966e+06
962117
677455
459113
298336
185112
109163
60857.4
31885.4
15618.7
7152.2
3117.56
1385.81
735.661
547.112
7.82062e+06
7.19828e+06
6.50938e+06
5.77504e+06
5.02379e+06
4.28179e+06
3.57172e+06
2.91207e+06
2.3167e+06
1.79473e+06
1.35065e+06
984656
693197
469618
304996
189098
111399
62021.3
32440.8
15857.2
7241.84
3145.93
1392.99
737.106
547.535
7.62776e+06
7.01904e+06
6.34551e+06
5.62818e+06
4.89482e+06
4.17089e+06
3.47846e+06
2.83549e+06
2.25542e+06
1.74707e+06
1.31474e+06
958555
674974
457461
297290
184486
108812
60673.3
31796.7
15579.9
7136.98
3112.29
1384.17
735.171
546.936
7.78391e+06
7.16411e+06
6.47803e+06
5.74686e+06
4.99898e+06
4.26039e+06
3.55368e+06
2.89721e+06
2.30478e+06
1.78544e+06
1.34363e+06
979541
689617
467225
303476
188187
110887
61754.9
32313.7
15802.7
7221.4
3139.5
1391.4
736.806
547.455
7.78391e+06
7.16411e+06
6.47803e+06
5.74686e+06
4.99898e+06
4.26039e+06
3.55368e+06
2.89721e+06
2.30478e+06
1.78544e+06
1.34363e+06
979541
689617
467225
303476
188187
110887
61754.9
32313.7
15802.7
7221.4
3139.5
1391.4
736.806
547.455
7.62777e+06
7.01905e+06
6.34552e+06
5.62819e+06
4.89483e+06
4.1709e+06
3.47846e+06
2.83549e+06
2.25543e+06
1.74708e+06
1.31475e+06
958557
674975
457461
297291
184487
108812
60673.4
31796.7
15579.8
7136.96
3112.28
1384.17
735.167
546.934
7.82062e+06
7.19828e+06
6.50938e+06
5.77503e+06
5.02379e+06
4.28179e+06
3.57172e+06
2.91207e+06
2.3167e+06
1.79473e+06
1.35065e+06
984656
693197
469618
304996
189098
111399
62021.3
32440.8
15857.2
7241.84
3145.93
1392.99
737.106
547.535
7.65487e+06
7.0443e+06
6.36851e+06
5.64873e+06
4.91281e+06
4.18631e+06
3.49138e+06
2.84606e+06
2.26386e+06
1.75362e+06
1.31966e+06
962117
677455
459113
298336
185112
109163
60857.4
31885.4
15618.7
7152.2
3117.55
1385.8
735.659
547.11
7.78391e+06
7.16411e+06
6.47803e+06
5.74686e+06
4.99898e+06
4.26039e+06
3.55368e+06
2.89721e+06
2.30478e+06
1.78544e+06
1.34363e+06
979541
689617
467225
303476
188187
110887
61754.9
32313.7
15802.7
7221.4
3139.5
1391.4
736.806
547.455
7.62776e+06
7.01904e+06
6.34551e+06
5.62818e+06
4.89482e+06
4.17089e+06
3.47846e+06
2.83549e+06
2.25542e+06
1.74708e+06
1.31474e+06
958555
674974
457461
297290
184486
108812
60673.4
31796.7
15579.9
7136.99
3112.3
1384.18
735.178
546.941
7.62777e+06
7.01905e+06
6.34552e+06
5.62819e+06
4.89483e+06
4.1709e+06
3.47846e+06
2.83549e+06
2.25543e+06
1.74708e+06
1.31475e+06
958557
674975
457461
297291
184486
108812
60673.4
31796.7
15579.8
7136.96
3112.28
1384.17
735.168
546.935
7.78391e+06
7.16411e+06
6.47803e+06
5.74686e+06
4.99898e+06
4.26039e+06
3.55368e+06
2.89721e+06
2.30478e+06
1.78544e+06
1.34363e+06
979541
689617
467225
303476
188187
110887
61754.9
32313.7
15802.6
7221.38
3139.49
1391.39
736.802
547.453
)
;

boundaryField
{
    outletCentralUnloaded
    {
        type            zeroGradient;
    }
    inletCentralUnloaded
    {
        type            zeroGradient;
    }
    outletFuelElement
    {
        type            zeroGradient;
    }
    inletFuelElement
    {
        type            zeroGradient;
    }
    defaultFaces
    {
        type            zeroGradient;
    }
    baffle_master
    {
        type            zeroGradient;
    }
    baffle_slave
    {
        type            zeroGradient;
    }
}


// ************************************************************************* //
