/*--------------------------------*- C++ -*----------------------------------*\
| =========                 |                                                 |
| \\      /  F ield         | OpenFOAM: The Open Source CFD Toolbox           |
|  \\    /   O peration     | Version:  2212                                  |
|   \\  /    A nd           | Website:  www.openfoam.com                      |
|    \\/     M anipulation  |                                                 |
\*---------------------------------------------------------------------------*/
FoamFile
{
    version     2.0;
    format      ascii;
    arch        "LSB;label=32;scalar=64";
    class       volScalarField;
    location    "66/fluidRegion";
    object      htc;
}
// * * * * * * * * * * * * * * * * * * * * * * * * * * * * * * * * * * * * * //

dimensions      [1 0 -3 -1 0 0 0];

internalField   nonuniform List<scalar> 
350
(
3101.79
3101.72
3101.6
3101.46
3101.33
3101.24
3101.21
3101.21
3101.23
3101.27
3101.3
3101.34
3101.39
3101.46
3101.56
3101.69
3101.82
3101.95
3102.06
3102.12
3102.13
3102.09
3102.02
3101.94
3106.98
3101.79
3101.72
3101.6
3101.46
3101.33
3101.24
3101.21
3101.21
3101.23
3101.27
3101.3
3101.34
3101.39
3101.46
3101.56
3101.69
3101.82
3101.95
3102.06
3102.12
3102.13
3102.09
3102.02
3101.94
3106.98
27257.4
27175.8
26988.5
26676.1
26240
25682.6
25006.5
24215.7
23315.4
22312.6
21217
20041
18799.7
17510
16188.4
14848.8
13501.5
12154.6
10817.4
9505.75
8247.88
7090.3
6104.2
5383.43
4944.17
27346.4
27264.5
27077.7
26765.3
26328.8
25770.3
25092.6
24299.5
23395.9
22388.8
21287.5
20104.5
18855.1
17556.8
16226.6
14879.3
13525.5
12173.3
10831.4
9515.32
8252.87
7090.81
6101.16
5379.18
4942.2
27243.3
27161.4
26974
26661.6
26225.7
25668.4
24992.7
24202.3
23302.5
22300.5
21205.8
20030.9
18790.9
17502.6
16182.2
14843.8
13497.4
12151.3
10814.7
9503.73
8246.48
7089.47
6103.78
5383.17
4944.02
27326.6
27244.8
27057.9
26745.5
26309
25750.7
25073.4
24280.7
23377.8
22371.6
21271.6
20090.1
18842.6
17546.2
16218
14872.4
13520.1
12169.1
10828.3
9513.22
8251.82
7090.79
6101.97
5380.28
4942.72
27326.6
27244.8
27057.9
26745.5
26309
25750.7
25073.4
24280.7
23377.8
22371.6
21271.6
20090.1
18842.6
17546.2
16218
14872.4
13520.1
12169.1
10828.3
9513.22
8251.82
7090.79
6101.97
5380.28
4942.72
27243.4
27161.4
26974
26661.6
26225.7
25668.4
24992.7
24202.3
23302.5
22300.5
21205.8
20030.9
18790.9
17502.6
16182.2
14843.8
13497.4
12151.3
10814.7
9503.73
8246.47
7089.46
6103.77
5383.16
4944.02
27346.4
27264.5
27077.7
26765.3
26328.8
25770.3
25092.6
24299.5
23395.9
22388.8
21287.5
20104.5
18855.1
17556.8
16226.6
14879.3
13525.5
12173.3
10831.4
9515.32
8252.87
7090.81
6101.16
5379.18
4942.2
27257.4
27175.8
26988.5
26676.1
26240
25682.6
25006.5
24215.7
23315.4
22312.6
21217
20041
18799.7
17510
16188.4
14848.8
13501.5
12154.6
10817.4
9505.75
8247.88
7090.3
6104.2
5383.43
4944.17
27326.6
27244.8
27057.9
26745.5
26309
25750.7
25073.4
24280.7
23377.8
22371.6
21271.6
20090.1
18842.6
17546.2
16218
14872.4
13520.1
12169.1
10828.3
9513.22
8251.82
7090.79
6101.97
5380.28
4942.72
27243.3
27161.4
26974
26661.6
26225.7
25668.4
24992.7
24202.3
23302.5
22300.5
21205.8
20030.9
18790.9
17502.6
16182.2
14843.8
13497.4
12151.3
10814.7
9503.73
8246.47
7089.46
6103.78
5383.17
4944.02
27243.4
27161.4
26974
26661.6
26225.7
25668.4
24992.7
24202.3
23302.5
22300.5
21205.8
20030.9
18790.9
17502.6
16182.2
14843.8
13497.4
12151.3
10814.7
9503.73
8246.47
7089.46
6103.77
5383.16
4944.02
27326.6
27244.8
27057.9
26745.5
26309
25750.7
25073.4
24280.7
23377.8
22371.6
21271.6
20090.1
18842.6
17546.2
16218
14872.4
13520.1
12169.1
10828.3
9513.22
8251.82
7090.79
6101.97
5380.28
4942.72
)
;

boundaryField
{
    outletCentralUnloaded
    {
        type            zeroGradient;
    }
    inletCentralUnloaded
    {
        type            zeroGradient;
    }
    outletFuelElement
    {
        type            zeroGradient;
    }
    inletFuelElement
    {
        type            zeroGradient;
    }
    defaultFaces
    {
        type            zeroGradient;
    }
    baffle_master
    {
        type            zeroGradient;
    }
    baffle_slave
    {
        type            zeroGradient;
    }
}


// ************************************************************************* //
