/*--------------------------------*- C++ -*----------------------------------*\
| =========                 |                                                 |
| \\      /  F ield         | OpenFOAM: The Open Source CFD Toolbox           |
|  \\    /   O peration     | Version:  2212                                  |
|   \\  /    A nd           | Website:  www.openfoam.com                      |
|    \\/     M anipulation  |                                                 |
\*---------------------------------------------------------------------------*/
FoamFile
{
    version     2.0;
    format      ascii;
    arch        "LSB;label=32;scalar=64";
    class       volTensorField;
    location    "66/fluidRegion";
    object      Kd;
}
// * * * * * * * * * * * * * * * * * * * * * * * * * * * * * * * * * * * * * //

dimensions      [1 -3 -1 0 0 0 0];

internalField   nonuniform List<tensor> 
350
(
(84.7525 0 0 0 84.7525 0 0 0 84.7525)
(84.7504 0 0 0 84.7504 0 0 0 84.7504)
(84.7468 0 0 0 84.7468 0 0 0 84.7468)
(84.7427 0 0 0 84.7427 0 0 0 84.7427)
(84.739 0 0 0 84.739 0 0 0 84.739)
(84.7364 0 0 0 84.7364 0 0 0 84.7364)
(84.735 0 0 0 84.735 0 0 0 84.735)
(84.7346 0 0 0 84.7346 0 0 0 84.7346)
(84.7348 0 0 0 84.7348 0 0 0 84.7348)
(84.7353 0 0 0 84.7353 0 0 0 84.7353)
(84.7357 0 0 0 84.7357 0 0 0 84.7357)
(84.7363 0 0 0 84.7363 0 0 0 84.7363)
(84.7371 0 0 0 84.7371 0 0 0 84.7371)
(84.7386 0 0 0 84.7386 0 0 0 84.7386)
(84.7407 0 0 0 84.7407 0 0 0 84.7407)
(84.7435 0 0 0 84.7435 0 0 0 84.7435)
(84.7466 0 0 0 84.7466 0 0 0 84.7466)
(84.7495 0 0 0 84.7495 0 0 0 84.7495)
(84.7517 0 0 0 84.7517 0 0 0 84.7517)
(84.7528 0 0 0 84.7528 0 0 0 84.7528)
(84.7527 0 0 0 84.7527 0 0 0 84.7527)
(84.7515 0 0 0 84.7515 0 0 0 84.7515)
(84.7493 0 0 0 84.7493 0 0 0 84.7493)
(84.7466 0 0 0 84.7466 0 0 0 84.7466)
(84.8754 0 0 0 84.8754 0 0 0 84.8754)
(84.7525 0 0 0 84.7525 0 0 0 84.7525)
(84.7504 0 0 0 84.7504 0 0 0 84.7504)
(84.7468 0 0 0 84.7468 0 0 0 84.7468)
(84.7427 0 0 0 84.7427 0 0 0 84.7427)
(84.739 0 0 0 84.739 0 0 0 84.739)
(84.7364 0 0 0 84.7364 0 0 0 84.7364)
(84.735 0 0 0 84.735 0 0 0 84.735)
(84.7346 0 0 0 84.7346 0 0 0 84.7346)
(84.7348 0 0 0 84.7348 0 0 0 84.7348)
(84.7353 0 0 0 84.7353 0 0 0 84.7353)
(84.7357 0 0 0 84.7357 0 0 0 84.7357)
(84.7363 0 0 0 84.7363 0 0 0 84.7363)
(84.7371 0 0 0 84.7371 0 0 0 84.7371)
(84.7386 0 0 0 84.7386 0 0 0 84.7386)
(84.7407 0 0 0 84.7407 0 0 0 84.7407)
(84.7435 0 0 0 84.7435 0 0 0 84.7435)
(84.7466 0 0 0 84.7466 0 0 0 84.7466)
(84.7495 0 0 0 84.7495 0 0 0 84.7495)
(84.7517 0 0 0 84.7517 0 0 0 84.7517)
(84.7528 0 0 0 84.7528 0 0 0 84.7528)
(84.7527 0 0 0 84.7527 0 0 0 84.7527)
(84.7515 0 0 0 84.7515 0 0 0 84.7515)
(84.7493 0 0 0 84.7493 0 0 0 84.7493)
(84.7466 0 0 0 84.7466 0 0 0 84.7466)
(84.8754 0 0 0 84.8754 0 0 0 84.8754)
(682.653 0 0 0 682.653 0 0 0 682.653)
(682.199 0 0 0 682.199 0 0 0 682.199)
(682.211 0 0 0 682.211 0 0 0 682.211)
(682.213 0 0 0 682.213 0 0 0 682.213)
(682.203 0 0 0 682.203 0 0 0 682.203)
(682.181 0 0 0 682.181 0 0 0 682.181)
(682.145 0 0 0 682.145 0 0 0 682.145)
(682.093 0 0 0 682.093 0 0 0 682.093)
(682.024 0 0 0 682.024 0 0 0 682.024)
(681.935 0 0 0 681.935 0 0 0 681.935)
(681.825 0 0 0 681.825 0 0 0 681.825)
(681.693 0 0 0 681.693 0 0 0 681.693)
(681.541 0 0 0 681.541 0 0 0 681.541)
(681.368 0 0 0 681.368 0 0 0 681.368)
(681.171 0 0 0 681.171 0 0 0 681.171)
(680.942 0 0 0 680.942 0 0 0 680.942)
(680.663 0 0 0 680.663 0 0 0 680.663)
(680.315 0 0 0 680.315 0 0 0 680.315)
(679.893 0 0 0 679.893 0 0 0 679.893)
(679.45 0 0 0 679.45 0 0 0 679.45)
(679.166 0 0 0 679.166 0 0 0 679.166)
(679.592 0 0 0 679.592 0 0 0 679.592)
(682.061 0 0 0 682.061 0 0 0 682.061)
(688.944 0 0 0 688.944 0 0 0 688.944)
(693.462 0 0 0 693.462 0 0 0 693.462)
(678.112 0 0 0 678.112 0 0 0 678.112)
(677.587 0 0 0 677.587 0 0 0 677.587)
(677.56 0 0 0 677.56 0 0 0 677.56)
(677.523 0 0 0 677.523 0 0 0 677.523)
(677.478 0 0 0 677.478 0 0 0 677.478)
(677.423 0 0 0 677.423 0 0 0 677.423)
(677.356 0 0 0 677.356 0 0 0 677.356)
(677.276 0 0 0 677.276 0 0 0 677.276)
(677.179 0 0 0 677.179 0 0 0 677.179)
(677.066 0 0 0 677.066 0 0 0 677.066)
(676.936 0 0 0 676.936 0 0 0 676.936)
(676.793 0 0 0 676.793 0 0 0 676.793)
(676.643 0 0 0 676.643 0 0 0 676.643)
(676.496 0 0 0 676.496 0 0 0 676.496)
(676.359 0 0 0 676.359 0 0 0 676.359)
(676.232 0 0 0 676.232 0 0 0 676.232)
(676.104 0 0 0 676.104 0 0 0 676.104)
(675.957 0 0 0 675.957 0 0 0 675.957)
(675.786 0 0 0 675.786 0 0 0 675.786)
(675.647 0 0 0 675.647 0 0 0 675.647)
(675.736 0 0 0 675.736 0 0 0 675.736)
(676.634 0 0 0 676.634 0 0 0 676.634)
(679.731 0 0 0 679.731 0 0 0 679.731)
(687.454 0 0 0 687.454 0 0 0 687.454)
(692.977 0 0 0 692.977 0 0 0 692.977)
(683.411 0 0 0 683.411 0 0 0 683.411)
(682.954 0 0 0 682.954 0 0 0 682.954)
(682.969 0 0 0 682.969 0 0 0 682.969)
(682.974 0 0 0 682.974 0 0 0 682.974)
(682.967 0 0 0 682.967 0 0 0 682.967)
(682.947 0 0 0 682.947 0 0 0 682.947)
(682.912 0 0 0 682.912 0 0 0 682.912)
(682.861 0 0 0 682.861 0 0 0 682.861)
(682.792 0 0 0 682.792 0 0 0 682.792)
(682.703 0 0 0 682.703 0 0 0 682.703)
(682.591 0 0 0 682.591 0 0 0 682.591)
(682.456 0 0 0 682.456 0 0 0 682.456)
(682.298 0 0 0 682.298 0 0 0 682.298)
(682.115 0 0 0 682.115 0 0 0 682.115)
(681.902 0 0 0 681.902 0 0 0 681.902)
(681.648 0 0 0 681.648 0 0 0 681.648)
(681.337 0 0 0 681.337 0 0 0 681.337)
(680.949 0 0 0 680.949 0 0 0 680.949)
(680.478 0 0 0 680.478 0 0 0 680.478)
(679.976 0 0 0 679.976 0 0 0 679.976)
(679.619 0 0 0 679.619 0 0 0 679.619)
(679.955 0 0 0 679.955 0 0 0 679.955)
(682.309 0 0 0 682.309 0 0 0 682.309)
(689.056 0 0 0 689.056 0 0 0 689.056)
(693.479 0 0 0 693.479 0 0 0 693.479)
(679.128 0 0 0 679.128 0 0 0 679.128)
(678.624 0 0 0 678.624 0 0 0 678.624)
(678.607 0 0 0 678.607 0 0 0 678.607)
(678.581 0 0 0 678.581 0 0 0 678.581)
(678.546 0 0 0 678.546 0 0 0 678.546)
(678.501 0 0 0 678.501 0 0 0 678.501)
(678.443 0 0 0 678.443 0 0 0 678.443)
(678.37 0 0 0 678.37 0 0 0 678.37)
(678.282 0 0 0 678.282 0 0 0 678.282)
(678.176 0 0 0 678.176 0 0 0 678.176)
(678.052 0 0 0 678.052 0 0 0 678.052)
(677.913 0 0 0 677.913 0 0 0 677.913)
(677.765 0 0 0 677.765 0 0 0 677.765)
(677.614 0 0 0 677.614 0 0 0 677.614)
(677.465 0 0 0 677.465 0 0 0 677.465)
(677.316 0 0 0 677.316 0 0 0 677.316)
(677.155 0 0 0 677.155 0 0 0 677.155)
(676.964 0 0 0 676.964 0 0 0 676.964)
(676.737 0 0 0 676.737 0 0 0 676.737)
(676.53 0 0 0 676.53 0 0 0 676.53)
(676.534 0 0 0 676.534 0 0 0 676.534)
(677.326 0 0 0 677.326 0 0 0 677.326)
(680.281 0 0 0 680.281 0 0 0 680.281)
(687.813 0 0 0 687.813 0 0 0 687.813)
(693.097 0 0 0 693.097 0 0 0 693.097)
(679.128 0 0 0 679.128 0 0 0 679.128)
(678.624 0 0 0 678.624 0 0 0 678.624)
(678.607 0 0 0 678.607 0 0 0 678.607)
(678.581 0 0 0 678.581 0 0 0 678.581)
(678.546 0 0 0 678.546 0 0 0 678.546)
(678.501 0 0 0 678.501 0 0 0 678.501)
(678.443 0 0 0 678.443 0 0 0 678.443)
(678.37 0 0 0 678.37 0 0 0 678.37)
(678.282 0 0 0 678.282 0 0 0 678.282)
(678.176 0 0 0 678.176 0 0 0 678.176)
(678.052 0 0 0 678.052 0 0 0 678.052)
(677.913 0 0 0 677.913 0 0 0 677.913)
(677.765 0 0 0 677.765 0 0 0 677.765)
(677.614 0 0 0 677.614 0 0 0 677.614)
(677.465 0 0 0 677.465 0 0 0 677.465)
(677.316 0 0 0 677.316 0 0 0 677.316)
(677.155 0 0 0 677.155 0 0 0 677.155)
(676.964 0 0 0 676.964 0 0 0 676.964)
(676.736 0 0 0 676.736 0 0 0 676.736)
(676.53 0 0 0 676.53 0 0 0 676.53)
(676.534 0 0 0 676.534 0 0 0 676.534)
(677.326 0 0 0 677.326 0 0 0 677.326)
(680.281 0 0 0 680.281 0 0 0 680.281)
(687.813 0 0 0 687.813 0 0 0 687.813)
(693.097 0 0 0 693.097 0 0 0 693.097)
(683.411 0 0 0 683.411 0 0 0 683.411)
(682.954 0 0 0 682.954 0 0 0 682.954)
(682.969 0 0 0 682.969 0 0 0 682.969)
(682.974 0 0 0 682.974 0 0 0 682.974)
(682.967 0 0 0 682.967 0 0 0 682.967)
(682.946 0 0 0 682.946 0 0 0 682.946)
(682.912 0 0 0 682.912 0 0 0 682.912)
(682.861 0 0 0 682.861 0 0 0 682.861)
(682.792 0 0 0 682.792 0 0 0 682.792)
(682.702 0 0 0 682.702 0 0 0 682.702)
(682.591 0 0 0 682.591 0 0 0 682.591)
(682.456 0 0 0 682.456 0 0 0 682.456)
(682.298 0 0 0 682.298 0 0 0 682.298)
(682.114 0 0 0 682.114 0 0 0 682.114)
(681.901 0 0 0 681.901 0 0 0 681.901)
(681.648 0 0 0 681.648 0 0 0 681.648)
(681.336 0 0 0 681.336 0 0 0 681.336)
(680.949 0 0 0 680.949 0 0 0 680.949)
(680.477 0 0 0 680.477 0 0 0 680.477)
(679.975 0 0 0 679.975 0 0 0 679.975)
(679.618 0 0 0 679.618 0 0 0 679.618)
(679.953 0 0 0 679.953 0 0 0 679.953)
(682.307 0 0 0 682.307 0 0 0 682.307)
(689.055 0 0 0 689.055 0 0 0 689.055)
(693.478 0 0 0 693.478 0 0 0 693.478)
(678.112 0 0 0 678.112 0 0 0 678.112)
(677.587 0 0 0 677.587 0 0 0 677.587)
(677.56 0 0 0 677.56 0 0 0 677.56)
(677.523 0 0 0 677.523 0 0 0 677.523)
(677.478 0 0 0 677.478 0 0 0 677.478)
(677.423 0 0 0 677.423 0 0 0 677.423)
(677.356 0 0 0 677.356 0 0 0 677.356)
(677.276 0 0 0 677.276 0 0 0 677.276)
(677.179 0 0 0 677.179 0 0 0 677.179)
(677.066 0 0 0 677.066 0 0 0 677.066)
(676.936 0 0 0 676.936 0 0 0 676.936)
(676.793 0 0 0 676.793 0 0 0 676.793)
(676.643 0 0 0 676.643 0 0 0 676.643)
(676.496 0 0 0 676.496 0 0 0 676.496)
(676.359 0 0 0 676.359 0 0 0 676.359)
(676.232 0 0 0 676.232 0 0 0 676.232)
(676.104 0 0 0 676.104 0 0 0 676.104)
(675.957 0 0 0 675.957 0 0 0 675.957)
(675.786 0 0 0 675.786 0 0 0 675.786)
(675.647 0 0 0 675.647 0 0 0 675.647)
(675.736 0 0 0 675.736 0 0 0 675.736)
(676.634 0 0 0 676.634 0 0 0 676.634)
(679.731 0 0 0 679.731 0 0 0 679.731)
(687.454 0 0 0 687.454 0 0 0 687.454)
(692.977 0 0 0 692.977 0 0 0 692.977)
(682.653 0 0 0 682.653 0 0 0 682.653)
(682.199 0 0 0 682.199 0 0 0 682.199)
(682.211 0 0 0 682.211 0 0 0 682.211)
(682.213 0 0 0 682.213 0 0 0 682.213)
(682.203 0 0 0 682.203 0 0 0 682.203)
(682.181 0 0 0 682.181 0 0 0 682.181)
(682.145 0 0 0 682.145 0 0 0 682.145)
(682.093 0 0 0 682.093 0 0 0 682.093)
(682.024 0 0 0 682.024 0 0 0 682.024)
(681.935 0 0 0 681.935 0 0 0 681.935)
(681.825 0 0 0 681.825 0 0 0 681.825)
(681.693 0 0 0 681.693 0 0 0 681.693)
(681.541 0 0 0 681.541 0 0 0 681.541)
(681.368 0 0 0 681.368 0 0 0 681.368)
(681.171 0 0 0 681.171 0 0 0 681.171)
(680.942 0 0 0 680.942 0 0 0 680.942)
(680.663 0 0 0 680.663 0 0 0 680.663)
(680.315 0 0 0 680.315 0 0 0 680.315)
(679.893 0 0 0 679.893 0 0 0 679.893)
(679.45 0 0 0 679.45 0 0 0 679.45)
(679.166 0 0 0 679.166 0 0 0 679.166)
(679.592 0 0 0 679.592 0 0 0 679.592)
(682.061 0 0 0 682.061 0 0 0 682.061)
(688.944 0 0 0 688.944 0 0 0 688.944)
(693.462 0 0 0 693.462 0 0 0 693.462)
(679.128 0 0 0 679.128 0 0 0 679.128)
(678.624 0 0 0 678.624 0 0 0 678.624)
(678.607 0 0 0 678.607 0 0 0 678.607)
(678.581 0 0 0 678.581 0 0 0 678.581)
(678.546 0 0 0 678.546 0 0 0 678.546)
(678.501 0 0 0 678.501 0 0 0 678.501)
(678.443 0 0 0 678.443 0 0 0 678.443)
(678.37 0 0 0 678.37 0 0 0 678.37)
(678.282 0 0 0 678.282 0 0 0 678.282)
(678.176 0 0 0 678.176 0 0 0 678.176)
(678.052 0 0 0 678.052 0 0 0 678.052)
(677.913 0 0 0 677.913 0 0 0 677.913)
(677.765 0 0 0 677.765 0 0 0 677.765)
(677.614 0 0 0 677.614 0 0 0 677.614)
(677.465 0 0 0 677.465 0 0 0 677.465)
(677.316 0 0 0 677.316 0 0 0 677.316)
(677.155 0 0 0 677.155 0 0 0 677.155)
(676.964 0 0 0 676.964 0 0 0 676.964)
(676.736 0 0 0 676.736 0 0 0 676.736)
(676.53 0 0 0 676.53 0 0 0 676.53)
(676.534 0 0 0 676.534 0 0 0 676.534)
(677.326 0 0 0 677.326 0 0 0 677.326)
(680.281 0 0 0 680.281 0 0 0 680.281)
(687.813 0 0 0 687.813 0 0 0 687.813)
(693.097 0 0 0 693.097 0 0 0 693.097)
(683.411 0 0 0 683.411 0 0 0 683.411)
(682.954 0 0 0 682.954 0 0 0 682.954)
(682.969 0 0 0 682.969 0 0 0 682.969)
(682.974 0 0 0 682.974 0 0 0 682.974)
(682.967 0 0 0 682.967 0 0 0 682.967)
(682.947 0 0 0 682.947 0 0 0 682.947)
(682.912 0 0 0 682.912 0 0 0 682.912)
(682.861 0 0 0 682.861 0 0 0 682.861)
(682.792 0 0 0 682.792 0 0 0 682.792)
(682.703 0 0 0 682.703 0 0 0 682.703)
(682.591 0 0 0 682.591 0 0 0 682.591)
(682.456 0 0 0 682.456 0 0 0 682.456)
(682.298 0 0 0 682.298 0 0 0 682.298)
(682.115 0 0 0 682.115 0 0 0 682.115)
(681.902 0 0 0 681.902 0 0 0 681.902)
(681.648 0 0 0 681.648 0 0 0 681.648)
(681.337 0 0 0 681.337 0 0 0 681.337)
(680.949 0 0 0 680.949 0 0 0 680.949)
(680.478 0 0 0 680.478 0 0 0 680.478)
(679.975 0 0 0 679.975 0 0 0 679.975)
(679.619 0 0 0 679.619 0 0 0 679.619)
(679.954 0 0 0 679.954 0 0 0 679.954)
(682.309 0 0 0 682.309 0 0 0 682.309)
(689.056 0 0 0 689.056 0 0 0 689.056)
(693.479 0 0 0 693.479 0 0 0 693.479)
(683.411 0 0 0 683.411 0 0 0 683.411)
(682.954 0 0 0 682.954 0 0 0 682.954)
(682.969 0 0 0 682.969 0 0 0 682.969)
(682.974 0 0 0 682.974 0 0 0 682.974)
(682.967 0 0 0 682.967 0 0 0 682.967)
(682.946 0 0 0 682.946 0 0 0 682.946)
(682.912 0 0 0 682.912 0 0 0 682.912)
(682.861 0 0 0 682.861 0 0 0 682.861)
(682.792 0 0 0 682.792 0 0 0 682.792)
(682.702 0 0 0 682.702 0 0 0 682.702)
(682.591 0 0 0 682.591 0 0 0 682.591)
(682.456 0 0 0 682.456 0 0 0 682.456)
(682.298 0 0 0 682.298 0 0 0 682.298)
(682.114 0 0 0 682.114 0 0 0 682.114)
(681.901 0 0 0 681.901 0 0 0 681.901)
(681.648 0 0 0 681.648 0 0 0 681.648)
(681.337 0 0 0 681.337 0 0 0 681.337)
(680.949 0 0 0 680.949 0 0 0 680.949)
(680.477 0 0 0 680.477 0 0 0 680.477)
(679.975 0 0 0 679.975 0 0 0 679.975)
(679.618 0 0 0 679.618 0 0 0 679.618)
(679.953 0 0 0 679.953 0 0 0 679.953)
(682.308 0 0 0 682.308 0 0 0 682.308)
(689.055 0 0 0 689.055 0 0 0 689.055)
(693.478 0 0 0 693.478 0 0 0 693.478)
(679.128 0 0 0 679.128 0 0 0 679.128)
(678.624 0 0 0 678.624 0 0 0 678.624)
(678.607 0 0 0 678.607 0 0 0 678.607)
(678.581 0 0 0 678.581 0 0 0 678.581)
(678.546 0 0 0 678.546 0 0 0 678.546)
(678.501 0 0 0 678.501 0 0 0 678.501)
(678.443 0 0 0 678.443 0 0 0 678.443)
(678.37 0 0 0 678.37 0 0 0 678.37)
(678.282 0 0 0 678.282 0 0 0 678.282)
(678.176 0 0 0 678.176 0 0 0 678.176)
(678.052 0 0 0 678.052 0 0 0 678.052)
(677.913 0 0 0 677.913 0 0 0 677.913)
(677.765 0 0 0 677.765 0 0 0 677.765)
(677.614 0 0 0 677.614 0 0 0 677.614)
(677.465 0 0 0 677.465 0 0 0 677.465)
(677.316 0 0 0 677.316 0 0 0 677.316)
(677.155 0 0 0 677.155 0 0 0 677.155)
(676.964 0 0 0 676.964 0 0 0 676.964)
(676.737 0 0 0 676.737 0 0 0 676.737)
(676.53 0 0 0 676.53 0 0 0 676.53)
(676.535 0 0 0 676.535 0 0 0 676.535)
(677.326 0 0 0 677.326 0 0 0 677.326)
(680.281 0 0 0 680.281 0 0 0 680.281)
(687.813 0 0 0 687.813 0 0 0 687.813)
(693.097 0 0 0 693.097 0 0 0 693.097)
)
;

boundaryField
{
    outletCentralUnloaded
    {
        type            zeroGradient;
    }
    inletCentralUnloaded
    {
        type            zeroGradient;
    }
    outletFuelElement
    {
        type            zeroGradient;
    }
    inletFuelElement
    {
        type            zeroGradient;
    }
    defaultFaces
    {
        type            zeroGradient;
    }
    baffle_master
    {
        type            zeroGradient;
    }
    baffle_slave
    {
        type            zeroGradient;
    }
}


// ************************************************************************* //
