/*--------------------------------*- C++ -*----------------------------------*\
| =========                 |                                                 |
| \\      /  F ield         | OpenFOAM: The Open Source CFD Toolbox           |
|  \\    /   O peration     | Version:  2212                                  |
|   \\  /    A nd           | Website:  www.openfoam.com                      |
|    \\/     M anipulation  |                                                 |
\*---------------------------------------------------------------------------*/
FoamFile
{
    version     2.0;
    format      ascii;
    arch        "LSB;label=32;scalar=64";
    class       volScalarField;
    location    "66/fluidRegion";
    object      nut;
}
// * * * * * * * * * * * * * * * * * * * * * * * * * * * * * * * * * * * * * //

dimensions      [0 2 -1 0 0 0 0];

internalField   nonuniform List<scalar> 
350
(
0.000537653
0.000537597
0.000537537
0.000537477
0.000537418
0.000537362
0.000537311
0.000537264
0.000537221
0.000537181
0.000537143
0.000537108
0.000537075
0.000537047
0.000537024
0.000537009
0.000537004
0.000537013
0.00053704
0.000537096
0.000537197
0.000537372
0.000537662
0.000538134
0.000539504
0.000537653
0.000537597
0.000537537
0.000537477
0.000537418
0.000537362
0.000537311
0.000537264
0.000537221
0.000537181
0.000537143
0.000537108
0.000537075
0.000537047
0.000537024
0.000537009
0.000537004
0.000537013
0.00053704
0.000537096
0.000537197
0.000537372
0.000537662
0.000538134
0.000539504
0.0104224
0.0102029
0.0099312
0.00960362
0.00922512
0.00880085
0.00833617
0.00783656
0.00730767
0.00675537
0.0061858
0.00560555
0.00502174
0.00444213
0.003875
0.00332882
0.00281176
0.00233121
0.00189339
0.00150353
0.00116623
0.00088593
0.000666908
0.000511769
0.000416364
0.0104898
0.0102692
0.00999651
0.00966746
0.00928706
0.00886052
0.00839319
0.00789059
0.00735841
0.00680252
0.00622909
0.00564474
0.00505663
0.00447259
0.00390098
0.00335039
0.00282913
0.00234469
0.0019034
0.00151054
0.00117074
0.00088849
0.000668097
0.00051215
0.00041643
0.0104115
0.010192
0.00992053
0.00959323
0.00921506
0.0087912
0.00832697
0.00782787
0.00729954
0.00674784
0.00617891
0.00559932
0.00501621
0.00443731
0.00387089
0.0033254
0.00280901
0.00232905
0.00189177
0.00150237
0.00116544
0.00088544
0.000666626
0.00051162
0.000416314
0.0104749
0.0102545
0.00998201
0.00965325
0.00927325
0.00884718
0.00838042
0.00787847
0.007347
0.0067919
0.00621932
0.00563587
0.00504873
0.00446568
0.00389507
0.00334548
0.00282518
0.00234162
0.00190112
0.00150894
0.00116971
0.000887914
0.000667835
0.000512074
0.000416421
0.0104749
0.0102545
0.00998201
0.00965325
0.00927325
0.00884718
0.00838042
0.00787847
0.007347
0.0067919
0.00621932
0.00563587
0.00504873
0.00446568
0.00389507
0.00334548
0.00282518
0.00234162
0.00190112
0.00150894
0.00116971
0.000887914
0.000667835
0.000512074
0.000416421
0.0104115
0.010192
0.00992053
0.00959323
0.00921507
0.0087912
0.00832698
0.00782788
0.00729955
0.00674784
0.00617891
0.00559933
0.00501621
0.00443732
0.00387089
0.0033254
0.00280901
0.00232906
0.00189177
0.00150237
0.00116544
0.000885439
0.000666625
0.000511619
0.000416314
0.0104898
0.0102692
0.00999651
0.00966746
0.00928706
0.00886052
0.00839319
0.00789059
0.00735841
0.00680252
0.00622909
0.00564474
0.00505663
0.00447259
0.00390098
0.00335039
0.00282913
0.00234469
0.0019034
0.00151054
0.00117074
0.00088849
0.000668097
0.00051215
0.00041643
0.0104224
0.0102029
0.0099312
0.00960362
0.00922512
0.00880085
0.00833617
0.00783656
0.00730767
0.00675537
0.0061858
0.00560554
0.00502174
0.00444213
0.003875
0.00332882
0.00281176
0.00233121
0.00189339
0.00150353
0.00116623
0.000885931
0.00066691
0.00051177
0.000416365
0.0104749
0.0102545
0.00998201
0.00965326
0.00927325
0.00884718
0.00838042
0.00787847
0.007347
0.0067919
0.00621932
0.00563587
0.00504873
0.00446568
0.00389507
0.00334548
0.00282518
0.00234162
0.00190112
0.00150894
0.00116971
0.000887914
0.000667836
0.000512075
0.000416422
0.0104115
0.010192
0.00992053
0.00959323
0.00921506
0.0087912
0.00832697
0.00782787
0.00729955
0.00674784
0.00617891
0.00559932
0.00501621
0.00443732
0.00387089
0.0033254
0.00280901
0.00232905
0.00189177
0.00150237
0.00116544
0.000885438
0.000666624
0.000511618
0.000416313
0.0104115
0.010192
0.00992053
0.00959323
0.00921507
0.0087912
0.00832698
0.00782788
0.00729955
0.00674784
0.00617891
0.00559933
0.00501621
0.00443732
0.00387089
0.0033254
0.00280901
0.00232906
0.00189177
0.00150237
0.00116545
0.00088544
0.000666625
0.000511619
0.000416314
0.0104749
0.0102545
0.00998201
0.00965326
0.00927325
0.00884718
0.00838042
0.00787847
0.007347
0.0067919
0.00621932
0.00563587
0.00504873
0.00446568
0.00389507
0.00334548
0.00282518
0.00234162
0.00190112
0.00150894
0.00116971
0.000887915
0.000667837
0.000512076
0.000416423
)
;

boundaryField
{
    outletCentralUnloaded
    {
        type            zeroGradient;
    }
    inletCentralUnloaded
    {
        type            zeroGradient;
    }
    outletFuelElement
    {
        type            zeroGradient;
    }
    inletFuelElement
    {
        type            zeroGradient;
    }
    defaultFaces
    {
        type            zeroGradient;
    }
    baffle_master
    {
        type            calculated;
        value           nonuniform List<scalar> 
150
(
0.000537653
0.000537653
0.000537653
0.000537597
0.000537597
0.000537597
0.000537537
0.000537537
0.000537537
0.000537477
0.000537477
0.000537477
0.000537418
0.000537418
0.000537418
0.000537362
0.000537362
0.000537362
0.000537311
0.000537311
0.000537311
0.000537264
0.000537264
0.000537264
0.000537221
0.000537221
0.000537221
0.000537181
0.000537181
0.000537181
0.000537143
0.000537143
0.000537143
0.000537108
0.000537108
0.000537108
0.000537075
0.000537075
0.000537075
0.000537047
0.000537047
0.000537047
0.000537024
0.000537024
0.000537024
0.000537009
0.000537009
0.000537009
0.000537004
0.000537004
0.000537004
0.000537013
0.000537013
0.000537013
0.00053704
0.00053704
0.00053704
0.000537096
0.000537096
0.000537096
0.000537197
0.000537197
0.000537197
0.000537372
0.000537372
0.000537372
0.000537662
0.000537662
0.000537662
0.000538134
0.000538134
0.000538134
0.000539504
0.000539504
0.000539504
0.000537653
0.000537653
0.000537653
0.000537597
0.000537597
0.000537597
0.000537537
0.000537537
0.000537537
0.000537477
0.000537477
0.000537477
0.000537418
0.000537418
0.000537418
0.000537362
0.000537362
0.000537362
0.000537311
0.000537311
0.000537311
0.000537264
0.000537264
0.000537264
0.000537221
0.000537221
0.000537221
0.000537181
0.000537181
0.000537181
0.000537143
0.000537143
0.000537143
0.000537108
0.000537108
0.000537108
0.000537075
0.000537075
0.000537075
0.000537047
0.000537047
0.000537047
0.000537024
0.000537024
0.000537024
0.000537009
0.000537009
0.000537009
0.000537004
0.000537004
0.000537004
0.000537013
0.000537013
0.000537013
0.00053704
0.00053704
0.00053704
0.000537096
0.000537096
0.000537096
0.000537197
0.000537197
0.000537197
0.000537372
0.000537372
0.000537372
0.000537662
0.000537662
0.000537662
0.000538134
0.000538134
0.000538134
0.000539504
0.000539504
0.000539504
)
;
    }
    baffle_slave
    {
        type            calculated;
        value           nonuniform List<scalar> 
150
(
0.0104898
0.0104749
0.0104749
0.0102692
0.0102545
0.0102545
0.00999651
0.00998201
0.00998201
0.00966746
0.00965325
0.00965326
0.00928706
0.00927325
0.00927325
0.00886052
0.00884718
0.00884718
0.00839319
0.00838042
0.00838042
0.00789059
0.00787847
0.00787847
0.00735841
0.007347
0.007347
0.00680252
0.0067919
0.0067919
0.00622909
0.00621932
0.00621932
0.00564474
0.00563587
0.00563587
0.00505663
0.00504873
0.00504873
0.00447259
0.00446568
0.00446568
0.00390098
0.00389507
0.00389507
0.00335039
0.00334548
0.00334548
0.00282913
0.00282518
0.00282518
0.00234469
0.00234162
0.00234162
0.0019034
0.00190112
0.00190112
0.00151054
0.00150894
0.00150894
0.00117074
0.00116971
0.00116971
0.00088849
0.000887914
0.000887915
0.000668097
0.000667835
0.000667837
0.00051215
0.000512074
0.000512076
0.00041643
0.000416421
0.000416423
0.0104749
0.0104898
0.0104749
0.0102545
0.0102692
0.0102545
0.00998201
0.00999651
0.00998201
0.00965325
0.00966746
0.00965326
0.00927325
0.00928706
0.00927325
0.00884718
0.00886052
0.00884718
0.00838042
0.00839319
0.00838042
0.00787847
0.00789059
0.00787847
0.007347
0.00735841
0.007347
0.0067919
0.00680252
0.0067919
0.00621932
0.00622909
0.00621932
0.00563587
0.00564474
0.00563587
0.00504873
0.00505663
0.00504873
0.00446568
0.00447259
0.00446568
0.00389507
0.00390098
0.00389507
0.00334548
0.00335039
0.00334548
0.00282518
0.00282913
0.00282518
0.00234162
0.00234469
0.00234162
0.00190112
0.0019034
0.00190112
0.00150894
0.00151054
0.00150894
0.00116971
0.00117074
0.00116971
0.000887914
0.00088849
0.000887914
0.000667835
0.000668097
0.000667836
0.000512074
0.00051215
0.000512075
0.000416421
0.00041643
0.000416422
)
;
    }
}


// ************************************************************************* //
