/*--------------------------------*- C++ -*----------------------------------*\
| =========                 |                                                 |
| \\      /  F ield         | OpenFOAM: The Open Source CFD Toolbox           |
|  \\    /   O peration     | Version:  2212                                  |
|   \\  /    A nd           | Website:  www.openfoam.com                      |
|    \\/     M anipulation  |                                                 |
\*---------------------------------------------------------------------------*/
FoamFile
{
    version     2.0;
    format      ascii;
    arch        "LSB;label=32;scalar=64";
    class       volScalarField;
    location    "66/fluidRegion";
    object      Re;
}
// * * * * * * * * * * * * * * * * * * * * * * * * * * * * * * * * * * * * * //

dimensions      [0 0 0 0 0 0 0];

internalField   nonuniform List<scalar> 
350
(
174061
174055
174045
174034
174024
174017
174013
174012
174013
174014
174015
174017
174019
174023
174029
174036
174045
174053
174059
174062
174062
174058
174052
174045
174398
174061
174055
174045
174034
174024
174017
174013
174012
174013
174014
174015
174017
174019
174023
174029
174036
174045
174053
174059
174062
174062
174058
174052
174045
174398
55431.9
55382.8
55384.1
55384.3
55383.2
55380.9
55377
55371.4
55363.9
55354.2
55342.3
55328.1
55311.6
55292.9
55271.6
55246.8
55216.5
55179
55133.3
55085.5
55054.8
55100.8
55367.9
56114.1
56605.2
54940.8
54884.1
54881.2
54877.3
54872.4
54866.4
54859.2
54850.5
54840.1
54827.9
54813.8
54798.4
54782.2
54766.4
54751.6
54737.9
54724
54708.2
54689.7
54674.7
54684.3
54781.2
55115.8
55952.3
56552.5
55514
55464.5
55466.2
55466.7
55465.9
55463.7
55460
55454.5
55447
55437.3
55425.2
55410.7
55393.5
55373.7
55350.6
55323.2
55289.5
55247.6
55196.6
55142.3
55103.7
55140
55394.7
56126.3
56607.1
55050.6
54996.1
54994.3
54991.5
54987.8
54982.8
54976.6
54968.8
54959.2
54947.7
54934.4
54919.4
54903.3
54887
54871
54854.9
54837.5
54816.9
54792.3
54770
54770.5
54856
55175.3
55991.3
56565.6
55050.6
54996.1
54994.3
54991.5
54987.8
54982.8
54976.6
54968.8
54959.2
54947.7
54934.4
54919.4
54903.3
54887
54871
54854.9
54837.5
54816.9
54792.3
54770
54770.5
54856
55175.3
55991.3
56565.6
55514
55464.5
55466.2
55466.7
55465.9
55463.7
55460
55454.5
55447
55437.3
55425.2
55410.6
55393.5
55373.6
55350.6
55323.2
55289.5
55247.5
55196.5
55142.2
55103.6
55139.8
55394.5
56126.1
56607
54940.8
54884.1
54881.2
54877.3
54872.4
54866.4
54859.2
54850.5
54840.1
54827.9
54813.8
54798.4
54782.2
54766.4
54751.6
54737.9
54724
54708.2
54689.7
54674.7
54684.3
54781.2
55115.8
55952.3
56552.5
55431.9
55382.8
55384.1
55384.3
55383.2
55380.9
55377
55371.4
55363.9
55354.2
55342.3
55328.1
55311.6
55292.9
55271.6
55246.8
55216.5
55179
55133.3
55085.5
55054.8
55100.8
55367.9
56114.1
56605.3
55050.6
54996.1
54994.3
54991.5
54987.8
54982.8
54976.6
54968.8
54959.2
54947.7
54934.4
54919.4
54903.3
54887
54871
54854.9
54837.5
54816.9
54792.3
54770
54770.5
54856
55175.3
55991.3
56565.6
55514
55464.5
55466.2
55466.7
55465.9
55463.7
55460
55454.5
55447
55437.3
55425.2
55410.7
55393.5
55373.7
55350.6
55323.2
55289.5
55247.6
55196.6
55142.2
55103.7
55140
55394.7
56126.3
56607.1
55514
55464.5
55466.2
55466.7
55465.9
55463.7
55460
55454.5
55447
55437.3
55425.2
55410.6
55393.5
55373.6
55350.6
55323.2
55289.5
55247.5
55196.5
55142.2
55103.6
55139.9
55394.6
56126.1
56607
55050.6
54996.1
54994.3
54991.5
54987.8
54982.8
54976.6
54968.8
54959.2
54947.7
54934.4
54919.4
54903.3
54887
54871
54854.9
54837.5
54816.9
54792.3
54770
54770.5
54856
55175.3
55991.4
56565.6
)
;

boundaryField
{
    outletCentralUnloaded
    {
        type            zeroGradient;
    }
    inletCentralUnloaded
    {
        type            zeroGradient;
    }
    outletFuelElement
    {
        type            zeroGradient;
    }
    inletFuelElement
    {
        type            zeroGradient;
    }
    defaultFaces
    {
        type            zeroGradient;
    }
    baffle_master
    {
        type            zeroGradient;
    }
    baffle_slave
    {
        type            zeroGradient;
    }
}


// ************************************************************************* //
