/*--------------------------------*- C++ -*----------------------------------*\
| =========                 |                                                 |
| \\      /  F ield         | OpenFOAM: The Open Source CFD Toolbox           |
|  \\    /   O peration     | Version:  2212                                  |
|   \\  /    A nd           | Website:  www.openfoam.com                      |
|    \\/     M anipulation  |                                                 |
\*---------------------------------------------------------------------------*/
FoamFile
{
    version     2.0;
    format      ascii;
    arch        "LSB;label=32;scalar=64";
    class       volScalarField;
    location    "66/fluidRegion";
    object      T.fuelAvForNeutronics;
}
// * * * * * * * * * * * * * * * * * * * * * * * * * * * * * * * * * * * * * //

dimensions      [0 0 0 1 0 0 0];

internalField   nonuniform List<scalar> 
350
(
0
0
0
0
0
0
0
0
0
0
0
0
0
0
0
0
0
0
0
0
0
0
0
0
0
0
0
0
0
0
0
0
0
0
0
0
0
0
0
0
0
0
0
0
0
0
0
0
0
0
2222.7
3009.75
3766.09
4480.19
5141.11
5738.68
6263.7
6708.05
7064.86
7328.6
7495.18
7562.01
7528.09
7394.01
7161.95
6835.61
6420.05
5921.41
5346.44
4701.97
3993.7
3225.02
2395.52
1504.24
564.376
2255.47
3051.71
3816.82
4539.12
5207.54
5811.81
6342.62
6791.77
7152.31
7418.63
7586.62
7653.66
7618.74
7482.46
7247.03
6916.21
6495.14
5990.1
5407.94
4755.64
4038.99
3261.39
2422.37
1520.76
569.922
2217.4
3003
3757.97
4470.78
5130.52
5727.04
6251.15
6694.75
7050.99
7314.33
7480.69
7547.49
7513.74
7380.01
7148.49
6822.86
6408.18
5910.56
5336.73
4693.5
3986.57
3219.3
2391.32
1501.66
563.501
2248.08
3042.19
3805.26
4525.66
5192.34
5795.06
6324.52
6772.55
7132.22
7397.94
7565.59
7632.57
7597.88
7462.1
7227.44
6897.64
6477.85
5974.27
5393.77
4743.28
4028.55
3253.01
2416.18
1516.95
568.644
2248.08
3042.19
3805.26
4525.66
5192.34
5795.06
6324.52
6772.55
7132.22
7397.94
7565.59
7632.57
7597.88
7462.1
7227.44
6897.64
6477.85
5974.27
5393.77
4743.28
4028.55
3253.01
2416.18
1516.95
568.644
2217.4
3003
3757.97
4470.78
5130.52
5727.04
6251.15
6694.75
7050.99
7314.33
7480.69
7547.49
7513.74
7380.02
7148.49
6822.87
6408.18
5910.56
5336.73
4693.5
3986.57
3219.3
2391.32
1501.66
563.501
2255.47
3051.71
3816.82
4539.12
5207.54
5811.81
6342.62
6791.77
7152.31
7418.63
7586.62
7653.66
7618.74
7482.46
7247.03
6916.21
6495.15
5990.09
5407.94
4755.64
4038.99
3261.39
2422.37
1520.76
569.922
2222.7
3009.75
3766.1
4480.2
5141.11
5738.68
6263.7
6708.05
7064.86
7328.6
7495.18
7562.01
7528.09
7394.01
7161.95
6835.61
6420.05
5921.41
5346.44
4701.97
3993.7
3225.02
2395.52
1504.24
564.376
2248.08
3042.19
3805.26
4525.66
5192.34
5795.06
6324.52
6772.55
7132.22
7397.94
7565.59
7632.57
7597.88
7462.1
7227.44
6897.64
6477.85
5974.27
5393.77
4743.28
4028.55
3253.01
2416.18
1516.95
568.644
2217.4
3003
3757.97
4470.78
5130.52
5727.04
6251.15
6694.75
7050.99
7314.33
7480.69
7547.49
7513.74
7380.01
7148.49
6822.87
6408.18
5910.56
5336.73
4693.5
3986.56
3219.3
2391.32
1501.66
563.501
2217.4
3003
3757.97
4470.78
5130.52
5727.04
6251.15
6694.75
7050.99
7314.33
7480.69
7547.49
7513.74
7380.02
7148.49
6822.87
6408.18
5910.56
5336.73
4693.5
3986.57
3219.3
2391.32
1501.66
563.501
2248.08
3042.19
3805.26
4525.66
5192.34
5795.06
6324.52
6772.55
7132.22
7397.94
7565.59
7632.57
7597.88
7462.1
7227.43
6897.64
6477.85
5974.27
5393.77
4743.28
4028.55
3253.01
2416.18
1516.95
568.644
)
;

boundaryField
{
    outletCentralUnloaded
    {
        type            zeroGradient;
    }
    inletCentralUnloaded
    {
        type            zeroGradient;
    }
    outletFuelElement
    {
        type            zeroGradient;
    }
    inletFuelElement
    {
        type            zeroGradient;
    }
    defaultFaces
    {
        type            zeroGradient;
    }
    baffle_master
    {
        type            zeroGradient;
    }
    baffle_slave
    {
        type            zeroGradient;
    }
}


// ************************************************************************* //
