/*--------------------------------*- C++ -*----------------------------------*\
| =========                 |                                                 |
| \\      /  F ield         | OpenFOAM: The Open Source CFD Toolbox           |
|  \\    /   O peration     | Version:  2212                                  |
|   \\  /    A nd           | Website:  www.openfoam.com                      |
|    \\/     M anipulation  |                                                 |
\*---------------------------------------------------------------------------*/
FoamFile
{
    version     2.0;
    format      ascii;
    arch        "LSB;label=32;scalar=64";
    class       volScalarField;
    location    "66/fluidRegion";
    object      Tcav.nuclearFuelPin;
}
// * * * * * * * * * * * * * * * * * * * * * * * * * * * * * * * * * * * * * //

dimensions      [0 0 0 1 0 0 0];

internalField   nonuniform List<scalar> 
350
(
0
0
0
0
0
0
0
0
0
0
0
0
0
0
0
0
0
0
0
0
0
0
0
0
0
0
0
0
0
0
0
0
0
0
0
0
0
0
0
0
0
0
0
0
0
0
0
0
0
0
1845.77
1883.86
1909
1921.2
1920.58
1907.41
1882.11
1845.26
1797.57
1739.87
1673.15
1598.51
1517.17
1430.47
1339.83
1246.74
1152.58
1058.41
964.626
870.41
772.846
665.637
538.032
377.919
186.903
1874.22
1912.92
1938.46
1950.81
1950.12
1936.66
1910.86
1873.29
1824.68
1765.89
1697.91
1621.86
1538.97
1450.61
1358.22
1263.32
1167.34
1071.39
975.933
880.187
781.233
672.694
543.6
381.538
188.126
1841.15
1879.16
1904.26
1916.45
1915.86
1902.75
1877.56
1840.84
1793.3
1735.79
1669.28
1594.87
1513.78
1427.35
1337
1244.2
1150.32
1056.42
962.903
868.926
771.581
664.584
537.213
377.392
186.717
1867.82
1906.37
1931.8
1944.1
1943.41
1930
1904.3
1866.89
1818.48
1759.93
1692.23
1616.49
1533.95
1445.97
1353.98
1259.5
1163.93
1068.39
973.319
877.926
779.293
671.06
542.31
380.698
187.843
1867.82
1906.37
1931.8
1944.1
1943.41
1930
1904.3
1866.89
1818.48
1759.93
1692.23
1616.49
1533.95
1445.97
1353.98
1259.5
1163.93
1068.39
973.319
877.926
779.293
671.06
542.31
380.698
187.843
1841.15
1879.16
1904.26
1916.45
1915.86
1902.76
1877.56
1840.84
1793.3
1735.79
1669.28
1594.87
1513.78
1427.35
1337
1244.2
1150.32
1056.42
962.903
868.927
771.582
664.585
537.214
377.392
186.717
1874.22
1912.92
1938.46
1950.81
1950.12
1936.66
1910.86
1873.29
1824.68
1765.89
1697.91
1621.86
1538.97
1450.61
1358.22
1263.32
1167.34
1071.39
975.933
880.187
781.233
672.694
543.601
381.538
188.126
1845.77
1883.86
1909
1921.2
1920.58
1907.41
1882.11
1845.26
1797.57
1739.87
1673.15
1598.51
1517.17
1430.46
1339.83
1246.74
1152.58
1058.41
964.626
870.41
772.846
665.637
538.033
377.919
186.903
1867.82
1906.37
1931.8
1944.1
1943.41
1930
1904.3
1866.89
1818.48
1759.93
1692.23
1616.49
1533.95
1445.97
1353.98
1259.5
1163.93
1068.39
973.319
877.926
779.293
671.06
542.31
380.698
187.843
1841.15
1879.16
1904.26
1916.45
1915.86
1902.75
1877.56
1840.84
1793.3
1735.79
1669.28
1594.87
1513.78
1427.35
1337
1244.2
1150.32
1056.42
962.903
868.927
771.581
664.584
537.214
377.392
186.717
1841.15
1879.16
1904.26
1916.45
1915.86
1902.76
1877.56
1840.84
1793.3
1735.79
1669.28
1594.87
1513.78
1427.35
1337
1244.2
1150.32
1056.42
962.903
868.927
771.582
664.585
537.214
377.392
186.717
1867.82
1906.37
1931.8
1944.1
1943.41
1930
1904.3
1866.89
1818.48
1759.93
1692.23
1616.49
1533.95
1445.97
1353.98
1259.5
1163.93
1068.39
973.319
877.926
779.293
671.06
542.31
380.698
187.843
)
;

boundaryField
{
    outletCentralUnloaded
    {
        type            zeroGradient;
    }
    inletCentralUnloaded
    {
        type            zeroGradient;
    }
    outletFuelElement
    {
        type            zeroGradient;
    }
    inletFuelElement
    {
        type            zeroGradient;
    }
    defaultFaces
    {
        type            zeroGradient;
    }
    baffle_master
    {
        type            zeroGradient;
    }
    baffle_slave
    {
        type            zeroGradient;
    }
}


// ************************************************************************* //
