/*--------------------------------*- C++ -*----------------------------------*\
| =========                 |                                                 |
| \\      /  F ield         | OpenFOAM: The Open Source CFD Toolbox           |
|  \\    /   O peration     | Version:  2212                                  |
|   \\  /    A nd           | Website:  www.openfoam.com                      |
|    \\/     M anipulation  |                                                 |
\*---------------------------------------------------------------------------*/
FoamFile
{
    version     2.0;
    format      ascii;
    arch        "LSB;label=32;scalar=64";
    class       volScalarField;
    location    "66/fluidRegion";
    object      Tci.nuclearFuelPin;
}
// * * * * * * * * * * * * * * * * * * * * * * * * * * * * * * * * * * * * * //

dimensions      [0 0 0 1 0 0 0];

internalField   nonuniform List<scalar> 
350
(
0
0
0
0
0
0
0
0
0
0
0
0
0
0
0
0
0
0
0
0
0
0
0
0
0
0
0
0
0
0
0
0
0
0
0
0
0
0
0
0
0
0
0
0
0
0
0
0
0
0
1851.87
1902.09
1939.08
1962.65
1972.74
1969.46
1953.08
1924.02
1882.88
1830.39
1767.45
1695.09
1614.52
1527.05
1434.13
1337.26
1237.89
1137.17
1035.59
932.467
825.011
707.089
568.117
396.161
193.017
1880.4
1931.37
1968.88
1992.73
2002.88
1999.42
1982.63
1952.95
1910.97
1857.44
1793.28
1719.55
1637.44
1548.3
1453.6
1354.88
1253.63
1151.05
1047.71
942.954
833.996
714.62
574.029
399.989
194.31
1847.24
1897.36
1934.28
1957.82
1967.92
1964.69
1948.39
1919.45
1878.45
1826.14
1763.4
1691.28
1610.96
1523.76
1431.12
1334.55
1235.47
1135.04
1033.74
930.87
823.651
705.96
567.243
395.601
192.819
1873.98
1924.76
1962.14
1985.91
1996.03
1992.6
1975.89
1946.34
1904.54
1851.24
1787.35
1713.93
1632.17
1543.41
1449.11
1350.81
1249.99
1147.84
1044.91
940.529
831.918
712.877
572.659
399.101
194.011
1873.98
1924.76
1962.14
1985.91
1996.03
1992.6
1975.89
1946.34
1904.54
1851.24
1787.35
1713.93
1632.17
1543.41
1449.11
1350.81
1249.99
1147.84
1044.91
940.529
831.918
712.877
572.659
399.101
194.011
1847.24
1897.36
1934.28
1957.82
1967.93
1964.69
1948.39
1919.45
1878.45
1826.14
1763.4
1691.28
1610.96
1523.76
1431.12
1334.55
1235.47
1135.04
1033.74
930.87
823.652
705.961
567.243
395.601
192.819
1880.4
1931.37
1968.88
1992.73
2002.88
1999.42
1982.63
1952.95
1910.97
1857.44
1793.28
1719.55
1637.44
1548.3
1453.6
1354.88
1253.63
1151.05
1047.71
942.954
833.996
714.621
574.029
399.989
194.31
1851.87
1902.09
1939.08
1962.65
1972.74
1969.46
1953.08
1924.02
1882.88
1830.39
1767.44
1695.09
1614.52
1527.05
1434.13
1337.26
1237.89
1137.17
1035.59
932.467
825.011
707.089
568.117
396.161
193.017
1873.98
1924.76
1962.14
1985.91
1996.03
1992.6
1975.89
1946.34
1904.54
1851.24
1787.35
1713.93
1632.17
1543.41
1449.11
1350.81
1249.99
1147.84
1044.91
940.529
831.918
712.877
572.659
399.101
194.011
1847.24
1897.36
1934.28
1957.82
1967.92
1964.69
1948.39
1919.45
1878.45
1826.14
1763.4
1691.28
1610.96
1523.76
1431.12
1334.55
1235.47
1135.04
1033.74
930.87
823.651
705.961
567.243
395.601
192.819
1847.24
1897.36
1934.28
1957.82
1967.93
1964.69
1948.39
1919.45
1878.45
1826.14
1763.4
1691.28
1610.96
1523.76
1431.12
1334.55
1235.47
1135.04
1033.74
930.87
823.652
705.961
567.243
395.601
192.819
1873.98
1924.76
1962.14
1985.91
1996.03
1992.6
1975.89
1946.34
1904.54
1851.24
1787.35
1713.93
1632.17
1543.41
1449.11
1350.81
1249.99
1147.84
1044.91
940.529
831.918
712.877
572.659
399.101
194.011
)
;

boundaryField
{
    outletCentralUnloaded
    {
        type            zeroGradient;
    }
    inletCentralUnloaded
    {
        type            zeroGradient;
    }
    outletFuelElement
    {
        type            zeroGradient;
    }
    inletFuelElement
    {
        type            zeroGradient;
    }
    defaultFaces
    {
        type            zeroGradient;
    }
    baffle_master
    {
        type            zeroGradient;
    }
    baffle_slave
    {
        type            zeroGradient;
    }
}


// ************************************************************************* //
