/*--------------------------------*- C++ -*----------------------------------*\
| =========                 |                                                 |
| \\      /  F ield         | OpenFOAM: The Open Source CFD Toolbox           |
|  \\    /   O peration     | Version:  2212                                  |
|   \\  /    A nd           | Website:  www.openfoam.com                      |
|    \\/     M anipulation  |                                                 |
\*---------------------------------------------------------------------------*/
FoamFile
{
    version     2.0;
    format      ascii;
    arch        "LSB;label=32;scalar=64";
    class       volScalarField;
    location    "10/neutroRegion";
    object      fluxStar20;
}
// * * * * * * * * * * * * * * * * * * * * * * * * * * * * * * * * * * * * * //

dimensions      [0 -2 -1 0 0 0 0];

internalField   nonuniform List<scalar> 
350
(
9.36208e+15
2.79386e+16
4.60745e+16
6.34838e+16
7.98918e+16
9.50398e+16
1.08689e+17
1.20624e+17
1.30657e+17
1.38629e+17
1.44415e+17
1.47923e+17
1.49099e+17
1.47923e+17
1.44415e+17
1.38629e+17
1.30657e+17
1.20624e+17
1.08689e+17
9.50398e+16
7.98918e+16
6.34838e+16
4.60745e+16
2.79386e+16
9.36207e+15
9.36208e+15
2.79387e+16
4.60745e+16
6.34838e+16
7.98918e+16
9.50398e+16
1.08689e+17
1.20624e+17
1.30657e+17
1.38629e+17
1.44415e+17
1.47923e+17
1.49099e+17
1.47923e+17
1.44415e+17
1.38629e+17
1.30657e+17
1.20624e+17
1.08689e+17
9.50398e+16
7.98918e+16
6.34838e+16
4.60745e+16
2.79387e+16
9.36207e+15
-1.76337e+16
-5.2623e+16
-8.67823e+16
-1.19573e+17
-1.50478e+17
-1.7901e+17
-2.04718e+17
-2.27198e+17
-2.46095e+17
-2.61111e+17
-2.72009e+17
-2.78617e+17
-2.80831e+17
-2.78617e+17
-2.72009e+17
-2.61111e+17
-2.46095e+17
-2.27198e+17
-2.04718e+17
-1.7901e+17
-1.50478e+17
-1.19573e+17
-8.67823e+16
-5.2623e+16
-1.76337e+16
-1.44191e+16
-4.30297e+16
-7.09618e+16
-9.77746e+16
-1.23045e+17
-1.46376e+17
-1.67398e+17
-1.85779e+17
-2.01231e+17
-2.1351e+17
-2.22421e+17
-2.27825e+17
-2.29635e+17
-2.27825e+17
-2.22421e+17
-2.1351e+17
-2.01231e+17
-1.85779e+17
-1.67398e+17
-1.46376e+17
-1.23045e+17
-9.77746e+16
-7.09618e+16
-4.30297e+16
-1.44191e+16
-1.82469e+16
-5.4453e+16
-8.98002e+16
-1.23731e+17
-1.55711e+17
-1.85235e+17
-2.11837e+17
-2.35099e+17
-2.54653e+17
-2.70191e+17
-2.81468e+17
-2.88306e+17
-2.90598e+17
-2.88306e+17
-2.81468e+17
-2.70191e+17
-2.54653e+17
-2.35099e+17
-2.11837e+17
-1.85235e+17
-1.55711e+17
-1.23731e+17
-8.98002e+16
-5.4453e+16
-1.82469e+16
-1.52616e+16
-4.5544e+16
-7.51082e+16
-1.03488e+17
-1.30235e+17
-1.54929e+17
-1.77179e+17
-1.96635e+17
-2.1299e+17
-2.25986e+17
-2.35418e+17
-2.41137e+17
-2.43054e+17
-2.41137e+17
-2.35418e+17
-2.25986e+17
-2.1299e+17
-1.96635e+17
-1.77179e+17
-1.54929e+17
-1.30235e+17
-1.03488e+17
-7.51082e+16
-4.5544e+16
-1.52616e+16
-1.52616e+16
-4.5544e+16
-7.51082e+16
-1.03488e+17
-1.30235e+17
-1.54929e+17
-1.77179e+17
-1.96635e+17
-2.1299e+17
-2.25986e+17
-2.35418e+17
-2.41137e+17
-2.43054e+17
-2.41137e+17
-2.35418e+17
-2.25986e+17
-2.1299e+17
-1.96635e+17
-1.77179e+17
-1.54929e+17
-1.30235e+17
-1.03488e+17
-7.51082e+16
-4.5544e+16
-1.52616e+16
-1.82469e+16
-5.4453e+16
-8.98002e+16
-1.23731e+17
-1.55711e+17
-1.85235e+17
-2.11837e+17
-2.35099e+17
-2.54653e+17
-2.70191e+17
-2.81468e+17
-2.88306e+17
-2.90598e+17
-2.88306e+17
-2.81468e+17
-2.70191e+17
-2.54653e+17
-2.35099e+17
-2.11837e+17
-1.85235e+17
-1.55711e+17
-1.23731e+17
-8.98002e+16
-5.4453e+16
-1.82469e+16
-1.44191e+16
-4.30297e+16
-7.09618e+16
-9.77746e+16
-1.23045e+17
-1.46376e+17
-1.67398e+17
-1.85779e+17
-2.01231e+17
-2.1351e+17
-2.22421e+17
-2.27825e+17
-2.29635e+17
-2.27825e+17
-2.22421e+17
-2.1351e+17
-2.01231e+17
-1.85779e+17
-1.67398e+17
-1.46376e+17
-1.23045e+17
-9.77746e+16
-7.09618e+16
-4.30297e+16
-1.44191e+16
-1.76337e+16
-5.2623e+16
-8.67824e+16
-1.19573e+17
-1.50478e+17
-1.7901e+17
-2.04718e+17
-2.27198e+17
-2.46095e+17
-2.61111e+17
-2.72009e+17
-2.78617e+17
-2.80831e+17
-2.78617e+17
-2.72009e+17
-2.61111e+17
-2.46095e+17
-2.27198e+17
-2.04718e+17
-1.7901e+17
-1.50478e+17
-1.19573e+17
-8.67824e+16
-5.2623e+16
-1.76337e+16
-1.52616e+16
-4.5544e+16
-7.51082e+16
-1.03488e+17
-1.30235e+17
-1.54929e+17
-1.77179e+17
-1.96635e+17
-2.1299e+17
-2.25986e+17
-2.35418e+17
-2.41137e+17
-2.43054e+17
-2.41137e+17
-2.35418e+17
-2.25986e+17
-2.1299e+17
-1.96635e+17
-1.77179e+17
-1.54929e+17
-1.30235e+17
-1.03488e+17
-7.51082e+16
-4.5544e+16
-1.52616e+16
-1.8247e+16
-5.4453e+16
-8.98003e+16
-1.23731e+17
-1.55711e+17
-1.85235e+17
-2.11837e+17
-2.35099e+17
-2.54653e+17
-2.70191e+17
-2.81468e+17
-2.88306e+17
-2.90597e+17
-2.88306e+17
-2.81468e+17
-2.70191e+17
-2.54653e+17
-2.35099e+17
-2.11837e+17
-1.85235e+17
-1.55711e+17
-1.23731e+17
-8.98003e+16
-5.4453e+16
-1.8247e+16
-1.8247e+16
-5.4453e+16
-8.98003e+16
-1.23731e+17
-1.55711e+17
-1.85235e+17
-2.11837e+17
-2.35099e+17
-2.54653e+17
-2.70191e+17
-2.81468e+17
-2.88306e+17
-2.90597e+17
-2.88306e+17
-2.81468e+17
-2.70191e+17
-2.54653e+17
-2.35099e+17
-2.11837e+17
-1.85235e+17
-1.55711e+17
-1.23731e+17
-8.98003e+16
-5.4453e+16
-1.8247e+16
-1.52616e+16
-4.55441e+16
-7.51083e+16
-1.03488e+17
-1.30235e+17
-1.54929e+17
-1.77179e+17
-1.96635e+17
-2.1299e+17
-2.25986e+17
-2.35418e+17
-2.41137e+17
-2.43053e+17
-2.41137e+17
-2.35418e+17
-2.25986e+17
-2.1299e+17
-1.96635e+17
-1.77179e+17
-1.54929e+17
-1.30235e+17
-1.03488e+17
-7.51083e+16
-4.55441e+16
-1.52616e+16
)
;

boundaryField
{
    outletCentralUnloaded
    {
        type            fixedValue;
        value           uniform 0;
    }
    inletCentralUnloaded
    {
        type            fixedValue;
        value           uniform 0;
    }
    outletFuelElement
    {
        type            fixedValue;
        value           uniform 0;
    }
    inletFuelElement
    {
        type            fixedValue;
        value           uniform 0;
    }
    defaultFaces
    {
        type            zeroGradient;
    }
}


// ************************************************************************* //
