/*--------------------------------*- C++ -*----------------------------------*\
| =========                 |                                                 |
| \\      /  F ield         | OpenFOAM: The Open Source CFD Toolbox           |
|  \\    /   O peration     | Version:  2212                                  |
|   \\  /    A nd           | Website:  www.openfoam.com                      |
|    \\/     M anipulation  |                                                 |
\*---------------------------------------------------------------------------*/
FoamFile
{
    version     2.0;
    format      ascii;
    arch        "LSB;label=32;scalar=64";
    class       volScalarField;
    location    "10/neutroRegion";
    object      flux1;
}
// * * * * * * * * * * * * * * * * * * * * * * * * * * * * * * * * * * * * * //

dimensions      [0 -2 -1 0 0 0 0];

internalField   nonuniform List<scalar> 
350
(
6.10986e+17
1.82332e+18
3.0069e+18
4.14305e+18
5.21387e+18
6.20245e+18
7.09322e+18
7.87212e+18
8.52688e+18
9.04715e+18
9.42475e+18
9.65372e+18
9.73045e+18
9.65372e+18
9.42475e+18
9.04715e+18
8.52687e+18
7.87212e+18
7.09322e+18
6.20245e+18
5.21387e+18
4.14305e+18
3.0069e+18
1.82332e+18
6.10986e+17
6.10986e+17
1.82332e+18
3.0069e+18
4.14305e+18
5.21387e+18
6.20245e+18
7.09322e+18
7.87212e+18
8.52688e+18
9.04715e+18
9.42475e+18
9.65372e+18
9.73045e+18
9.65372e+18
9.42475e+18
9.04715e+18
8.52687e+18
7.87212e+18
7.09322e+18
6.20245e+18
5.21387e+18
4.14305e+18
3.0069e+18
1.82332e+18
6.10986e+17
5.1465e+17
1.53583e+18
2.53279e+18
3.48981e+18
4.39178e+18
5.2245e+18
5.97481e+18
6.6309e+18
7.18242e+18
7.62066e+18
7.93873e+18
8.13159e+18
8.19622e+18
8.13159e+18
7.93873e+18
7.62066e+18
7.18242e+18
6.6309e+18
5.97481e+18
5.2245e+18
4.39178e+18
3.48981e+18
2.53279e+18
1.53583e+18
5.1465e+17
5.26571e+17
1.57141e+18
2.59146e+18
3.57065e+18
4.49351e+18
5.34552e+18
6.11321e+18
6.7845e+18
7.34879e+18
7.79719e+18
8.12262e+18
8.31995e+18
8.38608e+18
8.31995e+18
8.12262e+18
7.79719e+18
7.34879e+18
6.7845e+18
6.11321e+18
5.34552e+18
4.49351e+18
3.57065e+18
2.59146e+18
1.57141e+18
5.26571e+17
5.12739e+17
1.53013e+18
2.52339e+18
3.47685e+18
4.37547e+18
5.2051e+18
5.95263e+18
6.60628e+18
7.15575e+18
7.59237e+18
7.90925e+18
8.1014e+18
8.16579e+18
8.1014e+18
7.90925e+18
7.59237e+18
7.15575e+18
6.60628e+18
5.95263e+18
5.2051e+18
4.37547e+18
3.47685e+18
2.52339e+18
1.53013e+18
5.12739e+17
5.23818e+17
1.56319e+18
2.57791e+18
3.55198e+18
4.47002e+18
5.31757e+18
6.08125e+18
6.74903e+18
7.31037e+18
7.75643e+18
8.08015e+18
8.27646e+18
8.34224e+18
8.27646e+18
8.08015e+18
7.75643e+18
7.31037e+18
6.74903e+18
6.08125e+18
5.31757e+18
4.47002e+18
3.55198e+18
2.57791e+18
1.56319e+18
5.23818e+17
5.23818e+17
1.56319e+18
2.57791e+18
3.55198e+18
4.47002e+18
5.31757e+18
6.08125e+18
6.74903e+18
7.31037e+18
7.75643e+18
8.08015e+18
8.27646e+18
8.34224e+18
8.27646e+18
8.08015e+18
7.75643e+18
7.31037e+18
6.74903e+18
6.08125e+18
5.31757e+18
4.47002e+18
3.55198e+18
2.57791e+18
1.56319e+18
5.23818e+17
5.12739e+17
1.53013e+18
2.52339e+18
3.47685e+18
4.37547e+18
5.2051e+18
5.95263e+18
6.60628e+18
7.15575e+18
7.59237e+18
7.90925e+18
8.1014e+18
8.16579e+18
8.1014e+18
7.90925e+18
7.59237e+18
7.15575e+18
6.60628e+18
5.95263e+18
5.2051e+18
4.37547e+18
3.47685e+18
2.52339e+18
1.53013e+18
5.12739e+17
5.26571e+17
1.57141e+18
2.59146e+18
3.57065e+18
4.49351e+18
5.34552e+18
6.11321e+18
6.7845e+18
7.34879e+18
7.79719e+18
8.12262e+18
8.31995e+18
8.38608e+18
8.31995e+18
8.12262e+18
7.79719e+18
7.34879e+18
6.7845e+18
6.11321e+18
5.34552e+18
4.49351e+18
3.57065e+18
2.59146e+18
1.57141e+18
5.26571e+17
5.1465e+17
1.53583e+18
2.53279e+18
3.48981e+18
4.39178e+18
5.2245e+18
5.97481e+18
6.6309e+18
7.18242e+18
7.62066e+18
7.93873e+18
8.13159e+18
8.19622e+18
8.13159e+18
7.93873e+18
7.62066e+18
7.18242e+18
6.6309e+18
5.97481e+18
5.2245e+18
4.39178e+18
3.48981e+18
2.53279e+18
1.53583e+18
5.1465e+17
5.23818e+17
1.56319e+18
2.57791e+18
3.55198e+18
4.47002e+18
5.31757e+18
6.08125e+18
6.74903e+18
7.31037e+18
7.75643e+18
8.08015e+18
8.27646e+18
8.34224e+18
8.27646e+18
8.08015e+18
7.75643e+18
7.31037e+18
6.74903e+18
6.08125e+18
5.31757e+18
4.47002e+18
3.55198e+18
2.57791e+18
1.56319e+18
5.23818e+17
5.12739e+17
1.53013e+18
2.52339e+18
3.47685e+18
4.37547e+18
5.2051e+18
5.95263e+18
6.60628e+18
7.15575e+18
7.59237e+18
7.90925e+18
8.1014e+18
8.16579e+18
8.1014e+18
7.90925e+18
7.59237e+18
7.15575e+18
6.60628e+18
5.95263e+18
5.2051e+18
4.37547e+18
3.47685e+18
2.52339e+18
1.53013e+18
5.12739e+17
5.12739e+17
1.53013e+18
2.52339e+18
3.47685e+18
4.37547e+18
5.2051e+18
5.95263e+18
6.60628e+18
7.15575e+18
7.59237e+18
7.90925e+18
8.1014e+18
8.16579e+18
8.1014e+18
7.90925e+18
7.59237e+18
7.15575e+18
6.60628e+18
5.95263e+18
5.2051e+18
4.37547e+18
3.47685e+18
2.52339e+18
1.53013e+18
5.12739e+17
5.23818e+17
1.56319e+18
2.57791e+18
3.55198e+18
4.47002e+18
5.31757e+18
6.08125e+18
6.74903e+18
7.31037e+18
7.75643e+18
8.08015e+18
8.27646e+18
8.34224e+18
8.27646e+18
8.08015e+18
7.75643e+18
7.31037e+18
6.74903e+18
6.08125e+18
5.31757e+18
4.47002e+18
3.55198e+18
2.57791e+18
1.56319e+18
5.23818e+17
)
;

boundaryField
{
    outletCentralUnloaded
    {
        type            fixedValue;
        value           uniform 0;
    }
    inletCentralUnloaded
    {
        type            fixedValue;
        value           uniform 0;
    }
    outletFuelElement
    {
        type            fixedValue;
        value           uniform 0;
    }
    inletFuelElement
    {
        type            fixedValue;
        value           uniform 0;
    }
    defaultFaces
    {
        type            zeroGradient;
    }
}


// ************************************************************************* //
