/*--------------------------------*- C++ -*----------------------------------*\
| =========                 |                                                 |
| \\      /  F ield         | OpenFOAM: The Open Source CFD Toolbox           |
|  \\    /   O peration     | Version:  2212                                  |
|   \\  /    A nd           | Website:  www.openfoam.com                      |
|    \\/     M anipulation  |                                                 |
\*---------------------------------------------------------------------------*/
FoamFile
{
    version     2.0;
    format      ascii;
    arch        "LSB;label=32;scalar=64";
    class       volScalarField;
    location    "10/neutroRegion";
    object      prec2;
}
// * * * * * * * * * * * * * * * * * * * * * * * * * * * * * * * * * * * * * //

dimensions      [0 -3 0 0 0 0 0];

internalField   nonuniform List<scalar> 
350
(
0
0
0
0
0
0
0
0
0
0
0
0
0
0
0
0
0
0
0
0
0
0
0
0
0
0
0
0
0
0
0
0
0
0
0
0
0
0
0
0
0
0
0
0
0
0
0
0
0
0
8.26953e+16
2.46782e+17
4.06976e+17
5.60751e+17
7.05683e+17
8.39486e+17
9.60049e+17
1.06547e+18
1.15409e+18
1.22451e+18
1.27562e+18
1.30661e+18
1.31699e+18
1.30661e+18
1.27562e+18
1.22451e+18
1.15409e+18
1.06547e+18
9.60048e+17
8.39486e+17
7.05683e+17
5.60751e+17
4.06976e+17
2.46782e+17
8.26953e+16
8.36407e+16
2.49603e+17
4.11629e+17
5.67162e+17
7.13751e+17
8.49083e+17
9.71025e+17
1.07765e+18
1.16728e+18
1.23851e+18
1.2902e+18
1.32154e+18
1.33205e+18
1.32154e+18
1.2902e+18
1.23851e+18
1.16728e+18
1.07765e+18
9.71025e+17
8.49083e+17
7.13751e+17
5.67162e+17
4.11629e+17
2.49603e+17
8.36407e+16
8.25447e+16
2.46332e+17
4.06235e+17
5.59731e+17
7.04399e+17
8.37957e+17
9.58301e+17
1.06353e+18
1.15199e+18
1.22228e+18
1.27329e+18
1.30423e+18
1.31459e+18
1.30423e+18
1.27329e+18
1.22228e+18
1.15199e+18
1.06353e+18
9.58301e+17
8.37957e+17
7.04399e+17
5.59731e+17
4.06235e+17
2.46332e+17
8.25447e+16
8.34231e+16
2.48954e+17
4.10558e+17
5.65687e+17
7.11894e+17
8.46874e+17
9.68498e+17
1.07485e+18
1.16425e+18
1.23529e+18
1.28684e+18
1.31811e+18
1.32858e+18
1.31811e+18
1.28684e+18
1.23529e+18
1.16425e+18
1.07485e+18
9.68498e+17
8.46874e+17
7.11894e+17
5.65687e+17
4.10558e+17
2.48954e+17
8.34231e+16
8.34231e+16
2.48954e+17
4.10558e+17
5.65687e+17
7.11894e+17
8.46874e+17
9.68498e+17
1.07485e+18
1.16425e+18
1.23529e+18
1.28684e+18
1.31811e+18
1.32858e+18
1.31811e+18
1.28684e+18
1.23529e+18
1.16425e+18
1.07485e+18
9.68498e+17
8.46874e+17
7.11894e+17
5.65687e+17
4.10558e+17
2.48954e+17
8.34231e+16
8.25447e+16
2.46332e+17
4.06235e+17
5.59731e+17
7.04398e+17
8.37957e+17
9.58301e+17
1.06353e+18
1.15199e+18
1.22228e+18
1.27329e+18
1.30423e+18
1.31459e+18
1.30423e+18
1.27329e+18
1.22228e+18
1.15199e+18
1.06353e+18
9.58301e+17
8.37957e+17
7.04398e+17
5.59731e+17
4.06235e+17
2.46332e+17
8.25447e+16
8.36407e+16
2.49603e+17
4.11629e+17
5.67162e+17
7.13751e+17
8.49083e+17
9.71025e+17
1.07765e+18
1.16728e+18
1.23851e+18
1.2902e+18
1.32154e+18
1.33205e+18
1.32154e+18
1.2902e+18
1.23851e+18
1.16728e+18
1.07765e+18
9.71025e+17
8.49083e+17
7.13751e+17
5.67162e+17
4.11629e+17
2.49603e+17
8.36407e+16
8.26953e+16
2.46782e+17
4.06976e+17
5.60751e+17
7.05683e+17
8.39486e+17
9.60048e+17
1.06547e+18
1.15409e+18
1.22451e+18
1.27562e+18
1.30661e+18
1.31699e+18
1.30661e+18
1.27562e+18
1.22451e+18
1.15409e+18
1.06547e+18
9.60048e+17
8.39486e+17
7.05683e+17
5.60751e+17
4.06976e+17
2.46782e+17
8.26953e+16
8.34231e+16
2.48954e+17
4.10558e+17
5.65687e+17
7.11894e+17
8.46874e+17
9.68498e+17
1.07485e+18
1.16425e+18
1.23529e+18
1.28684e+18
1.31811e+18
1.32858e+18
1.31811e+18
1.28684e+18
1.23529e+18
1.16425e+18
1.07485e+18
9.68498e+17
8.46874e+17
7.11894e+17
5.65687e+17
4.10558e+17
2.48954e+17
8.34231e+16
8.25447e+16
2.46332e+17
4.06235e+17
5.59731e+17
7.04398e+17
8.37957e+17
9.58301e+17
1.06353e+18
1.15199e+18
1.22228e+18
1.27329e+18
1.30423e+18
1.31459e+18
1.30423e+18
1.27329e+18
1.22228e+18
1.15199e+18
1.06353e+18
9.58301e+17
8.37957e+17
7.04398e+17
5.59731e+17
4.06235e+17
2.46332e+17
8.25447e+16
8.25447e+16
2.46332e+17
4.06235e+17
5.59731e+17
7.04398e+17
8.37957e+17
9.58301e+17
1.06353e+18
1.15199e+18
1.22228e+18
1.27329e+18
1.30423e+18
1.31459e+18
1.30423e+18
1.27329e+18
1.22228e+18
1.15199e+18
1.06353e+18
9.58301e+17
8.37957e+17
7.04398e+17
5.59731e+17
4.06235e+17
2.46332e+17
8.25447e+16
8.34231e+16
2.48954e+17
4.10558e+17
5.65687e+17
7.11894e+17
8.46874e+17
9.68498e+17
1.07485e+18
1.16425e+18
1.23529e+18
1.28684e+18
1.31811e+18
1.32858e+18
1.31811e+18
1.28684e+18
1.23529e+18
1.16425e+18
1.07485e+18
9.68498e+17
8.46874e+17
7.11894e+17
5.65687e+17
4.10558e+17
2.48954e+17
8.34231e+16
)
;

boundaryField
{
    outletCentralUnloaded
    {
        type            zeroGradient;
    }
    inletCentralUnloaded
    {
        type            zeroGradient;
    }
    outletFuelElement
    {
        type            zeroGradient;
    }
    inletFuelElement
    {
        type            zeroGradient;
    }
    defaultFaces
    {
        type            zeroGradient;
    }
}


// ************************************************************************* //
