/*--------------------------------*- C++ -*----------------------------------*\
| =========                 |                                                 |
| \\      /  F ield         | OpenFOAM: The Open Source CFD Toolbox           |
|  \\    /   O peration     | Version:  2212                                  |
|   \\  /    A nd           | Website:  www.openfoam.com                      |
|    \\/     M anipulation  |                                                 |
\*---------------------------------------------------------------------------*/
FoamFile
{
    version     2.0;
    format      ascii;
    arch        "LSB;label=32;scalar=64";
    class       surfaceScalarField;
    location    "45/fluidRegion";
    object      alphaPhi;
}
// * * * * * * * * * * * * * * * * * * * * * * * * * * * * * * * * * * * * * //

dimensions      [0 3 -1 0 0 0 0];

oriented        oriented;

internalField   nonuniform List<scalar> 
661
(
-0.000538968
1.32966e-12
-0.000538923
-2.13899e-12
-0.000538878
-5.31576e-12
-0.000538832
-7.06098e-12
-0.000538785
-3.7419e-12
-0.000538738
2.77398e-12
-0.00053869
8.01519e-12
-0.00053864
8.3367e-12
-0.000538591
2.18468e-12
-0.000538542
-8.34315e-12
-0.000538498
-1.78933e-11
-0.000538459
-2.07148e-11
-0.000538424
-1.38965e-11
-0.000538392
9.056e-13
-0.000538357
1.80822e-11
-0.000538317
3.05417e-11
-0.000538269
3.29258e-11
-0.000538215
2.41604e-11
-0.000538156
7.97187e-12
-0.000538099
-9.04461e-12
-0.000538045
-2.10676e-11
-0.000537997
-2.65829e-11
-0.000537956
-2.42228e-11
-0.000537923
-7.52353e-12
1.37968e-11
-0.000538968
-0.000538923
-0.000538878
-0.000538832
-0.000538785
-0.000538738
-0.00053869
-0.00053864
-0.000538591
-0.000538542
-0.000538498
-0.000538459
-0.000538424
-0.000538392
-0.000538357
-0.000538317
-0.000538269
-0.000538215
-0.000538156
-0.000538099
-0.000538045
-0.000537997
-0.000537956
-0.000537923
-0.0201854
1.40928e-06
-0.0197608
6.74772e-07
-0.0192197
7.3214e-07
-0.018571
6.58828e-07
-0.0178243
5.96378e-07
-0.0169896
5.38467e-07
-0.016077
4.84781e-07
-0.015097
4.32656e-07
-0.0140604
3.76357e-07
-0.0129784
3.06422e-07
-0.0118629
2.11065e-07
-0.0107266
7.86825e-08
-0.00958385
-9.40346e-08
-0.00845037
-2.9319e-07
-0.00734303
-4.96284e-07
-0.00627896
-6.6932e-07
-0.00527437
-7.85741e-07
-0.0043434
-8.38488e-07
-0.00349763
-8.4123e-07
-0.00274678
-8.18056e-07
-0.0020996
-7.90802e-07
-0.00156545
-7.64498e-07
-0.00115503
-7.28428e-07
-0.000879342
-6.31437e-07
-6.00388e-07
-0.0203149
-3.82859e-08
-3.89803e-08
-0.0198894
-1.73262e-07
-1.79698e-07
-0.0193462
-1.63657e-07
-1.70306e-07
-0.0186945
-1.40754e-07
-1.48077e-07
-0.017944
-1.20915e-07
-1.28937e-07
-0.0171047
-1.02512e-07
-1.11457e-07
-0.0161869
-8.55442e-08
-9.55474e-08
-0.0152011
-6.93754e-08
-8.05033e-08
-0.014158
-5.24518e-08
-6.4817e-08
-0.0130689
-3.21276e-08
-4.5885e-08
-0.0119458
-4.72904e-09
-1.99608e-08
-0.0108014
3.31107e-08
1.63654e-08
-0.00965017
8.20694e-08
6.33392e-08
-0.00850793
1.42946e-07
1.22056e-07
-0.00739176
2.05719e-07
1.82455e-07
-0.00631906
2.60489e-07
2.34705e-07
-0.00530629
2.98256e-07
2.69851e-07
-0.00436782
3.15914e-07
2.8506e-07
-0.00351541
3.17366e-07
2.8432e-07
-0.00275887
3.09918e-07
2.75586e-07
-0.00210702
3.00546e-07
2.6569e-07
-0.0015693
2.89022e-07
2.55878e-07
-0.00115647
2.69137e-07
2.38804e-07
-0.000879536
2.13106e-07
1.89663e-07
1.61398e-07
1.49487e-07
-0.0201642
6.9791e-07
-0.0197399
6.63128e-07
-0.0191992
6.3867e-07
-0.0185511
5.69017e-07
-0.0178051
5.06629e-07
-0.0169711
4.49173e-07
-0.0160594
3.95782e-07
-0.0150804
3.43421e-07
-0.0140449
2.85576e-07
-0.0129641
2.12033e-07
-0.0118497
1.1004e-07
-0.0107148
-3.06903e-08
-0.00957341
-2.13175e-07
-0.00844132
-4.23613e-07
-0.00733536
-6.35273e-07
-0.00627264
-8.12265e-07
-0.00526932
-9.27527e-07
-0.0043395
-9.75231e-07
-0.00349474
-9.71329e-07
-0.00274476
-9.41545e-07
-0.00209827
-9.07354e-07
-0.00156465
-8.7212e-07
-0.00115458
-8.1289e-07
-0.000879124
-6.74461e-07
-5.49362e-07
-0.0202861
6.05317e-09
-0.0198607
3.01758e-09
-0.0193179
3.2619e-09
-0.0186668
3.14695e-09
-0.0179171
3.10293e-09
-0.0170788
2.97166e-09
-0.0161621
2.69176e-09
-0.0151776
2.38871e-09
-0.0141359
1.96081e-09
-0.0130484
1.36971e-09
-0.0119269
7.15859e-10
-0.0107844
-4.63392e-11
-0.00963507
-1.01099e-09
-0.00849481
-2.09013e-09
-0.00738064
-3.36425e-09
-0.0063099
-4.76027e-09
-0.005299
-6.13379e-09
-0.00436224
-7.31583e-09
-0.00351135
-8.27717e-09
-0.00275612
-8.77595e-09
-0.00210534
-8.71391e-09
-0.00156844
-8.10742e-09
-0.00115616
-7.18399e-09
-0.000879518
-5.2632e-09
-3.29908e-09
-0.0202861
-6.84783e-07
-0.0198607
-6.56672e-07
-0.0193179
-6.31386e-07
-0.0186668
-5.61826e-07
-0.0179171
-4.99407e-07
-0.0170788
-4.42076e-07
-0.0161621
-3.89001e-07
-0.0151776
-3.37002e-07
-0.0141359
-2.79719e-07
-0.0130484
-2.06961e-07
-0.011927
-1.05863e-07
-0.0107844
3.39325e-08
-0.00963509
2.15071e-07
-0.00849482
4.23934e-07
-0.00738065
6.33702e-07
-0.00630991
8.08556e-07
-0.00529901
9.21597e-07
-0.00436225
9.67157e-07
-0.00351135
9.61116e-07
-0.00275612
9.29512e-07
-0.00210534
8.9385e-07
-0.00156844
8.57752e-07
-0.00115616
7.9801e-07
-0.000879519
6.61999e-07
5.40104e-07
-0.0201642
3.59224e-08
-0.01974
1.76016e-07
-0.0191993
1.66349e-07
-0.0185511
1.4381e-07
-0.0178051
1.24448e-07
-0.0169711
1.0653e-07
-0.0160594
9.01419e-08
-0.0150804
7.46506e-08
-0.0140449
5.85169e-08
-0.0129641
3.90754e-08
-0.0118498
1.27151e-08
-0.0107148
-2.40528e-08
-0.00957342
-7.15482e-08
-0.00844133
-1.3099e-07
-0.00733537
-1.92312e-07
-0.00627264
-2.45718e-07
-0.00526932
-2.82282e-07
-0.0043395
-2.99112e-07
-0.00349474
-3.00381e-07
-0.00274476
-2.93651e-07
-0.00209827
-2.85867e-07
-0.00156465
-2.77019e-07
-0.00115458
-2.60597e-07
-0.000879122
-2.07841e-07
-1.58266e-07
-0.0203149
-1.40856e-06
-4.43719e-08
-0.0198894
-6.73698e-07
-1.80827e-07
-0.0193462
-7.30887e-07
-1.71756e-07
-0.0186945
-6.57482e-07
-1.49304e-07
-0.017944
-5.94867e-07
-1.29993e-07
-0.0171047
-5.36926e-07
-1.12198e-07
-0.0161869
-4.83214e-07
-9.58255e-08
-0.0152011
-4.31102e-07
-8.0232e-08
-0.014158
-3.74844e-07
-6.38148e-08
-0.0130689
-3.05053e-07
-4.39153e-08
-0.0119458
-2.09791e-07
-1.6855e-08
-0.0108014
-7.76156e-08
2.048e-08
-0.00965017
9.46859e-08
6.92651e-08
-0.00850793
2.93237e-07
1.30115e-07
-0.00739176
4.95309e-07
1.93206e-07
-0.00631906
6.66804e-07
2.48827e-07
-0.00530629
7.81026e-07
2.88156e-07
-0.00436782
8.3068e-07
3.08415e-07
-0.00351541
8.2899e-07
3.1389e-07
-0.00275887
7.99879e-07
3.12203e-07
-0.00210702
7.64885e-07
3.09897e-07
-0.0015693
7.30175e-07
3.0625e-07
-0.00115647
6.852e-07
2.92821e-07
-0.000879536
5.87302e-07
2.38644e-07
5.62592e-07
1.85874e-07
-0.0201854
-0.0197608
-0.0192197
-0.018571
-0.0178243
-0.0169896
-0.016077
-0.015097
-0.0140604
-0.0129784
-0.0118629
-0.0107266
-0.00958385
-0.00845037
-0.00734303
-0.00627896
-0.00527437
-0.0043434
-0.00349763
-0.00274679
-0.0020996
-0.00156545
-0.00115503
-0.000879342
-0.0202861
-6.89005e-07
-1.36257e-10
-0.0198607
-6.52749e-07
-4.2335e-09
-0.0193179
-6.277e-07
-4.25481e-09
-0.0186668
-5.57517e-07
-4.58777e-09
-0.0179171
-4.94472e-07
-5.02831e-09
-0.0170788
-4.36399e-07
-5.53859e-09
-0.0161621
-3.82441e-07
-6.0836e-09
-0.0151776
-3.29497e-07
-6.77667e-09
-0.0141359
-2.71116e-07
-7.56418e-09
-0.0130484
-1.97101e-07
-8.48543e-09
-0.0119269
-9.46877e-08
-9.70199e-09
-0.0107844
4.66583e-08
-1.06011e-08
-0.00963507
2.29748e-07
-1.23957e-08
-0.00849481
4.40811e-07
-1.43532e-08
-0.00738064
6.53211e-07
-1.66801e-08
-0.0063099
8.31207e-07
-1.95151e-08
-0.005299
9.48149e-07
-2.30972e-08
-0.00436224
9.98514e-07
-2.75402e-08
-0.00351135
9.98729e-07
-3.29752e-08
-0.00275612
9.74866e-07
-3.91427e-08
-0.00210534
9.48948e-07
-4.59735e-08
-0.00156844
9.22316e-07
-5.11401e-08
-0.00115616
8.70341e-07
-5.35678e-08
-0.000879518
7.31855e-07
-4.83062e-08
5.95247e-07
-3.66052e-08
-0.0201642
-0.0197399
-0.0191992
-0.0185511
-0.0178051
-0.0169711
-0.0160594
-0.0150804
-0.0140449
-0.0129641
-0.0118497
-0.0107148
-0.00957341
-0.00844132
-0.00733536
-0.00627264
-0.00526932
-0.00433949
-0.00349474
-0.00274476
-0.00209827
-0.00156465
-0.00115458
-0.000879125
-0.0201642
6.89132e-07
-0.01974
6.61336e-07
-0.0191993
6.36209e-07
-0.0185511
5.66726e-07
-0.0178051
5.04547e-07
-0.0169711
4.47271e-07
-0.0160594
3.94232e-07
-0.0150804
3.42313e-07
-0.0140449
2.85136e-07
-0.0129641
2.12421e-07
-0.0118498
1.11452e-07
-0.0107148
-2.85097e-08
-0.00957342
-2.09231e-07
-0.00844133
-4.17902e-07
-0.00733537
-6.27653e-07
-0.00627264
-8.02697e-07
-0.00526932
-9.16143e-07
-0.0043395
-9.62609e-07
-0.00349474
-9.58546e-07
-0.00274476
-9.30441e-07
-0.00209827
-9.00546e-07
-0.00156465
-8.72159e-07
-0.00115458
-8.21614e-07
-0.000879122
-6.90183e-07
-5.65744e-07
-0.0202861
-0.0198607
-0.0193179
-0.0186668
-0.0179171
-0.0170788
-0.0161621
-0.0151776
-0.0141359
-0.0130484
-0.011927
-0.0107844
-0.00963509
-0.00849482
-0.00738065
-0.00630991
-0.00529901
-0.00436225
-0.00351135
-0.00275612
-0.00210534
-0.00156844
-0.00115616
-0.00087952
)
;

boundaryField
{
    outletCentralUnloaded
    {
        type            calculated;
        value           nonuniform List<scalar> 2(0.000539012 0.000539012);
    }
    inletCentralUnloaded
    {
        type            calculated;
        value           uniform -0.000540134;
    }
    outletFuelElement
    {
        type            calculated;
        value           nonuniform List<scalar> 
12
(
0.0205236
0.0206562
0.0205028
0.0206265
0.0206266
0.0205029
0.0206562
0.0205236
0.0206265
0.0205028
0.0205029
0.0206266
)
;
    }
    inletFuelElement
    {
        type            calculated;
        value           nonuniform List<scalar> 
12
(
-0.000722059
-0.00072206
-0.000722059
-0.000722059
-0.00072206
-0.000722059
-0.00072206
-0.000722059
-0.000722059
-0.000722059
-0.000722059
-0.00072206
)
;
    }
    defaultFaces
    {
        type            calculated;
        value           nonuniform List<scalar> 
450
(
-1.08569e-23
-4.91762e-23
0
1.92551e-23
-9.42554e-24
0
1.55125e-23
7.13114e-24
0
-3.96734e-23
-1.64637e-23
0
-1.62077e-23
-2.93393e-23
0
-4.35746e-23
-2.36427e-23
0
-2.5775e-23
-2.0228e-23
0
-2.63922e-23
-5.0219e-24
0
-2.03446e-23
-1.72419e-23
0
-2.32476e-23
-4.06087e-24
0
-1.32586e-23
-7.06885e-24
0
-4.50369e-24
-1.64707e-24
0
8.75803e-24
3.35769e-24
0
1.71056e-23
4.20992e-24
0
3.51676e-23
1.52692e-23
0
4.25405e-23
1.94507e-23
0
4.7576e-23
2.05641e-24
0
5.38058e-23
2.8579e-23
0
5.22775e-23
-2.854e-23
0
-2.64466e-23
-7.47873e-24
0
-1.51496e-23
-2.33594e-24
0
3.62189e-23
-2.8882e-23
0
-2.72473e-23
3.84403e-24
0
-2.67495e-23
-1.30211e-23
0
-1.71937e-23
-1.96081e-23
0
2.80794e-23
0
2.40681e-23
0
-8.0227e-24
0
2.00567e-23
0
-8.0227e-24
0
1.60454e-23
0
8.0227e-24
0
1.2034e-23
0
-6.01702e-24
0
6.01702e-24
0
6.26773e-24
0
-1.00284e-24
0
-8.0227e-24
0
-2.00567e-23
0
-2.40681e-23
0
-4.01135e-23
0
4.81362e-23
0
-3.20908e-23
0
1.60454e-23
0
-4.81362e-23
0
-3.20908e-23
0
4.01135e-23
0
-8.0227e-24
0
-3.20908e-23
0
-2.40681e-23
0
-1.60454e-23
-8.0227e-24
8.0227e-24
-1.60454e-23
1.60454e-23
0
-1.60454e-23
0
4.01135e-24
-4.01135e-24
-2.00567e-24
5.01419e-25
4.01135e-24
0
8.0227e-24
3.20908e-23
-4.81362e-23
1.60454e-23
-4.81362e-23
1.60454e-23
1.60454e-23
-1.60454e-23
-3.20908e-23
0
-8.0227e-24
0
0
0
0
0
0
0
0
0
0
0
0
0
0
0
0
0
0
0
0
0
0
0
0
0
-2.00567e-23
8.0227e-24
8.0227e-24
2.40681e-23
2.40681e-23
3.20908e-23
-1.2034e-23
-1.60454e-23
1.60454e-23
-8.0227e-24
-1.60454e-23
-8.0227e-24
-4.01135e-24
-1.2034e-23
-8.0227e-24
-4.01135e-24
1.40397e-23
-8.0227e-24
-6.01702e-24
-2.00567e-24
-2.00567e-24
-2.00567e-24
1.00284e-24
1.62961e-24
6.01702e-24
8.0227e-24
8.0227e-24
8.0227e-24
2.40681e-23
2.00567e-23
1.60454e-23
2.40681e-23
-3.20908e-23
4.01135e-23
3.20908e-23
1.60454e-23
-6.41816e-23
4.01135e-23
-4.81362e-23
-3.20908e-23
-8.0227e-24
-3.20908e-23
-4.01135e-23
4.81362e-23
-1.60454e-23
-3.20908e-23
-8.0227e-24
-1.60454e-23
-2.40681e-23
-1.60454e-23
3.3452e-23
0
0
1.06301e-23
0
0
2.08294e-23
0
-6.41816e-23
-5.25116e-23
0
8.0227e-24
1.34886e-23
0
-8.0227e-24
-5.30981e-23
0
8.0227e-24
-4.09884e-23
0
8.0227e-24
-3.48609e-23
0
8.0227e-24
-2.28292e-23
0
-8.0227e-24
-3.06527e-23
0
4.01135e-24
-1.89557e-23
0
8.0227e-24
-5.97815e-24
0
0
8.95778e-24
-0
-2.00567e-24
2.42598e-23
-0
-4.01135e-24
4.65079e-23
-0
-8.0227e-24
5.82573e-23
-0
-8.0227e-24
3.50897e-23
-0
-1.60454e-23
6.29762e-23
-0
0
2.5039e-23
-0
-1.60454e-23
-4.48589e-23
-0
1.60454e-23
-2.21301e-23
-0
0
3.73969e-23
-0
1.60454e-23
-1.94915e-23
-0
0
-7.3567e-24
-0
1.60454e-23
-1.22531e-23
-0
8.0227e-24
0
0
8.0227e-24
-8.0227e-24
0
0
-8.0227e-24
0
-4.01135e-24
-4.01135e-24
-2.00567e-24
1.00284e-24
0
0
8.0227e-24
0
-3.20908e-23
0
-4.81362e-23
-3.20908e-23
0
-3.20908e-23
-3.20908e-23
0
0
1.80511e-23
0
1.60454e-23
0
0
0
1.60454e-23
0
-4.01135e-24
0
8.0227e-24
0
1.60454e-23
0
8.0227e-24
0
0
0
8.0227e-24
0
2.50709e-24
0
-2.00567e-24
-0
-6.01702e-24
-0
-1.2034e-23
-0
-2.40681e-23
-0
-2.40681e-23
-0
4.81362e-23
-0
-1.60454e-23
-0
6.41816e-23
-0
-6.41816e-23
-0
-3.20908e-23
-0
1.60454e-23
-0
0
-0
-4.01135e-23
-0
-8.0227e-24
-0
-1.40397e-23
8.0227e-24
-1.60454e-23
2.40681e-23
-1.60454e-23
1.60454e-23
-1.60454e-23
-4.41248e-23
0
1.2034e-23
-1.60454e-23
-3.61021e-23
-8.0227e-24
-2.40681e-23
-8.0227e-24
-2.00567e-23
-2.00567e-24
-1.2034e-23
-4.01135e-24
-1.40397e-23
-3.00851e-24
-7.01986e-24
5.01419e-25
3.40025e-24
6.01702e-24
1.80511e-23
1.2034e-23
3.20908e-23
2.40681e-23
5.21475e-23
2.40681e-23
6.41816e-23
0
4.81362e-23
2.40681e-23
8.82497e-23
0
4.01135e-23
0
-2.40681e-23
0
-3.20908e-23
8.0227e-24
4.81362e-23
2.40681e-23
-2.40681e-23
-8.0227e-24
-2.40681e-23
0
-1.60454e-23
-0
-0
-0
-0
-0
-0
-0
-0
-0
-0
-0
0
0
0
0
0
0
0
0
0
0
0
0
0
0
)
;
    }
    baffle_master
    {
        type            calculated;
        value           nonuniform List<scalar> 
150
(
-1.16857e-29
0
0
-2.81451e-30
0
-4.57867e-29
-5.96378e-29
0
-9.15735e-29
2.29489e-29
0
0
-2.29083e-28
0
-1.3736e-28
-1.699e-29
0
-4.57867e-29
-1.28178e-29
0
0
8.05219e-29
0
0
3.18276e-29
0
4.57867e-29
-2.90251e-29
0
0
-2.76058e-29
0
0
-2.44034e-28
0
3.66294e-28
-3.68601e-29
0
0
-3.11292e-31
0
-1.14467e-29
-4.79931e-29
0
0
-9.60784e-29
0
-3.66294e-28
-3.5276e-27
0
-2.19776e-27
1.81782e-28
0
3.66294e-28
-4.39704e-28
0
-3.66294e-28
9.00945e-29
0
0
2.18309e-28
0
3.66294e-28
-1.64938e-27
0
-7.32588e-28
5.01072e-29
0
-3.66294e-28
1.36981e-29
0
9.15735e-29
4.54563e-29
0
-1.83147e-28
0
4.98496e-29
-0
-4.57867e-29
-7.22667e-29
0
9.15735e-29
-1.34346e-28
0
1.83147e-28
-4.00141e-28
0
0
6.47862e-29
0
-9.15735e-29
1.00717e-28
-0
-1.83147e-28
2.37937e-28
-0
0
1.67664e-28
-0
4.57867e-29
1.18439e-28
-0
1.83147e-28
-2.35154e-28
0
3.66294e-28
-6.62388e-28
0
0
-8.55243e-28
0
1.83147e-28
-1.98481e-28
0
-1.14467e-29
3.21328e-29
-0
0
9.41706e-28
-0
-3.66294e-28
8.2506e-28
-0
7.32588e-28
1.81364e-27
-0
-3.66294e-28
1.18693e-27
-0
1.83147e-28
5.07398e-29
-0
-1.83147e-28
1.27096e-28
0
3.66294e-28
2.42211e-28
0
-3.66294e-28
1.54593e-27
0
-7.32588e-28
-1.09656e-27
0
9.15735e-29
1.66526e-28
0
0
-2.40977e-28
-0
)
;
    }
    baffle_slave
    {
        type            calculated;
        value           nonuniform List<scalar> 
150
(
-3.54127e-24
-0
0
2.00567e-24
-0
8.0227e-24
-4.26206e-24
-0
-8.0227e-24
3.25922e-24
-0
8.0227e-24
-3.00851e-23
-0
-1.60454e-23
7.52128e-25
-0
0
-2.50709e-24
-0
0
1.00284e-24
-0
0
2.50709e-24
-0
-4.01135e-24
0
-0
0
-5.01419e-25
-0
-2.00567e-24
2.50709e-24
0
0
0
0
4.01135e-24
0
0
0
-2.00567e-24
0
8.0227e-24
-2.00567e-24
0
0
-4.61305e-23
0
-4.81362e-23
0
0
1.60454e-23
-3.61021e-23
0
-4.81362e-23
3.00851e-24
0
-1.60454e-23
2.00567e-24
0
-1.60454e-23
2.60738e-23
0
1.60454e-23
3.00851e-24
0
1.60454e-23
0
0
-1.60454e-23
-3.50993e-24
0
-1.60454e-23
-5.691e-24
5.18968e-23
0
-1.46881e-23
1.22848e-23
0
1.23828e-23
2.28146e-23
0
-8.88212e-24
2.35667e-23
0
5.86552e-24
-3.00851e-23
0
-7.31759e-24
1.52933e-23
0
-4.64761e-24
1.67975e-23
0
-3.71423e-24
1.02791e-23
0
8.79036e-24
1.10312e-23
0
-2.23713e-24
6.26773e-24
0
-1.8828e-24
6.6438e-24
0
-2.84966e-25
3.88599e-24
0
-2.72506e-24
-7.52128e-25
0
1.01882e-24
-6.92585e-24
0
3.65336e-24
-1.44471e-23
0
2.40833e-23
-1.93046e-23
0
-5.45573e-23
-1.67975e-23
0
3.71723e-24
-3.05865e-23
0
-1.53015e-23
3.00851e-24
0
-1.28816e-23
9.02554e-24
0
-2.17717e-24
1.30369e-23
0
-3.04788e-23
2.50709e-23
0
-2.22909e-23
-1.50426e-23
0
2.01188e-24
8.0227e-24
0
5.4029e-24
9.02554e-24
0
)
;
    }
}


// ************************************************************************* //
