/*--------------------------------*- C++ -*----------------------------------*\
| =========                 |                                                 |
| \\      /  F ield         | OpenFOAM: The Open Source CFD Toolbox           |
|  \\    /   O peration     | Version:  2212                                  |
|   \\  /    A nd           | Website:  www.openfoam.com                      |
|    \\/     M anipulation  |                                                 |
\*---------------------------------------------------------------------------*/
FoamFile
{
    version     2.0;
    format      ascii;
    arch        "LSB;label=32;scalar=64";
    class       volTensorField;
    location    "45/fluidRegion";
    object      Kd;
}
// * * * * * * * * * * * * * * * * * * * * * * * * * * * * * * * * * * * * * //

dimensions      [1 -3 -1 0 0 0 0];

internalField   nonuniform List<tensor> 
350
(
(84.7419 0 0 0 84.7419 0 0 0 84.7419)
(84.742 0 0 0 84.742 0 0 0 84.742)
(84.7419 0 0 0 84.7419 0 0 0 84.7419)
(84.7418 0 0 0 84.7418 0 0 0 84.7418)
(84.7415 0 0 0 84.7415 0 0 0 84.7415)
(84.7412 0 0 0 84.7412 0 0 0 84.7412)
(84.7408 0 0 0 84.7408 0 0 0 84.7408)
(84.7402 0 0 0 84.7402 0 0 0 84.7402)
(84.7397 0 0 0 84.7397 0 0 0 84.7397)
(84.7392 0 0 0 84.7392 0 0 0 84.7392)
(84.739 0 0 0 84.739 0 0 0 84.739)
(84.7393 0 0 0 84.7393 0 0 0 84.7393)
(84.7402 0 0 0 84.7402 0 0 0 84.7402)
(84.7415 0 0 0 84.7415 0 0 0 84.7415)
(84.7429 0 0 0 84.7429 0 0 0 84.7429)
(84.7437 0 0 0 84.7437 0 0 0 84.7437)
(84.7438 0 0 0 84.7438 0 0 0 84.7438)
(84.743 0 0 0 84.743 0 0 0 84.743)
(84.7416 0 0 0 84.7416 0 0 0 84.7416)
(84.74 0 0 0 84.74 0 0 0 84.74)
(84.7386 0 0 0 84.7386 0 0 0 84.7386)
(84.7379 0 0 0 84.7379 0 0 0 84.7379)
(84.7379 0 0 0 84.7379 0 0 0 84.7379)
(84.7387 0 0 0 84.7387 0 0 0 84.7387)
(84.8725 0 0 0 84.8725 0 0 0 84.8725)
(84.7419 0 0 0 84.7419 0 0 0 84.7419)
(84.742 0 0 0 84.742 0 0 0 84.742)
(84.7419 0 0 0 84.7419 0 0 0 84.7419)
(84.7418 0 0 0 84.7418 0 0 0 84.7418)
(84.7415 0 0 0 84.7415 0 0 0 84.7415)
(84.7412 0 0 0 84.7412 0 0 0 84.7412)
(84.7408 0 0 0 84.7408 0 0 0 84.7408)
(84.7402 0 0 0 84.7402 0 0 0 84.7402)
(84.7397 0 0 0 84.7397 0 0 0 84.7397)
(84.7392 0 0 0 84.7392 0 0 0 84.7392)
(84.739 0 0 0 84.739 0 0 0 84.739)
(84.7393 0 0 0 84.7393 0 0 0 84.7393)
(84.7402 0 0 0 84.7402 0 0 0 84.7402)
(84.7415 0 0 0 84.7415 0 0 0 84.7415)
(84.7429 0 0 0 84.7429 0 0 0 84.7429)
(84.7437 0 0 0 84.7437 0 0 0 84.7437)
(84.7438 0 0 0 84.7438 0 0 0 84.7438)
(84.743 0 0 0 84.743 0 0 0 84.743)
(84.7416 0 0 0 84.7416 0 0 0 84.7416)
(84.74 0 0 0 84.74 0 0 0 84.74)
(84.7386 0 0 0 84.7386 0 0 0 84.7386)
(84.7379 0 0 0 84.7379 0 0 0 84.7379)
(84.7379 0 0 0 84.7379 0 0 0 84.7379)
(84.7387 0 0 0 84.7387 0 0 0 84.7387)
(84.8725 0 0 0 84.8725 0 0 0 84.8725)
(682.453 0 0 0 682.453 0 0 0 682.453)
(681.985 0 0 0 681.985 0 0 0 681.985)
(681.997 0 0 0 681.997 0 0 0 681.997)
(682 0 0 0 682 0 0 0 682)
(681.99 0 0 0 681.99 0 0 0 681.99)
(681.969 0 0 0 681.969 0 0 0 681.969)
(681.933 0 0 0 681.933 0 0 0 681.933)
(681.881 0 0 0 681.881 0 0 0 681.881)
(681.812 0 0 0 681.812 0 0 0 681.812)
(681.723 0 0 0 681.723 0 0 0 681.723)
(681.613 0 0 0 681.613 0 0 0 681.613)
(681.482 0 0 0 681.482 0 0 0 681.482)
(681.33 0 0 0 681.33 0 0 0 681.33)
(681.157 0 0 0 681.157 0 0 0 681.157)
(680.961 0 0 0 680.961 0 0 0 680.961)
(680.732 0 0 0 680.732 0 0 0 680.732)
(680.453 0 0 0 680.453 0 0 0 680.453)
(680.106 0 0 0 680.106 0 0 0 680.106)
(679.685 0 0 0 679.685 0 0 0 679.685)
(679.244 0 0 0 679.244 0 0 0 679.244)
(678.963 0 0 0 678.963 0 0 0 678.963)
(679.393 0 0 0 679.393 0 0 0 679.393)
(681.863 0 0 0 681.863 0 0 0 681.863)
(688.726 0 0 0 688.726 0 0 0 688.726)
(693.192 0 0 0 693.192 0 0 0 693.192)
(677.921 0 0 0 677.921 0 0 0 677.921)
(677.382 0 0 0 677.382 0 0 0 677.382)
(677.355 0 0 0 677.355 0 0 0 677.355)
(677.318 0 0 0 677.318 0 0 0 677.318)
(677.273 0 0 0 677.273 0 0 0 677.273)
(677.218 0 0 0 677.218 0 0 0 677.218)
(677.151 0 0 0 677.151 0 0 0 677.151)
(677.07 0 0 0 677.07 0 0 0 677.07)
(676.974 0 0 0 676.974 0 0 0 676.974)
(676.861 0 0 0 676.861 0 0 0 676.861)
(676.731 0 0 0 676.731 0 0 0 676.731)
(676.588 0 0 0 676.588 0 0 0 676.588)
(676.439 0 0 0 676.439 0 0 0 676.439)
(676.292 0 0 0 676.292 0 0 0 676.292)
(676.156 0 0 0 676.156 0 0 0 676.156)
(676.029 0 0 0 676.029 0 0 0 676.029)
(675.901 0 0 0 675.901 0 0 0 675.901)
(675.754 0 0 0 675.754 0 0 0 675.754)
(675.584 0 0 0 675.584 0 0 0 675.584)
(675.447 0 0 0 675.447 0 0 0 675.447)
(675.538 0 0 0 675.538 0 0 0 675.538)
(676.44 0 0 0 676.44 0 0 0 676.44)
(679.538 0 0 0 679.538 0 0 0 679.538)
(687.24 0 0 0 687.24 0 0 0 687.24)
(692.709 0 0 0 692.709 0 0 0 692.709)
(683.211 0 0 0 683.211 0 0 0 683.211)
(682.739 0 0 0 682.739 0 0 0 682.739)
(682.755 0 0 0 682.755 0 0 0 682.755)
(682.76 0 0 0 682.76 0 0 0 682.76)
(682.753 0 0 0 682.753 0 0 0 682.753)
(682.733 0 0 0 682.733 0 0 0 682.733)
(682.699 0 0 0 682.699 0 0 0 682.699)
(682.648 0 0 0 682.648 0 0 0 682.648)
(682.579 0 0 0 682.579 0 0 0 682.579)
(682.49 0 0 0 682.49 0 0 0 682.49)
(682.379 0 0 0 682.379 0 0 0 682.379)
(682.244 0 0 0 682.244 0 0 0 682.244)
(682.086 0 0 0 682.086 0 0 0 682.086)
(681.903 0 0 0 681.903 0 0 0 681.903)
(681.691 0 0 0 681.691 0 0 0 681.691)
(681.438 0 0 0 681.438 0 0 0 681.438)
(681.127 0 0 0 681.127 0 0 0 681.127)
(680.739 0 0 0 680.739 0 0 0 680.739)
(680.269 0 0 0 680.269 0 0 0 680.269)
(679.768 0 0 0 679.768 0 0 0 679.768)
(679.415 0 0 0 679.415 0 0 0 679.415)
(679.754 0 0 0 679.754 0 0 0 679.754)
(682.11 0 0 0 682.11 0 0 0 682.11)
(688.838 0 0 0 688.838 0 0 0 688.838)
(693.209 0 0 0 693.209 0 0 0 693.209)
(678.935 0 0 0 678.935 0 0 0 678.935)
(678.416 0 0 0 678.416 0 0 0 678.416)
(678.4 0 0 0 678.4 0 0 0 678.4)
(678.374 0 0 0 678.374 0 0 0 678.374)
(678.339 0 0 0 678.339 0 0 0 678.339)
(678.294 0 0 0 678.294 0 0 0 678.294)
(678.236 0 0 0 678.236 0 0 0 678.236)
(678.164 0 0 0 678.164 0 0 0 678.164)
(678.075 0 0 0 678.075 0 0 0 678.075)
(677.969 0 0 0 677.969 0 0 0 677.969)
(677.845 0 0 0 677.845 0 0 0 677.845)
(677.707 0 0 0 677.707 0 0 0 677.707)
(677.559 0 0 0 677.559 0 0 0 677.559)
(677.408 0 0 0 677.408 0 0 0 677.408)
(677.26 0 0 0 677.26 0 0 0 677.26)
(677.112 0 0 0 677.112 0 0 0 677.112)
(676.95 0 0 0 676.95 0 0 0 676.95)
(676.76 0 0 0 676.76 0 0 0 676.76)
(676.533 0 0 0 676.533 0 0 0 676.533)
(676.328 0 0 0 676.328 0 0 0 676.328)
(676.336 0 0 0 676.336 0 0 0 676.336)
(677.132 0 0 0 677.132 0 0 0 677.132)
(680.087 0 0 0 680.087 0 0 0 680.087)
(687.598 0 0 0 687.598 0 0 0 687.598)
(692.829 0 0 0 692.829 0 0 0 692.829)
(678.935 0 0 0 678.935 0 0 0 678.935)
(678.416 0 0 0 678.416 0 0 0 678.416)
(678.4 0 0 0 678.4 0 0 0 678.4)
(678.374 0 0 0 678.374 0 0 0 678.374)
(678.339 0 0 0 678.339 0 0 0 678.339)
(678.294 0 0 0 678.294 0 0 0 678.294)
(678.236 0 0 0 678.236 0 0 0 678.236)
(678.164 0 0 0 678.164 0 0 0 678.164)
(678.075 0 0 0 678.075 0 0 0 678.075)
(677.969 0 0 0 677.969 0 0 0 677.969)
(677.845 0 0 0 677.845 0 0 0 677.845)
(677.707 0 0 0 677.707 0 0 0 677.707)
(677.559 0 0 0 677.559 0 0 0 677.559)
(677.408 0 0 0 677.408 0 0 0 677.408)
(677.26 0 0 0 677.26 0 0 0 677.26)
(677.112 0 0 0 677.112 0 0 0 677.112)
(676.95 0 0 0 676.95 0 0 0 676.95)
(676.76 0 0 0 676.76 0 0 0 676.76)
(676.533 0 0 0 676.533 0 0 0 676.533)
(676.328 0 0 0 676.328 0 0 0 676.328)
(676.336 0 0 0 676.336 0 0 0 676.336)
(677.132 0 0 0 677.132 0 0 0 677.132)
(680.087 0 0 0 680.087 0 0 0 680.087)
(687.598 0 0 0 687.598 0 0 0 687.598)
(692.829 0 0 0 692.829 0 0 0 692.829)
(683.211 0 0 0 683.211 0 0 0 683.211)
(682.739 0 0 0 682.739 0 0 0 682.739)
(682.755 0 0 0 682.755 0 0 0 682.755)
(682.76 0 0 0 682.76 0 0 0 682.76)
(682.753 0 0 0 682.753 0 0 0 682.753)
(682.733 0 0 0 682.733 0 0 0 682.733)
(682.698 0 0 0 682.698 0 0 0 682.698)
(682.648 0 0 0 682.648 0 0 0 682.648)
(682.579 0 0 0 682.579 0 0 0 682.579)
(682.49 0 0 0 682.49 0 0 0 682.49)
(682.379 0 0 0 682.379 0 0 0 682.379)
(682.244 0 0 0 682.244 0 0 0 682.244)
(682.086 0 0 0 682.086 0 0 0 682.086)
(681.903 0 0 0 681.903 0 0 0 681.903)
(681.69 0 0 0 681.69 0 0 0 681.69)
(681.437 0 0 0 681.437 0 0 0 681.437)
(681.126 0 0 0 681.126 0 0 0 681.126)
(680.739 0 0 0 680.739 0 0 0 680.739)
(680.268 0 0 0 680.268 0 0 0 680.268)
(679.767 0 0 0 679.767 0 0 0 679.767)
(679.414 0 0 0 679.414 0 0 0 679.414)
(679.753 0 0 0 679.753 0 0 0 679.753)
(682.108 0 0 0 682.108 0 0 0 682.108)
(688.836 0 0 0 688.836 0 0 0 688.836)
(693.208 0 0 0 693.208 0 0 0 693.208)
(677.921 0 0 0 677.921 0 0 0 677.921)
(677.382 0 0 0 677.382 0 0 0 677.382)
(677.355 0 0 0 677.355 0 0 0 677.355)
(677.318 0 0 0 677.318 0 0 0 677.318)
(677.273 0 0 0 677.273 0 0 0 677.273)
(677.218 0 0 0 677.218 0 0 0 677.218)
(677.151 0 0 0 677.151 0 0 0 677.151)
(677.07 0 0 0 677.07 0 0 0 677.07)
(676.974 0 0 0 676.974 0 0 0 676.974)
(676.861 0 0 0 676.861 0 0 0 676.861)
(676.731 0 0 0 676.731 0 0 0 676.731)
(676.588 0 0 0 676.588 0 0 0 676.588)
(676.439 0 0 0 676.439 0 0 0 676.439)
(676.292 0 0 0 676.292 0 0 0 676.292)
(676.156 0 0 0 676.156 0 0 0 676.156)
(676.029 0 0 0 676.029 0 0 0 676.029)
(675.901 0 0 0 675.901 0 0 0 675.901)
(675.754 0 0 0 675.754 0 0 0 675.754)
(675.584 0 0 0 675.584 0 0 0 675.584)
(675.447 0 0 0 675.447 0 0 0 675.447)
(675.538 0 0 0 675.538 0 0 0 675.538)
(676.44 0 0 0 676.44 0 0 0 676.44)
(679.538 0 0 0 679.538 0 0 0 679.538)
(687.24 0 0 0 687.24 0 0 0 687.24)
(692.709 0 0 0 692.709 0 0 0 692.709)
(682.453 0 0 0 682.453 0 0 0 682.453)
(681.985 0 0 0 681.985 0 0 0 681.985)
(681.997 0 0 0 681.997 0 0 0 681.997)
(682 0 0 0 682 0 0 0 682)
(681.99 0 0 0 681.99 0 0 0 681.99)
(681.969 0 0 0 681.969 0 0 0 681.969)
(681.933 0 0 0 681.933 0 0 0 681.933)
(681.881 0 0 0 681.881 0 0 0 681.881)
(681.812 0 0 0 681.812 0 0 0 681.812)
(681.723 0 0 0 681.723 0 0 0 681.723)
(681.613 0 0 0 681.613 0 0 0 681.613)
(681.482 0 0 0 681.482 0 0 0 681.482)
(681.33 0 0 0 681.33 0 0 0 681.33)
(681.157 0 0 0 681.157 0 0 0 681.157)
(680.961 0 0 0 680.961 0 0 0 680.961)
(680.732 0 0 0 680.732 0 0 0 680.732)
(680.453 0 0 0 680.453 0 0 0 680.453)
(680.106 0 0 0 680.106 0 0 0 680.106)
(679.685 0 0 0 679.685 0 0 0 679.685)
(679.244 0 0 0 679.244 0 0 0 679.244)
(678.963 0 0 0 678.963 0 0 0 678.963)
(679.393 0 0 0 679.393 0 0 0 679.393)
(681.863 0 0 0 681.863 0 0 0 681.863)
(688.726 0 0 0 688.726 0 0 0 688.726)
(693.192 0 0 0 693.192 0 0 0 693.192)
(678.935 0 0 0 678.935 0 0 0 678.935)
(678.416 0 0 0 678.416 0 0 0 678.416)
(678.4 0 0 0 678.4 0 0 0 678.4)
(678.374 0 0 0 678.374 0 0 0 678.374)
(678.339 0 0 0 678.339 0 0 0 678.339)
(678.294 0 0 0 678.294 0 0 0 678.294)
(678.236 0 0 0 678.236 0 0 0 678.236)
(678.164 0 0 0 678.164 0 0 0 678.164)
(678.075 0 0 0 678.075 0 0 0 678.075)
(677.969 0 0 0 677.969 0 0 0 677.969)
(677.845 0 0 0 677.845 0 0 0 677.845)
(677.707 0 0 0 677.707 0 0 0 677.707)
(677.559 0 0 0 677.559 0 0 0 677.559)
(677.408 0 0 0 677.408 0 0 0 677.408)
(677.26 0 0 0 677.26 0 0 0 677.26)
(677.112 0 0 0 677.112 0 0 0 677.112)
(676.95 0 0 0 676.95 0 0 0 676.95)
(676.76 0 0 0 676.76 0 0 0 676.76)
(676.533 0 0 0 676.533 0 0 0 676.533)
(676.328 0 0 0 676.328 0 0 0 676.328)
(676.336 0 0 0 676.336 0 0 0 676.336)
(677.131 0 0 0 677.131 0 0 0 677.131)
(680.087 0 0 0 680.087 0 0 0 680.087)
(687.598 0 0 0 687.598 0 0 0 687.598)
(692.829 0 0 0 692.829 0 0 0 692.829)
(683.211 0 0 0 683.211 0 0 0 683.211)
(682.739 0 0 0 682.739 0 0 0 682.739)
(682.755 0 0 0 682.755 0 0 0 682.755)
(682.76 0 0 0 682.76 0 0 0 682.76)
(682.753 0 0 0 682.753 0 0 0 682.753)
(682.733 0 0 0 682.733 0 0 0 682.733)
(682.699 0 0 0 682.699 0 0 0 682.699)
(682.648 0 0 0 682.648 0 0 0 682.648)
(682.579 0 0 0 682.579 0 0 0 682.579)
(682.49 0 0 0 682.49 0 0 0 682.49)
(682.379 0 0 0 682.379 0 0 0 682.379)
(682.244 0 0 0 682.244 0 0 0 682.244)
(682.086 0 0 0 682.086 0 0 0 682.086)
(681.903 0 0 0 681.903 0 0 0 681.903)
(681.691 0 0 0 681.691 0 0 0 681.691)
(681.438 0 0 0 681.438 0 0 0 681.438)
(681.127 0 0 0 681.127 0 0 0 681.127)
(680.739 0 0 0 680.739 0 0 0 680.739)
(680.269 0 0 0 680.269 0 0 0 680.269)
(679.768 0 0 0 679.768 0 0 0 679.768)
(679.415 0 0 0 679.415 0 0 0 679.415)
(679.754 0 0 0 679.754 0 0 0 679.754)
(682.11 0 0 0 682.11 0 0 0 682.11)
(688.838 0 0 0 688.838 0 0 0 688.838)
(693.209 0 0 0 693.209 0 0 0 693.209)
(683.211 0 0 0 683.211 0 0 0 683.211)
(682.739 0 0 0 682.739 0 0 0 682.739)
(682.755 0 0 0 682.755 0 0 0 682.755)
(682.76 0 0 0 682.76 0 0 0 682.76)
(682.753 0 0 0 682.753 0 0 0 682.753)
(682.733 0 0 0 682.733 0 0 0 682.733)
(682.698 0 0 0 682.698 0 0 0 682.698)
(682.648 0 0 0 682.648 0 0 0 682.648)
(682.579 0 0 0 682.579 0 0 0 682.579)
(682.49 0 0 0 682.49 0 0 0 682.49)
(682.379 0 0 0 682.379 0 0 0 682.379)
(682.244 0 0 0 682.244 0 0 0 682.244)
(682.086 0 0 0 682.086 0 0 0 682.086)
(681.903 0 0 0 681.903 0 0 0 681.903)
(681.69 0 0 0 681.69 0 0 0 681.69)
(681.437 0 0 0 681.437 0 0 0 681.437)
(681.126 0 0 0 681.126 0 0 0 681.126)
(680.739 0 0 0 680.739 0 0 0 680.739)
(680.268 0 0 0 680.268 0 0 0 680.268)
(679.767 0 0 0 679.767 0 0 0 679.767)
(679.414 0 0 0 679.414 0 0 0 679.414)
(679.753 0 0 0 679.753 0 0 0 679.753)
(682.108 0 0 0 682.108 0 0 0 682.108)
(688.836 0 0 0 688.836 0 0 0 688.836)
(693.208 0 0 0 693.208 0 0 0 693.208)
(678.935 0 0 0 678.935 0 0 0 678.935)
(678.416 0 0 0 678.416 0 0 0 678.416)
(678.4 0 0 0 678.4 0 0 0 678.4)
(678.374 0 0 0 678.374 0 0 0 678.374)
(678.339 0 0 0 678.339 0 0 0 678.339)
(678.294 0 0 0 678.294 0 0 0 678.294)
(678.236 0 0 0 678.236 0 0 0 678.236)
(678.164 0 0 0 678.164 0 0 0 678.164)
(678.075 0 0 0 678.075 0 0 0 678.075)
(677.969 0 0 0 677.969 0 0 0 677.969)
(677.845 0 0 0 677.845 0 0 0 677.845)
(677.707 0 0 0 677.707 0 0 0 677.707)
(677.559 0 0 0 677.559 0 0 0 677.559)
(677.408 0 0 0 677.408 0 0 0 677.408)
(677.26 0 0 0 677.26 0 0 0 677.26)
(677.112 0 0 0 677.112 0 0 0 677.112)
(676.95 0 0 0 676.95 0 0 0 676.95)
(676.76 0 0 0 676.76 0 0 0 676.76)
(676.533 0 0 0 676.533 0 0 0 676.533)
(676.328 0 0 0 676.328 0 0 0 676.328)
(676.336 0 0 0 676.336 0 0 0 676.336)
(677.132 0 0 0 677.132 0 0 0 677.132)
(680.087 0 0 0 680.087 0 0 0 680.087)
(687.599 0 0 0 687.599 0 0 0 687.599)
(692.829 0 0 0 692.829 0 0 0 692.829)
)
;

boundaryField
{
    outletCentralUnloaded
    {
        type            zeroGradient;
    }
    inletCentralUnloaded
    {
        type            zeroGradient;
    }
    outletFuelElement
    {
        type            zeroGradient;
    }
    inletFuelElement
    {
        type            zeroGradient;
    }
    defaultFaces
    {
        type            zeroGradient;
    }
    baffle_master
    {
        type            zeroGradient;
    }
    baffle_slave
    {
        type            zeroGradient;
    }
}


// ************************************************************************* //
