/*--------------------------------*- C++ -*----------------------------------*\
| =========                 |                                                 |
| \\      /  F ield         | OpenFOAM: The Open Source CFD Toolbox           |
|  \\    /   O peration     | Version:  2212                                  |
|   \\  /    A nd           | Website:  www.openfoam.com                      |
|    \\/     M anipulation  |                                                 |
\*---------------------------------------------------------------------------*/
FoamFile
{
    version     2.0;
    format      ascii;
    arch        "LSB;label=32;scalar=64";
    class       volScalarField;
    location    "45/fluidRegion";
    object      nut;
}
// * * * * * * * * * * * * * * * * * * * * * * * * * * * * * * * * * * * * * //

dimensions      [0 2 -1 0 0 0 0];

internalField   nonuniform List<scalar> 
350
(
0.000537614
0.00053757
0.000537524
0.000537478
0.00053743
0.000537383
0.000537335
0.000537288
0.000537241
0.000537195
0.000537152
0.000537112
0.000537076
0.000537045
0.000537017
0.000536993
0.000536975
0.000536968
0.00053698
0.000537026
0.000537125
0.000537305
0.00053761
0.000538101
0.000539498
0.000537614
0.00053757
0.000537524
0.000537478
0.00053743
0.000537383
0.000537335
0.000537288
0.000537241
0.000537195
0.000537152
0.000537112
0.000537076
0.000537045
0.000537017
0.000536993
0.000536975
0.000536968
0.00053698
0.000537026
0.000537125
0.000537305
0.00053761
0.000538101
0.000539498
0.0103993
0.0101814
0.00991146
0.00958558
0.00920868
0.00878593
0.00832267
0.0078244
0.00729678
0.00674567
0.00617722
0.00559802
0.00501521
0.00443654
0.00387029
0.00332492
0.00280862
0.00232873
0.00189151
0.00150216
0.0011653
0.00088537
0.000666642
0.000511701
0.000416373
0.0104664
0.0102474
0.00997655
0.00964921
0.00927044
0.00884542
0.00837953
0.00787829
0.00734739
0.0067927
0.0062204
0.00563712
0.00505002
0.00446693
0.00389621
0.00334644
0.00282594
0.00234218
0.00190149
0.00150915
0.00116979
0.000887923
0.000667827
0.000512082
0.00041644
0.0103884
0.0101705
0.00990082
0.00957521
0.00919865
0.0087763
0.0083135
0.00781574
0.00728867
0.00673816
0.00617034
0.00559181
0.0050097
0.00443174
0.00386619
0.00332152
0.00280587
0.00232658
0.00188989
0.001501
0.00116452
0.000884881
0.000666361
0.000511553
0.000416324
0.0104515
0.0102328
0.0099621
0.00963505
0.00925666
0.00883212
0.0083668
0.0078662
0.00733601
0.0067821
0.00621066
0.00562828
0.00504213
0.00446003
0.00389032
0.00334155
0.002822
0.00233912
0.00189921
0.00150755
0.00116877
0.000887347
0.000667566
0.000512006
0.00041643
0.0104515
0.0102328
0.0099621
0.00963505
0.00925666
0.00883212
0.0083668
0.0078662
0.00733601
0.0067821
0.00621066
0.00562828
0.00504213
0.00446003
0.00389032
0.00334155
0.002822
0.00233912
0.00189921
0.00150755
0.00116877
0.000887347
0.000667566
0.000512006
0.000416431
0.0103884
0.0101705
0.00990083
0.00957522
0.00919865
0.0087763
0.0083135
0.00781575
0.00728868
0.00673816
0.00617035
0.00559182
0.0050097
0.00443174
0.00386619
0.00332152
0.00280587
0.00232658
0.00188989
0.001501
0.00116451
0.00088488
0.000666359
0.000511552
0.000416324
0.0104664
0.0102474
0.00997655
0.00964921
0.00927044
0.00884542
0.00837953
0.0078783
0.00734739
0.0067927
0.0062204
0.00563712
0.00505002
0.00446693
0.00389621
0.00334644
0.00282594
0.00234218
0.00190149
0.00150915
0.00116979
0.000887923
0.000667827
0.000512082
0.00041644
0.0103993
0.0101814
0.00991146
0.00958558
0.00920868
0.00878593
0.00832267
0.0078244
0.00729678
0.00674567
0.00617722
0.00559802
0.00501521
0.00443654
0.00387029
0.00332492
0.00280862
0.00232873
0.00189151
0.00150216
0.0011653
0.000885369
0.000666641
0.0005117
0.000416373
0.0104515
0.0102328
0.0099621
0.00963505
0.00925666
0.00883212
0.0083668
0.0078662
0.00733601
0.0067821
0.00621066
0.00562828
0.00504213
0.00446003
0.00389032
0.00334155
0.002822
0.00233912
0.00189921
0.00150755
0.00116877
0.000887347
0.000667566
0.000512005
0.00041643
0.0103884
0.0101705
0.00990082
0.00957521
0.00919865
0.0087763
0.0083135
0.00781574
0.00728867
0.00673816
0.00617034
0.00559181
0.0050097
0.00443174
0.00386619
0.00332152
0.00280587
0.00232658
0.00188989
0.00150101
0.00116452
0.000884883
0.000666363
0.000511556
0.000416326
0.0103884
0.0101705
0.00990083
0.00957522
0.00919865
0.0087763
0.0083135
0.00781574
0.00728868
0.00673816
0.00617035
0.00559181
0.0050097
0.00443174
0.00386619
0.00332152
0.00280587
0.00232658
0.00188989
0.001501
0.00116451
0.000884879
0.000666359
0.000511552
0.000416324
0.0104515
0.0102328
0.0099621
0.00963505
0.00925666
0.00883212
0.0083668
0.0078662
0.00733601
0.0067821
0.00621066
0.00562828
0.00504213
0.00446003
0.00389031
0.00334155
0.002822
0.00233912
0.00189921
0.00150755
0.00116877
0.000887346
0.000667564
0.000512004
0.000416429
)
;

boundaryField
{
    outletCentralUnloaded
    {
        type            zeroGradient;
    }
    inletCentralUnloaded
    {
        type            zeroGradient;
    }
    outletFuelElement
    {
        type            zeroGradient;
    }
    inletFuelElement
    {
        type            zeroGradient;
    }
    defaultFaces
    {
        type            zeroGradient;
    }
    baffle_master
    {
        type            calculated;
        value           nonuniform List<scalar> 
150
(
0.000537614
0.000537614
0.000537614
0.00053757
0.00053757
0.00053757
0.000537524
0.000537524
0.000537524
0.000537478
0.000537478
0.000537478
0.00053743
0.00053743
0.00053743
0.000537383
0.000537383
0.000537383
0.000537335
0.000537335
0.000537335
0.000537288
0.000537288
0.000537288
0.000537241
0.000537241
0.000537241
0.000537195
0.000537195
0.000537195
0.000537152
0.000537152
0.000537152
0.000537112
0.000537112
0.000537112
0.000537076
0.000537076
0.000537076
0.000537045
0.000537045
0.000537045
0.000537017
0.000537017
0.000537017
0.000536993
0.000536993
0.000536993
0.000536975
0.000536975
0.000536975
0.000536968
0.000536968
0.000536968
0.00053698
0.00053698
0.00053698
0.000537026
0.000537026
0.000537026
0.000537125
0.000537125
0.000537125
0.000537305
0.000537305
0.000537305
0.00053761
0.00053761
0.00053761
0.000538101
0.000538101
0.000538101
0.000539498
0.000539498
0.000539498
0.000537614
0.000537614
0.000537614
0.00053757
0.00053757
0.00053757
0.000537524
0.000537524
0.000537524
0.000537478
0.000537478
0.000537478
0.00053743
0.00053743
0.00053743
0.000537383
0.000537383
0.000537383
0.000537335
0.000537335
0.000537335
0.000537288
0.000537288
0.000537288
0.000537241
0.000537241
0.000537241
0.000537195
0.000537195
0.000537195
0.000537152
0.000537152
0.000537152
0.000537112
0.000537112
0.000537112
0.000537076
0.000537076
0.000537076
0.000537045
0.000537045
0.000537045
0.000537017
0.000537017
0.000537017
0.000536993
0.000536993
0.000536993
0.000536975
0.000536975
0.000536975
0.000536968
0.000536968
0.000536968
0.00053698
0.00053698
0.00053698
0.000537026
0.000537026
0.000537026
0.000537125
0.000537125
0.000537125
0.000537305
0.000537305
0.000537305
0.00053761
0.00053761
0.00053761
0.000538101
0.000538101
0.000538101
0.000539498
0.000539498
0.000539498
)
;
    }
    baffle_slave
    {
        type            calculated;
        value           nonuniform List<scalar> 
150
(
0.0104664
0.0104515
0.0104515
0.0102474
0.0102328
0.0102328
0.00997655
0.0099621
0.0099621
0.00964921
0.00963505
0.00963505
0.00927044
0.00925666
0.00925666
0.00884542
0.00883212
0.00883212
0.00837953
0.0083668
0.0083668
0.00787829
0.0078662
0.0078662
0.00734739
0.00733601
0.00733601
0.0067927
0.0067821
0.0067821
0.0062204
0.00621066
0.00621066
0.00563712
0.00562828
0.00562828
0.00505002
0.00504213
0.00504213
0.00446693
0.00446003
0.00446003
0.00389621
0.00389032
0.00389031
0.00334644
0.00334155
0.00334155
0.00282594
0.002822
0.002822
0.00234218
0.00233912
0.00233912
0.00190149
0.00189921
0.00189921
0.00150915
0.00150755
0.00150755
0.00116979
0.00116877
0.00116877
0.000887923
0.000887347
0.000887346
0.000667827
0.000667566
0.000667564
0.000512082
0.000512006
0.000512004
0.00041644
0.00041643
0.000416429
0.0104515
0.0104664
0.0104515
0.0102328
0.0102474
0.0102328
0.0099621
0.00997655
0.0099621
0.00963505
0.00964921
0.00963505
0.00925666
0.00927044
0.00925666
0.00883212
0.00884542
0.00883212
0.0083668
0.00837953
0.0083668
0.0078662
0.0078783
0.0078662
0.00733601
0.00734739
0.00733601
0.0067821
0.0067927
0.0067821
0.00621066
0.0062204
0.00621066
0.00562828
0.00563712
0.00562828
0.00504213
0.00505002
0.00504213
0.00446003
0.00446693
0.00446003
0.00389032
0.00389621
0.00389032
0.00334155
0.00334644
0.00334155
0.002822
0.00282594
0.002822
0.00233912
0.00234218
0.00233912
0.00189921
0.00190149
0.00189921
0.00150755
0.00150915
0.00150755
0.00116877
0.00116979
0.00116877
0.000887347
0.000887923
0.000887347
0.000667566
0.000667827
0.000667566
0.000512006
0.000512082
0.000512005
0.000416431
0.00041644
0.00041643
)
;
    }
}


// ************************************************************************* //
