/*--------------------------------*- C++ -*----------------------------------*\
| =========                 |                                                 |
| \\      /  F ield         | OpenFOAM: The Open Source CFD Toolbox           |
|  \\    /   O peration     | Version:  2212                                  |
|   \\  /    A nd           | Website:  www.openfoam.com                      |
|    \\/     M anipulation  |                                                 |
\*---------------------------------------------------------------------------*/
FoamFile
{
    version     2.0;
    format      ascii;
    arch        "LSB;label=32;scalar=64";
    class       volScalarField;
    location    "45/fluidRegion";
    object      p_rgh;
}
// * * * * * * * * * * * * * * * * * * * * * * * * * * * * * * * * * * * * * //

dimensions      [1 -1 -2 0 0 0 0];

internalField   nonuniform List<scalar> 
350
(
3.44743e+06
3.44772e+06
3.44802e+06
3.44832e+06
3.44861e+06
3.44891e+06
3.4492e+06
3.4495e+06
3.44979e+06
3.45009e+06
3.45038e+06
3.45068e+06
3.45098e+06
3.45127e+06
3.45157e+06
3.45186e+06
3.45216e+06
3.45245e+06
3.45275e+06
3.45304e+06
3.45334e+06
3.45363e+06
3.45393e+06
3.45422e+06
3.45451e+06
3.44743e+06
3.44772e+06
3.44802e+06
3.44832e+06
3.44861e+06
3.44891e+06
3.4492e+06
3.4495e+06
3.44979e+06
3.45009e+06
3.45038e+06
3.45068e+06
3.45098e+06
3.45127e+06
3.45157e+06
3.45186e+06
3.45216e+06
3.45245e+06
3.45275e+06
3.45304e+06
3.45334e+06
3.45363e+06
3.45393e+06
3.45422e+06
3.45451e+06
3.47378e+06
3.52548e+06
3.57658e+06
3.62677e+06
3.67575e+06
3.72323e+06
3.76894e+06
3.81267e+06
3.85419e+06
3.89332e+06
3.92989e+06
3.96378e+06
3.99486e+06
4.02307e+06
4.04835e+06
4.0707e+06
4.09016e+06
4.10683e+06
4.12085e+06
4.13238e+06
4.14163e+06
4.14882e+06
4.1542e+06
4.15805e+06
4.16072e+06
3.47378e+06
3.52548e+06
3.57658e+06
3.62677e+06
3.67575e+06
3.72323e+06
3.76894e+06
3.81267e+06
3.85419e+06
3.89332e+06
3.92989e+06
3.96378e+06
3.99486e+06
4.02307e+06
4.04835e+06
4.0707e+06
4.09016e+06
4.10683e+06
4.12085e+06
4.13238e+06
4.14163e+06
4.14882e+06
4.1542e+06
4.15805e+06
4.16072e+06
3.47378e+06
3.52548e+06
3.57658e+06
3.62677e+06
3.67575e+06
3.72323e+06
3.76894e+06
3.81267e+06
3.85419e+06
3.89332e+06
3.92989e+06
3.96378e+06
3.99486e+06
4.02307e+06
4.04835e+06
4.0707e+06
4.09016e+06
4.10683e+06
4.12085e+06
4.13238e+06
4.14163e+06
4.14882e+06
4.1542e+06
4.15805e+06
4.16072e+06
3.47378e+06
3.52548e+06
3.57658e+06
3.62677e+06
3.67575e+06
3.72323e+06
3.76894e+06
3.81267e+06
3.85419e+06
3.89332e+06
3.92989e+06
3.96378e+06
3.99486e+06
4.02307e+06
4.04835e+06
4.0707e+06
4.09016e+06
4.10683e+06
4.12085e+06
4.13238e+06
4.14163e+06
4.14882e+06
4.1542e+06
4.15805e+06
4.16072e+06
3.47378e+06
3.52548e+06
3.57658e+06
3.62677e+06
3.67575e+06
3.72323e+06
3.76894e+06
3.81267e+06
3.85419e+06
3.89332e+06
3.92989e+06
3.96378e+06
3.99486e+06
4.02307e+06
4.04835e+06
4.0707e+06
4.09016e+06
4.10683e+06
4.12085e+06
4.13238e+06
4.14163e+06
4.14882e+06
4.1542e+06
4.15805e+06
4.16072e+06
3.47378e+06
3.52548e+06
3.57658e+06
3.62677e+06
3.67575e+06
3.72323e+06
3.76894e+06
3.81267e+06
3.85419e+06
3.89332e+06
3.92989e+06
3.96378e+06
3.99486e+06
4.02307e+06
4.04835e+06
4.0707e+06
4.09016e+06
4.10683e+06
4.12085e+06
4.13238e+06
4.14163e+06
4.14882e+06
4.1542e+06
4.15805e+06
4.16072e+06
3.47378e+06
3.52548e+06
3.57658e+06
3.62677e+06
3.67575e+06
3.72323e+06
3.76894e+06
3.81267e+06
3.85419e+06
3.89332e+06
3.92989e+06
3.96378e+06
3.99486e+06
4.02307e+06
4.04835e+06
4.0707e+06
4.09016e+06
4.10683e+06
4.12085e+06
4.13238e+06
4.14163e+06
4.14882e+06
4.1542e+06
4.15805e+06
4.16072e+06
3.47378e+06
3.52548e+06
3.57658e+06
3.62677e+06
3.67575e+06
3.72323e+06
3.76894e+06
3.81267e+06
3.85419e+06
3.89332e+06
3.92989e+06
3.96378e+06
3.99486e+06
4.02307e+06
4.04835e+06
4.0707e+06
4.09016e+06
4.10683e+06
4.12085e+06
4.13238e+06
4.14163e+06
4.14882e+06
4.1542e+06
4.15805e+06
4.16072e+06
3.47378e+06
3.52548e+06
3.57658e+06
3.62677e+06
3.67575e+06
3.72323e+06
3.76894e+06
3.81267e+06
3.85419e+06
3.89332e+06
3.92989e+06
3.96378e+06
3.99486e+06
4.02307e+06
4.04835e+06
4.0707e+06
4.09016e+06
4.10683e+06
4.12085e+06
4.13238e+06
4.14163e+06
4.14882e+06
4.1542e+06
4.15805e+06
4.16072e+06
3.47378e+06
3.52548e+06
3.57658e+06
3.62677e+06
3.67575e+06
3.72323e+06
3.76894e+06
3.81267e+06
3.85419e+06
3.89332e+06
3.92989e+06
3.96378e+06
3.99486e+06
4.02307e+06
4.04835e+06
4.0707e+06
4.09016e+06
4.10683e+06
4.12085e+06
4.13238e+06
4.14163e+06
4.14882e+06
4.1542e+06
4.15805e+06
4.16072e+06
3.47378e+06
3.52548e+06
3.57658e+06
3.62677e+06
3.67575e+06
3.72323e+06
3.76894e+06
3.81267e+06
3.85419e+06
3.89332e+06
3.92989e+06
3.96378e+06
3.99486e+06
4.02307e+06
4.04835e+06
4.0707e+06
4.09016e+06
4.10683e+06
4.12085e+06
4.13238e+06
4.14163e+06
4.14882e+06
4.1542e+06
4.15805e+06
4.16072e+06
3.47378e+06
3.52548e+06
3.57658e+06
3.62677e+06
3.67575e+06
3.72323e+06
3.76894e+06
3.81267e+06
3.85419e+06
3.89332e+06
3.92989e+06
3.96378e+06
3.99486e+06
4.02307e+06
4.04835e+06
4.0707e+06
4.09016e+06
4.10683e+06
4.12085e+06
4.13238e+06
4.14163e+06
4.14882e+06
4.1542e+06
4.15805e+06
4.16072e+06
)
;

boundaryField
{
    outletCentralUnloaded
    {
        type            fixedValue;
        value           uniform 3.44728e+06;
    }
    inletCentralUnloaded
    {
        type            zeroGradient;
    }
    outletFuelElement
    {
        type            fixedValue;
        value           uniform 3.44728e+06;
    }
    inletFuelElement
    {
        type            zeroGradient;
    }
    defaultFaces
    {
        type            zeroGradient;
    }
    baffle_master
    {
        type            zeroGradient;
    }
    baffle_slave
    {
        type            zeroGradient;
    }
}


// ************************************************************************* //
