/*--------------------------------*- C++ -*----------------------------------*\
| =========                 |                                                 |
| \\      /  F ield         | OpenFOAM: The Open Source CFD Toolbox           |
|  \\    /   O peration     | Version:  2212                                  |
|   \\  /    A nd           | Website:  www.openfoam.com                      |
|    \\/     M anipulation  |                                                 |
\*---------------------------------------------------------------------------*/
FoamFile
{
    version     2.0;
    format      ascii;
    arch        "LSB;label=32;scalar=64";
    class       volScalarField;
    location    "45/fluidRegion";
    object      T.cladAvForNeutronics;
}
// * * * * * * * * * * * * * * * * * * * * * * * * * * * * * * * * * * * * * //

dimensions      [0 0 0 1 0 0 0];

internalField   nonuniform List<scalar> 
350
(
0
0
0
0
0
0
0
0
0
0
0
0
0
0
0
0
0
0
0
0
0
0
0
0
0
0
0
0
0
0
0
0
0
0
0
0
0
0
0
0
0
0
0
0
0
0
0
0
0
0
1841.58
1879.89
1905.25
1917.67
1917.25
1904.29
1879.19
1842.54
1795.04
1737.53
1671
1596.53
1515.37
1428.84
1338.38
1245.45
1151.43
1057.4
963.735
869.619
772.131
664.986
537.482
377.623
187.071
1869.92
1908.85
1934.61
1947.18
1946.71
1933.46
1907.86
1870.49
1822.08
1763.48
1695.69
1619.83
1537.12
1448.94
1356.73
1261.99
1166.16
1070.35
975.022
879.378
780.503
672.028
543.037
381.232
188.291
1836.97
1875.21
1900.53
1912.93
1912.55
1899.65
1874.65
1838.12
1790.78
1733.46
1667.13
1592.9
1511.99
1425.73
1335.54
1242.9
1149.17
1055.42
962.015
868.138
770.868
663.935
536.665
377.097
186.886
1863.55
1902.32
1927.97
1940.5
1940.02
1926.82
1901.32
1864.11
1815.89
1757.54
1690.03
1614.48
1532.12
1444.31
1352.49
1258.17
1162.76
1067.36
972.412
877.121
778.566
670.398
541.75
380.394
188.009
1863.55
1902.32
1927.97
1940.5
1940.02
1926.82
1901.32
1864.11
1815.89
1757.54
1690.03
1614.48
1532.12
1444.31
1352.49
1258.17
1162.76
1067.36
972.412
877.121
778.566
670.398
541.75
380.394
188.009
1836.98
1875.21
1900.53
1912.94
1912.55
1899.65
1874.65
1838.12
1790.78
1733.46
1667.14
1592.91
1511.99
1425.73
1335.55
1242.9
1149.17
1055.42
962.016
868.139
770.869
663.935
536.666
377.098
186.886
1869.92
1908.85
1934.61
1947.18
1946.71
1933.46
1907.86
1870.49
1822.08
1763.48
1695.69
1619.83
1537.12
1448.94
1356.73
1261.99
1166.16
1070.35
975.022
879.378
780.503
672.028
543.037
381.231
188.291
1841.58
1879.89
1905.25
1917.67
1917.25
1904.29
1879.19
1842.54
1795.04
1737.53
1671
1596.53
1515.37
1428.84
1338.38
1245.45
1151.43
1057.4
963.735
869.619
772.131
664.986
537.482
377.623
187.071
1863.55
1902.32
1927.97
1940.5
1940.02
1926.82
1901.32
1864.11
1815.89
1757.54
1690.03
1614.48
1532.12
1444.31
1352.49
1258.17
1162.76
1067.36
972.412
877.121
778.566
670.398
541.75
380.394
188.009
1836.97
1875.21
1900.53
1912.93
1912.55
1899.65
1874.65
1838.12
1790.78
1733.46
1667.13
1592.9
1511.99
1425.73
1335.54
1242.9
1149.17
1055.42
962.015
868.138
770.868
663.935
536.665
377.097
186.886
1836.98
1875.21
1900.53
1912.94
1912.55
1899.65
1874.65
1838.12
1790.78
1733.46
1667.14
1592.91
1511.99
1425.73
1335.55
1242.9
1149.17
1055.42
962.016
868.139
770.869
663.935
536.666
377.098
186.886
1863.55
1902.32
1927.97
1940.5
1940.02
1926.82
1901.32
1864.11
1815.89
1757.54
1690.03
1614.48
1532.12
1444.31
1352.49
1258.17
1162.76
1067.36
972.412
877.121
778.566
670.398
541.75
380.394
188.009
)
;

boundaryField
{
    outletCentralUnloaded
    {
        type            zeroGradient;
    }
    inletCentralUnloaded
    {
        type            zeroGradient;
    }
    outletFuelElement
    {
        type            zeroGradient;
    }
    inletFuelElement
    {
        type            zeroGradient;
    }
    defaultFaces
    {
        type            zeroGradient;
    }
    baffle_master
    {
        type            zeroGradient;
    }
    baffle_slave
    {
        type            zeroGradient;
    }
}


// ************************************************************************* //
