/*--------------------------------*- C++ -*----------------------------------*\
| =========                 |                                                 |
| \\      /  F ield         | OpenFOAM: The Open Source CFD Toolbox           |
|  \\    /   O peration     | Version:  2212                                  |
|   \\  /    A nd           | Website:  www.openfoam.com                      |
|    \\/     M anipulation  |                                                 |
\*---------------------------------------------------------------------------*/
FoamFile
{
    version     2.0;
    format      ascii;
    arch        "LSB;label=32;scalar=64";
    class       volScalarField;
    location    "45/fluidRegion";
    object      T.fuelAvForNeutronics;
}
// * * * * * * * * * * * * * * * * * * * * * * * * * * * * * * * * * * * * * //

dimensions      [0 0 0 1 0 0 0];

internalField   nonuniform List<scalar> 
350
(
0
0
0
0
0
0
0
0
0
0
0
0
0
0
0
0
0
0
0
0
0
0
0
0
0
0
0
0
0
0
0
0
0
0
0
0
0
0
0
0
0
0
0
0
0
0
0
0
0
0
2205.56
2992.35
3748.49
4462.45
5123.3
5720.9
6246.03
6690.59
7047.72
7311.88
7478.98
7546.45
7513.26
7380.02
7148.88
6823.54
6409.05
5911.51
5337.66
4694.3
3987.14
3219.62
2391.52
1502.23
565.04
2237.91
3033.9
3798.81
4520.98
5189.34
5793.65
6324.58
6773.96
7134.82
7401.58
7570.11
7637.8
7603.64
7468.21
7233.72
6903.92
6483.95
5980.02
5399.01
4747.84
4032.32
3255.9
2418.29
1518.69
570.569
2200.32
2985.66
3740.43
4453.1
5112.77
5709.31
6233.53
6677.35
7033.9
7297.66
7464.54
7531.98
7498.96
7366.06
7135.46
6810.83
6397.21
5900.68
5327.96
4685.85
3980.02
3213.91
2387.33
1499.65
564.168
2230.61
3024.47
3787.35
4507.61
5174.23
5776.98
6306.56
6754.82
7114.81
7380.96
7549.15
7616.78
7582.84
7447.91
7214.18
6885.41
6466.69
5964.24
5384.87
4735.51
4021.91
3247.54
2412.12
1514.9
569.295
2230.61
3024.47
3787.35
4507.61
5174.23
5776.98
6306.56
6754.82
7114.81
7380.96
7549.15
7616.78
7582.84
7447.9
7214.18
6885.41
6466.69
5964.24
5384.87
4735.51
4021.91
3247.54
2412.12
1514.9
569.295
2200.32
2985.67
3740.43
4453.1
5112.77
5709.31
6233.54
6677.35
7033.9
7297.66
7464.54
7531.98
7498.96
7366.06
7135.46
6810.83
6397.21
5900.68
5327.96
4685.85
3980.02
3213.91
2387.33
1499.65
564.169
2237.91
3033.9
3798.81
4520.98
5189.34
5793.65
6324.58
6773.96
7134.82
7401.58
7570.11
7637.8
7603.64
7468.21
7233.72
6903.92
6483.95
5980.02
5399.01
4747.84
4032.32
3255.9
2418.29
1518.69
570.569
2205.56
2992.35
3748.49
4462.45
5123.3
5720.9
6246.03
6690.59
7047.72
7311.88
7478.98
7546.45
7513.26
7380.02
7148.88
6823.54
6409.05
5911.51
5337.66
4694.3
3987.14
3219.62
2391.52
1502.23
565.04
2230.61
3024.47
3787.35
4507.61
5174.23
5776.98
6306.56
6754.82
7114.81
7380.96
7549.15
7616.78
7582.84
7447.9
7214.18
6885.41
6466.69
5964.24
5384.87
4735.51
4021.91
3247.54
2412.12
1514.9
569.295
2200.32
2985.66
3740.43
4453.1
5112.77
5709.31
6233.53
6677.35
7033.9
7297.66
7464.54
7531.98
7498.96
7366.06
7135.46
6810.83
6397.21
5900.68
5327.96
4685.85
3980.02
3213.91
2387.33
1499.65
564.168
2200.32
2985.67
3740.43
4453.1
5112.77
5709.31
6233.54
6677.35
7033.9
7297.66
7464.54
7531.98
7498.96
7366.06
7135.46
6810.83
6397.21
5900.68
5327.96
4685.85
3980.02
3213.91
2387.33
1499.65
564.169
2230.61
3024.47
3787.35
4507.61
5174.23
5776.98
6306.56
6754.82
7114.81
7380.96
7549.15
7616.78
7582.84
7447.9
7214.18
6885.41
6466.69
5964.24
5384.87
4735.51
4021.91
3247.54
2412.12
1514.9
569.295
)
;

boundaryField
{
    outletCentralUnloaded
    {
        type            zeroGradient;
    }
    inletCentralUnloaded
    {
        type            zeroGradient;
    }
    outletFuelElement
    {
        type            zeroGradient;
    }
    inletFuelElement
    {
        type            zeroGradient;
    }
    defaultFaces
    {
        type            zeroGradient;
    }
    baffle_master
    {
        type            zeroGradient;
    }
    baffle_slave
    {
        type            zeroGradient;
    }
}


// ************************************************************************* //
