/*--------------------------------*- C++ -*----------------------------------*\
| =========                 |                                                 |
| \\      /  F ield         | OpenFOAM: The Open Source CFD Toolbox           |
|  \\    /   O peration     | Version:  2212                                  |
|   \\  /    A nd           | Website:  www.openfoam.com                      |
|    \\/     M anipulation  |                                                 |
\*---------------------------------------------------------------------------*/
FoamFile
{
    version     2.0;
    format      ascii;
    arch        "LSB;label=32;scalar=64";
    class       volScalarField;
    location    "45/fluidRegion";
    object      Tci.nuclearFuelPin;
}
// * * * * * * * * * * * * * * * * * * * * * * * * * * * * * * * * * * * * * //

dimensions      [0 0 0 1 0 0 0];

internalField   nonuniform List<scalar> 
350
(
0
0
0
0
0
0
0
0
0
0
0
0
0
0
0
0
0
0
0
0
0
0
0
0
0
0
0
0
0
0
0
0
0
0
0
0
0
0
0
0
0
0
0
0
0
0
0
0
0
0
1847.48
1897.92
1935.12
1958.9
1969.19
1966.12
1949.94
1921.08
1880.13
1827.83
1765.08
1692.92
1612.53
1525.24
1432.5
1335.8
1236.6
1136.03
1034.59
931.573
824.209
706.367
567.514
395.84
193.193
1875.89
1927.08
1964.81
1988.88
1999.24
1995.99
1979.41
1949.92
1908.14
1854.82
1790.85
1717.31
1635.39
1546.44
1451.93
1353.38
1252.3
1149.88
1046.68
942.041
833.177
713.883
573.413
399.656
194.482
1842.87
1893.2
1930.34
1954.09
1964.39
1961.36
1945.26
1916.52
1875.71
1823.59
1761.05
1689.11
1608.97
1521.95
1429.49
1333.09
1234.18
1133.9
1032.74
929.979
822.851
705.24
566.642
395.28
192.996
1869.5
1920.51
1958.1
1982.09
1992.41
1989.19
1972.69
1943.34
1901.73
1848.63
1784.94
1711.71
1630.13
1541.56
1447.45
1349.33
1248.67
1146.68
1043.89
939.621
831.103
712.143
572.046
398.771
194.184
1869.5
1920.51
1958.1
1982.09
1992.41
1989.19
1972.69
1943.33
1901.73
1848.63
1784.94
1711.71
1630.13
1541.56
1447.45
1349.33
1248.67
1146.68
1043.89
939.621
831.103
712.143
572.046
398.771
194.184
1842.87
1893.21
1930.34
1954.09
1964.4
1961.36
1945.26
1916.52
1875.72
1823.59
1761.05
1689.11
1608.97
1521.96
1429.5
1333.09
1234.18
1133.9
1032.74
929.979
822.852
705.241
566.643
395.281
192.996
1875.89
1927.08
1964.81
1988.88
1999.24
1995.99
1979.41
1949.92
1908.14
1854.82
1790.85
1717.31
1635.39
1546.44
1451.93
1353.38
1252.3
1149.88
1046.68
942.041
833.177
713.883
573.413
399.656
194.482
1847.48
1897.92
1935.12
1958.9
1969.19
1966.12
1949.94
1921.08
1880.13
1827.83
1765.08
1692.92
1612.53
1525.24
1432.5
1335.8
1236.6
1136.03
1034.59
931.573
824.209
706.367
567.515
395.84
193.193
1869.5
1920.51
1958.1
1982.09
1992.41
1989.19
1972.69
1943.33
1901.73
1848.63
1784.94
1711.71
1630.13
1541.56
1447.45
1349.33
1248.67
1146.68
1043.89
939.621
831.103
712.143
572.046
398.771
194.184
1842.87
1893.2
1930.34
1954.09
1964.39
1961.36
1945.26
1916.52
1875.71
1823.59
1761.05
1689.11
1608.97
1521.95
1429.49
1333.09
1234.18
1133.9
1032.74
929.979
822.851
705.24
566.643
395.28
192.996
1842.87
1893.21
1930.34
1954.09
1964.4
1961.36
1945.26
1916.52
1875.72
1823.59
1761.05
1689.11
1608.97
1521.96
1429.5
1333.09
1234.18
1133.9
1032.74
929.979
822.852
705.241
566.643
395.281
192.996
1869.5
1920.51
1958.1
1982.09
1992.41
1989.19
1972.69
1943.33
1901.73
1848.63
1784.94
1711.71
1630.13
1541.56
1447.45
1349.33
1248.67
1146.68
1043.89
939.621
831.103
712.143
572.046
398.771
194.184
)
;

boundaryField
{
    outletCentralUnloaded
    {
        type            zeroGradient;
    }
    inletCentralUnloaded
    {
        type            zeroGradient;
    }
    outletFuelElement
    {
        type            zeroGradient;
    }
    inletFuelElement
    {
        type            zeroGradient;
    }
    defaultFaces
    {
        type            zeroGradient;
    }
    baffle_master
    {
        type            zeroGradient;
    }
    baffle_slave
    {
        type            zeroGradient;
    }
}


// ************************************************************************* //
