/*--------------------------------*- C++ -*----------------------------------*\
| =========                 |                                                 |
| \\      /  F ield         | OpenFOAM: The Open Source CFD Toolbox           |
|  \\    /   O peration     | Version:  2212                                  |
|   \\  /    A nd           | Website:  www.openfoam.com                      |
|    \\/     M anipulation  |                                                 |
\*---------------------------------------------------------------------------*/
FoamFile
{
    version     2.0;
    format      ascii;
    arch        "LSB;label=32;scalar=64";
    class       volScalarField;
    location    "45/fluidRegion";
    object      Tfo.nuclearFuelPin;
}
// * * * * * * * * * * * * * * * * * * * * * * * * * * * * * * * * * * * * * //

dimensions      [0 0 0 1 0 0 0];

internalField   nonuniform List<scalar> 
350
(
0
0
0
0
0
0
0
0
0
0
0
0
0
0
0
0
0
0
0
0
0
0
0
0
0
0
0
0
0
0
0
0
0
0
0
0
0
0
0
0
0
0
0
0
0
0
0
0
0
0
2012.69
2401.94
2769.94
3111.29
3420.91
3694.21
3927.09
4116.05
4258.25
4351.55
4394.54
4386.61
4327.92
4219.46
4063.01
3861.09
3616.79
3333.54
3014.7
2663.04
2279.68
1862.88
1406.86
904.942
364.256
2042.92
2436.81
2809.13
3154.41
3467.53
3743.82
3979.16
4169.99
4313.47
4407.4
4450.4
4441.82
4381.85
4271.49
4112.54
3907.57
3659.73
3372.55
3049.47
2693.33
2305.31
1883.63
1422.36
914.58
367.497
2007.78
2396.32
2763.65
3104.38
3413.47
3686.31
3918.82
4107.5
4249.51
4342.72
4385.72
4377.89
4319.41
4211.26
4055.22
3853.78
3610.03
3327.41
3009.24
2658.29
2275.67
1859.64
1404.45
903.456
363.749
2036.11
2428.92
2800.23
3144.59
3456.89
3732.48
3967.23
4157.63
4300.8
4394.58
4437.56
4429.12
4369.44
4259.51
4101.14
3896.86
3649.83
3363.55
3041.45
2686.35
2299.4
1878.84
1418.78
912.355
366.75
2036.11
2428.92
2800.23
3144.59
3456.89
3732.48
3967.23
4157.63
4300.8
4394.57
4437.56
4429.12
4369.44
4259.51
4101.14
3896.86
3649.83
3363.55
3041.45
2686.35
2299.4
1878.84
1418.78
912.355
366.75
2007.78
2396.32
2763.65
3104.39
3413.48
3686.31
3918.82
4107.5
4249.51
4342.72
4385.72
4377.89
4319.41
4211.26
4055.22
3853.78
3610.04
3327.41
3009.25
2658.29
2275.67
1859.64
1404.46
903.456
363.749
2042.92
2436.81
2809.13
3154.41
3467.53
3743.82
3979.16
4169.99
4313.47
4407.4
4450.4
4441.82
4381.85
4271.49
4112.54
3907.57
3659.73
3372.54
3049.47
2693.33
2305.31
1883.63
1422.36
914.58
367.497
2012.69
2401.94
2769.94
3111.29
3420.91
3694.21
3927.09
4116.05
4258.25
4351.55
4394.54
4386.61
4327.92
4219.46
4063.01
3861.09
3616.79
3333.54
3014.7
2663.04
2279.68
1862.88
1406.86
904.942
364.256
2036.11
2428.92
2800.23
3144.59
3456.89
3732.48
3967.23
4157.63
4300.8
4394.58
4437.56
4429.12
4369.44
4259.51
4101.14
3896.86
3649.83
3363.55
3041.45
2686.35
2299.4
1878.84
1418.78
912.355
366.75
2007.78
2396.32
2763.65
3104.38
3413.47
3686.31
3918.82
4107.5
4249.51
4342.72
4385.72
4377.89
4319.41
4211.26
4055.22
3853.78
3610.03
3327.41
3009.24
2658.29
2275.67
1859.64
1404.45
903.455
363.749
2007.78
2396.32
2763.65
3104.39
3413.48
3686.31
3918.82
4107.5
4249.51
4342.72
4385.72
4377.89
4319.41
4211.26
4055.22
3853.78
3610.04
3327.41
3009.25
2658.29
2275.67
1859.64
1404.45
903.456
363.749
2036.11
2428.92
2800.23
3144.59
3456.89
3732.48
3967.23
4157.63
4300.79
4394.57
4437.56
4429.12
4369.44
4259.51
4101.14
3896.86
3649.83
3363.55
3041.45
2686.35
2299.4
1878.84
1418.78
912.355
366.75
)
;

boundaryField
{
    outletCentralUnloaded
    {
        type            zeroGradient;
    }
    inletCentralUnloaded
    {
        type            zeroGradient;
    }
    outletFuelElement
    {
        type            zeroGradient;
    }
    inletFuelElement
    {
        type            zeroGradient;
    }
    defaultFaces
    {
        type            zeroGradient;
    }
    baffle_master
    {
        type            zeroGradient;
    }
    baffle_slave
    {
        type            zeroGradient;
    }
}


// ************************************************************************* //
