/*--------------------------------*- C++ -*----------------------------------*\
| =========                 |                                                 |
| \\      /  F ield         | OpenFOAM: The Open Source CFD Toolbox           |
|  \\    /   O peration     | Version:  2212                                  |
|   \\  /    A nd           | Website:  www.openfoam.com                      |
|    \\/     M anipulation  |                                                 |
\*---------------------------------------------------------------------------*/
FoamFile
{
    version     2.0;
    format      ascii;
    arch        "LSB;label=32;scalar=64";
    class       scalarFieldField;
    location    "45/fluidRegion";
    object      Trad.nuclearFuelPin;
}
// * * * * * * * * * * * * * * * * * * * * * * * * * * * * * * * * * * * * * //


350
(
0()
0()
0()
0()
0()
0()
0()
0()
0()
0()
0()
0()
0()
0()
0()
0()
0()
0()
0()
0()
0()
0()
0()
0()
0()
0()
0()
0()
0()
0()
0()
0()
0()
0()
0()
0()
0()
0()
0()
0()
0()
0()
0()
0()
0()
0()
0()
0()
0()
0()

20
(
2399.11
2397.41
2392.3
2383.78
2371.85
2356.49
2337.72
2315.5
2289.85
2260.73
2228.15
2192.08
2152.52
2109.44
2062.84
2012.69
1847.48
1843.55
1839.75
1836.07
)


20
(
3586.92
3581.67
3565.92
3539.66
3502.89
3455.6
3397.79
3329.45
3250.56
3161.11
3061.1
2950.5
2829.3
2697.48
2555.04
2401.94
1897.92
1885.92
1874.31
1863.06
)


20
(
4734.6
4725.88
4699.74
4656.16
4595.13
4516.67
4420.75
4307.36
4176.5
4028.15
3862.3
3678.93
3478.03
3259.57
3023.55
2769.94
1935.12
1915.24
1896
1877.38
)


20
(
5824.45
5812.41
5776.28
5716.07
5631.77
5523.37
5390.86
5234.23
5053.48
4848.58
4619.52
4366.29
4088.87
3787.24
3461.39
3111.29
1958.9
1931.45
1904.9
1879.18
)


20
(
6839.61
6824.43
6778.9
6703.02
6596.77
6460.15
6293.16
6095.77
5867.98
5609.78
5321.15
5002.07
4652.52
4272.5
3861.97
3420.91
1969.19
1934.62
1901.16
1868.77
)


20
(
7764.35
7746.28
7692.07
7601.71
7475.19
7312.52
7113.68
6878.66
6607.45
6300.03
5956.39
5576.51
5160.37
4707.95
4219.24
3694.21
1966.12
1924.96
1885.13
1846.57
)


20
(
8584.31
8563.63
8501.59
8398.19
8253.41
8067.26
7839.72
7570.79
7260.44
6908.66
6515.45
6080.77
5604.62
5086.96
4527.8
3927.09
1949.94
1902.84
1857.28
1813.16
)


20
(
9286.75
9263.79
9194.9
9080.09
8919.34
8712.65
8460.01
8161.41
7816.83
7426.26
6989.68
6507.08
5978.44
5403.73
4782.94
4116.05
1921.08
1868.79
1818.21
1769.23
)


20
(
9860.72
9835.84
9761.2
9636.79
9462.61
9238.65
8964.9
8641.35
8267.99
7844.8
7371.76
6848.86
6276.08
5653.4
4980.8
4258.25
1880.13
1823.48
1768.68
1715.61
)


20
(
10297.3
10270.9
10191.7
10059.6
9874.75
9637.06
9346.53
9003.15
8606.9
8157.78
7655.75
7100.82
6492.95
5832.13
5118.33
4351.55
1827.83
1767.71
1709.56
1653.24
)


20
(
10589.6
10562.1
10479.6
10342
10149.4
9901.69
9598.97
9241.18
8828.3
8360.34
7837.26
7259.05
6625.69
5937.17
5193.46
4394.54
1765.08
1702.44
1641.85
1583.17
)


20
(
10733.2
10705
10620.4
10479.5
10282.1
10028.4
9718.28
9351.74
8928.76
8449.34
7913.47
7321.12
6672.27
5966.92
5205.04
4386.61
1692.92
1628.75
1566.68
1506.56
)


20
(
10725.8
10697.4
10612.1
10470
10271.1
10015.3
9702.66
9333.14
8906.74
8423.44
7883.23
7286.1
6632.02
5920.97
5152.94
4327.92
1612.53
1547.85
1485.27
1424.67
)


20
(
10567.6
10539.4
10454.8
10313.8
10116.4
9862.61
9552.39
9185.74
8762.65
8283.11
7747.1
7154.61
6505.61
5800.1
5038.06
4219.46
1525.24
1461.06
1398.98
1338.85
)


20
(
10261.2
10233.6
10151
10013.4
9820.64
9572.83
9269.93
8911.94
8498.85
8030.63
7507.28
6928.79
6295.13
5606.29
4862.26
4063.01
1432.5
1369.84
1309.22
1250.51
)


20
(
9811.38
9784.95
9705.66
9573.5
9388.47
9150.57
8859.78
8516.1
8119.52
7670.03
7167.6
6612.24
6003.92
5342.64
4628.36
3861.09
1335.8
1275.65
1217.46
1161.1
)


20
(
9225.26
9200.35
9125.61
9001.04
8826.64
8602.4
8328.31
8004.38
7630.57
7206.9
6733.34
6209.88
5636.51
5013.21
4339.97
3616.79
1236.6
1179.9
1125.05
1071.93
)


20
(
8511.61
8488.61
8419.61
8304.6
8143.58
7936.54
7683.49
7384.41
7039.29
6648.13
6210.91
5727.62
5198.25
4622.79
4001.22
3333.54
1136.03
1083.68
1033.04
983.997
)


20
(
7680.56
7659.84
7597.66
7494.02
7348.93
7162.38
6934.35
6664.86
6353.88
6001.41
5607.43
5171.95
4694.95
4176.42
3616.34
3014.7
1034.59
987.418
941.788
897.597
)


20
(
6743.01
6724.89
6670.52
6579.89
6453.02
6289.89
6090.5
5854.85
5582.91
5274.7
4930.2
4549.4
4132.3
3678.88
3189.13
2663.04
931.573
890.328
850.427
811.786
)


20
(
5709.28
5694.04
5648.34
5572.16
5465.51
5328.39
5160.78
4962.69
4734.11
4475.03
4185.44
3865.34
3514.73
3133.58
2721.9
2279.68
824.209
789.539
755.998
723.516
)


20
(
4588.01
4575.91
4539.59
4479.06
4394.32
4285.36
4152.18
3994.78
3813.15
3607.29
3377.19
3122.84
2844.24
2541.39
2214.27
1862.88
706.367
678.818
652.167
626.357
)


20
(
3384.65
3375.86
3349.51
3305.58
3244.08
3165
3068.34
2954.1
2822.28
2672.88
2505.88
2321.28
2119.09
1899.29
1661.88
1406.86
567.514
547.521
528.179
509.447
)


20
(
2104.68
2099.35
2083.36
2056.71
2019.4
1971.43
1912.79
1843.49
1763.52
1672.89
1571.59
1459.61
1336.96
1203.63
1059.63
904.942
395.84
383.712
371.98
360.619
)


20
(
767.658
765.864
760.484
751.517
738.963
722.823
703.096
679.784
652.887
622.405
588.338
550.687
509.453
464.636
416.237
364.256
193.193
189.118
185.175
181.357
)


20
(
2433.58
2431.86
2426.69
2418.08
2406.02
2390.5
2371.52
2349.06
2323.12
2293.69
2260.75
2224.29
2184.29
2140.74
2093.62
2042.92
1875.89
1871.91
1868.07
1864.35
)


20
(
3635.19
3629.88
3613.94
3587.39
3550.2
3502.38
3443.92
3374.81
3295.03
3204.57
3103.43
2991.58
2869.01
2735.7
2591.64
2436.81
1927.08
1914.95
1903.2
1891.83
)


20
(
4796.12
4787.3
4760.86
4716.78
4655.07
4575.71
4478.7
4364.03
4231.68
4081.65
3913.91
3728.46
3525.27
3304.34
3065.63
2809.13
1964.81
1944.7
1925.25
1906.41
)


20
(
5898.48
5886.3
5849.77
5788.87
5703.61
5593.97
5459.96
5301.55
5118.73
4911.5
4679.84
4423.72
4143.14
3838.08
3508.51
3154.41
1988.88
1961.12
1934.27
1908.26
)


20
(
6925.22
6909.87
6863.82
6787.07
6679.61
6541.44
6372.54
6172.9
5942.52
5681.37
5389.45
5066.73
4713.2
4328.83
3913.62
3467.53
1999.24
1964.27
1930.43
1897.67
)


20
(
7860.43
7842.15
7787.32
7695.93
7567.97
7403.44
7202.33
6964.63
6690.33
6379.4
6031.83
5647.62
5226.72
4769.14
4274.85
3743.82
1995.99
1954.36
1914.08
1875.08
)


20
(
8689.58
8668.66
8605.91
8501.33
8354.9
8166.62
7936.48
7664.48
7350.58
6994.79
6597.08
6157.44
5675.85
5152.28
4586.73
3979.16
1979.41
1931.77
1885.69
1841.07
)


20
(
9399.78
9376.55
9306.88
9190.75
9028.17
8819.12
8563.59
8261.58
7913.06
7518.03
7076.47
6588.35
6053.67
5472.39
4844.51
4169.99
1949.92
1897.04
1845.88
1796.34
)


20
(
9979.97
9954.81
9879.31
9753.48
9577.31
9350.79
9073.91
8746.67
8369.04
7941.01
7462.57
6933.69
6354.36
5724.56
5044.27
4313.47
1908.14
1850.85
1795.42
1741.74
)


20
(
10421.1
10394.4
10314.3
10180.7
9993.76
9753.35
9459.5
9112.19
8711.41
8257.15
7749.39
7188.11
6573.29
5904.91
5182.96
4407.4
1854.82
1794.01
1735.19
1678.23
)


20
(
10716.3
10688.5
10605
10465.8
10271
10020.5
9714.34
9352.46
8934.87
8461.55
7932.48
7347.66
6707.06
6010.67
5258.45
4450.4
1790.85
1727.5
1666.22
1606.86
)


20
(
10861
10832.5
10746.9
10604.4
10404.8
10148.2
9834.48
9463.74
9035.93
8551.03
8009.02
7409.9
6753.63
6040.21
5269.61
4441.82
1717.31
1652.41
1589.63
1528.83
)


20
(
10852.9
10824.2
10737.9
10594.2
10393
10134.3
9818.07
9444.33
9013.05
8524.23
7977.84
7373.87
6712.31
5993.13
5216.32
4381.85
1635.39
1569.97
1506.68
1445.39
)


20
(
10692.2
10663.7
10578.2
10435.6
10235.9
9979.2
9665.43
9294.59
8866.66
8381.63
7839.49
7240.22
6583.8
5870.22
5099.45
4271.49
1546.44
1481.53
1418.73
1357.92
)


20
(
10381.6
10353.8
10270.2
10131
9936.05
9685.4
9379.04
9016.96
8599.13
8125.56
7596.22
7011.11
6370.2
5673.48
4920.93
4112.54
1451.93
1388.55
1327.24
1267.86
)


20
(
9925.95
9899.22
9819.02
9685.34
9498.2
9257.57
8963.46
8615.85
8214.73
7760.09
7251.92
6690.2
6074.93
5406.07
4683.62
3907.57
1353.38
1292.54
1233.68
1176.68
)


20
(
9332.39
9307.19
9231.59
9105.6
8929.2
8702.4
8425.18
8097.53
7719.45
7290.93
6811.95
6282.5
5702.57
5072.14
4391.2
3659.73
1252.3
1194.95
1139.47
1085.75
)


20
(
8609.88
8586.62
8516.82
8400.5
8237.63
8028.23
7772.28
7469.78
7120.71
6725.07
6282.85
5794.03
5258.6
4676.55
4047.87
3372.55
1149.88
1096.94
1045.72
996.113
)


20
(
7768.73
7747.77
7684.87
7580.05
7433.3
7244.61
7013.98
6741.4
6426.86
6070.36
5671.88
5231.41
4748.95
4224.48
3657.99
3049.47
1046.68
998.976
952.823
908.126
)


20
(
6820
6801.67
6746.68
6655.02
6526.69
6361.7
6160.02
5921.67
5646.63
5334.89
4986.44
4601.29
4179.41
3720.8
3225.44
2693.33
942.041
900.324
859.967
820.883
)


20
(
5774.16
5758.75
5712.53
5635.48
5527.61
5388.91
5219.39
5019.03
4787.83
4525.79
4232.89
3909.13
3554.5
3168.99
2752.59
2305.31
833.177
798.11
764.186
731.332
)


20
(
4639.95
4627.71
4590.98
4529.76
4444.05
4333.84
4199.14
4039.93
3856.23
3648.01
3415.27
3158.01
2876.23
2569.91
2239.04
1883.63
713.883
686.019
659.063
632.957
)


20
(
3422.78
3413.89
3387.23
3342.8
3280.6
3200.61
3102.85
2987.31
2853.98
2702.86
2533.95
2347.25
2142.74
1920.42
1680.3
1422.36
573.413
553.191
533.627
514.681
)


20
(
2128.03
2122.64
2106.47
2079.51
2041.78
1993.26
1933.95
1863.86
1782.98
1691.31
1588.85
1475.59
1351.54
1216.69
1071.04
914.58
399.656
387.39
375.524
364.032
)


20
(
775.493
773.68
768.238
759.169
746.472
730.148
710.198
686.62
659.416
628.587
594.132
556.053
514.349
469.021
420.07
367.497
194.482
190.361
186.373
182.512
)


20
(
2393.53
2391.83
2386.73
2378.22
2366.31
2350.99
2332.24
2310.07
2284.45
2255.39
2222.86
2186.86
2147.36
2104.36
2057.84
2007.78
1842.87
1838.94
1835.15
1831.47
)


20
(
3579.16
3573.92
3558.2
3531.98
3495.28
3448.08
3390.37
3322.15
3243.4
3154.12
3054.28
2943.88
2822.9
2691.33
2549.14
2396.32
1893.2
1881.22
1869.63
1858.41
)


20
(
4724.75
4716.05
4689.95
4646.45
4585.54
4507.21
4411.46
4298.28
4167.66
4019.58
3854.03
3670.99
3470.45
3252.39
3016.8
2763.65
1930.34
1910.49
1891.29
1872.7
)


20
(
5812.62
5800.6
5764.54
5704.44
5620.29
5512.09
5379.82
5223.48
5043.05
4838.52
4609.88
4357.11
4080.2
3779.11
3453.85
3104.38
1954.09
1926.69
1900.19
1874.52
)


20
(
6825.96
6810.81
6765.37
6689.62
6583.56
6447.19
6280.5
6083.47
5856.1
5598.37
5310.26
4991.76
4642.85
4263.51
3853.72
3413.47
1964.39
1929.88
1896.49
1864.15
)


20
(
7749.05
7731.02
7676.9
7586.7
7460.42
7298.04
7099.57
6864.97
6594.25
6287.39
5944.38
5565.19
5149.8
4698.21
4210.39
3686.31
1961.36
1920.28
1880.53
1842.03
)


20
(
8567.57
8546.93
8485
8381.78
8237.27
8051.46
7824.33
7555.88
7246.1
6894.97
6502.46
6068.58
5593.29
5076.58
4518.43
3918.82
1945.26
1898.25
1852.77
1808.73
)


20
(
9268.78
9245.86
9177.1
9062.5
8902.04
8695.73
8443.55
8145.49
7801.54
7411.68
6975.9
6494.18
5966.49
5392.83
4773.17
4107.5
1916.52
1864.33
1813.84
1764.94
)


20
(
9841.78
9816.94
9742.43
9618.25
9444.39
9220.84
8947.59
8624.63
8251.94
7829.52
7357.35
6835.4
6263.66
5642.12
4970.74
4249.51
1875.71
1819.17
1764.47
1711.49
)


20
(
10277.6
10251.3
10172.2
10040.4
9855.86
9618.6
9328.6
8985.85
8590.32
8142.01
7640.9
7086.97
6480.21
5820.6
5108.1
4342.72
1823.59
1763.59
1705.54
1649.32
)


20
(
10569.5
10542
10459.7
10322.3
10130.1
9882.84
9580.66
9223.52
8811.4
8344.29
7822.16
7245
6612.8
5925.53
5183.18
4385.72
1761.05
1698.53
1638.04
1579.47
)


20
(
10712.9
10684.8
10600.4
10459.7
10262.7
10009.4
9699.86
9333.98
8911.77
8433.23
7898.33
7307.06
6659.4
5955.33
5194.83
4377.89
1689.11
1625.06
1563.1
1503.1
)


20
(
10705.6
10677.3
10592.2
10450.3
10251.8
9996.44
9684.36
9315.52
8889.89
8407.48
7868.25
7272.2
6619.31
5909.56
5142.94
4319.41
1608.97
1544.41
1481.95
1421.46
)


20
(
10547.8
10519.7
10435.2
10294.5
10097.5
9844.13
9534.48
9168.5
8746.18
8267.51
7732.48
7141.06
6493.25
5789.02
5028.37
4211.26
1521.95
1457.89
1395.92
1335.9
)


20
(
10242.1
10214.6
10132.1
9994.73
9802.35
9554.99
9252.65
8895.31
8482.97
8015.6
7493.21
6915.77
6283.26
5595.68
4853
4055.22
1429.49
1366.95
1306.44
1247.84
)


20
(
9793.23
9766.85
9687.7
9555.78
9371.09
9133.62
8843.36
8500.31
8104.45
7655.77
7154.27
6599.92
5992.71
5332.62
4619.65
3853.78
1333.09
1273.05
1214.96
1158.71
)


20
(
9208.29
9183.42
9108.82
8984.48
8810.39
8586.56
8312.98
7989.63
7616.51
7193.6
6720.9
6198.4
5626.07
5003.91
4331.9
3610.03
1234.18
1177.59
1122.84
1069.82
)


20
(
8496.04
8473.08
8404.21
8289.4
8128.68
7922.02
7669.43
7370.89
7026.41
6635.95
6199.53
5717.12
5188.72
4614.31
3993.87
3327.41
1133.9
1081.65
1031.1
982.15
)


20
(
7666.6
7645.91
7583.84
7480.4
7335.57
7149.36
6921.75
6652.74
6342.33
5990.5
5597.25
5162.56
4686.43
4168.84
3609.78
3009.24
1032.74
985.655
940.108
895.997
)


20
(
6730.82
6712.73
6658.46
6568
6441.36
6278.53
6079.5
5844.28
5572.84
5265.19
4921.32
4541.21
4124.87
3672.27
3183.42
2658.29
929.979
888.809
848.981
810.41
)


20
(
5699.01
5683.81
5638.19
5562.15
5455.69
5318.82
5151.52
4953.79
4725.62
4467.01
4177.96
3858.44
3508.46
3128.01
2717.08
2275.67
822.851
788.244
754.765
722.342
)


20
(
4579.81
4567.73
4531.48
4471.06
4386.47
4277.71
4144.77
3987.66
3806.36
3600.87
3371.19
3117.31
2839.22
2536.91
2210.39
1859.64
705.24
677.742
651.139
625.376
)


20
(
3378.64
3369.87
3343.57
3299.72
3238.33
3159.39
3062.91
2948.88
2817.3
2668.17
2501.47
2317.21
2115.39
1895.99
1659.01
1404.45
566.642
546.685
527.379
508.681
)


20
(
2101.01
2095.69
2079.73
2053.13
2015.88
1968
1909.47
1840.29
1760.47
1670
1568.88
1457.11
1334.69
1201.6
1057.86
903.456
395.28
383.175
371.465
360.124
)


20
(
766.418
764.628
759.257
750.306
737.775
721.665
701.974
678.704
651.856
621.429
587.424
549.841
508.682
463.946
415.635
363.749
192.996
188.928
184.993
181.182
)


20
(
2425.79
2424.08
2418.92
2410.33
2398.3
2382.82
2363.89
2341.49
2315.61
2286.25
2253.39
2217.02
2177.12
2133.68
2086.68
2036.11
1869.5
1865.54
1861.7
1857.99
)


20
(
3624.21
3618.91
3603.02
3576.53
3539.44
3491.75
3433.43
3364.5
3284.92
3194.7
3093.82
2982.26
2860
2727.04
2583.35
2428.92
1920.51
1908.4
1896.69
1885.34
)


20
(
4782.08
4773.28
4746.91
4702.95
4641.39
4562.24
4465.48
4351.1
4219.1
4069.45
3902.15
3717.18
3514.52
3294.15
3056.06
2800.23
1958.1
1938.04
1918.64
1899.85
)


20
(
5881.54
5869.4
5832.95
5772.22
5687.17
5577.82
5444.15
5286.16
5103.82
4897.12
4666.06
4410.61
4130.75
3826.48
3497.76
3144.59
1982.09
1954.4
1927.61
1901.67
)


20
(
6905.6
6890.3
6844.37
6767.81
6660.63
6522.82
6354.35
6155.24
5925.45
5664.98
5373.82
5051.94
4699.32
4315.95
3901.82
3456.89
1992.41
1957.53
1923.79
1891.11
)


20
(
7838.39
7820.16
7765.47
7674.31
7546.69
7382.59
7182
6944.92
6671.32
6361.2
6014.54
5631.32
5211.53
4755.13
4262.12
3732.48
1989.19
1947.67
1907.5
1868.59
)


20
(
8665.41
8644.55
8581.96
8477.65
8331.6
8143.81
7914.27
7642.97
7329.9
6975.03
6578.36
6139.86
5659.52
5137.31
4573.22
3967.23
1972.69
1925.18
1879.22
1834.7
)


20
(
9373.81
9350.65
9281.15
9165.33
9003.17
8794.66
8539.8
8238.57
7890.96
7496.96
7056.54
6569.7
6036.4
5456.64
4830.39
4157.63
1943.34
1890.59
1839.57
1790.15
)


20
(
9952.56
9927.46
9852.16
9726.66
9550.94
9325.01
9048.86
8722.46
8345.82
7918.9
7441.7
6914.2
6336.38
5708.22
5029.7
4300.8
1901.73
1844.59
1789.3
1735.77
)


20
(
10392.6
10366
10286.1
10152.9
9966.39
9726.61
9433.52
9087.12
8687.38
8234.3
7727.86
7168.04
6554.82
5888.18
5168.11
4394.58
1848.63
1787.99
1729.32
1672.5
)


20
(
10687.2
10659.4
10576.1
10437.4
10243
9993.19
9687.8
9326.86
8910.35
8438.27
7910.58
7327.28
6688.35
5993.77
5243.51
4437.56
1784.94
1721.75
1660.63
1601.43
)


20
(
10831.6
10803.1
10717.8
10575.6
10376.6
10120.6
9807.74
9437.97
9011.27
8527.63
7987.04
7389.47
6734.92
6023.35
5254.76
4429.12
1711.71
1646.98
1584.36
1523.71
)


20
(
10823.6
10795
10709
10565.6
10364.9
10106.9
9791.51
9418.74
8988.58
8501.03
7956.07
7353.67
6693.83
5976.52
5201.73
4369.44
1630.13
1564.88
1501.76
1440.62
)


20
(
10663.5
10635.1
10549.8
10407.5
10208.4
9952.36
9639.41
9269.53
8842.72
8358.95
7818.22
7220.51
6565.8
5854.08
5085.32
4259.51
1541.56
1476.82
1414.18
1353.53
)


20
(
10353.9
10326.1
10242.8
10103.9
9909.47
9659.48
9353.92
8992.77
8576.04
8103.7
7575.74
6992.15
6352.91
5658.01
4907.42
4101.14
1447.45
1384.23
1323.08
1263.86
)


20
(
9899.57
9872.9
9792.91
9659.59
9472.93
9232.93
8939.59
8592.88
8192.81
7739.35
7232.5
6672.25
6058.57
5391.46
4670.89
3896.86
1349.33
1288.64
1229.94
1173.08
)


20
(
9307.72
9282.58
9207.19
9081.52
8905.58
8679.37
8402.87
8076.08
7698.98
7271.57
6793.84
6265.77
5687.35
5058.56
4379.39
3649.83
1248.67
1191.48
1136.14
1082.56
)


20
(
8587.25
8564.04
8494.43
8378.41
8215.97
8007.11
7751.83
7450.12
7101.96
6707.35
6266.27
5778.73
5244.7
4664.16
4037.12
3363.55
1146.68
1093.87
1042.79
993.312
)


20
(
7748.42
7727.51
7664.79
7560.24
7413.87
7225.67
6995.64
6723.77
6410.05
6054.47
5657.03
5217.71
4736.51
4213.4
3648.39
3041.45
1043.89
996.304
950.271
905.691
)


20
(
6802.27
6783.98
6729.13
6637.71
6509.72
6345.16
6144.01
5906.28
5631.95
5321.02
4973.49
4589.33
4168.55
3711.14
3217.07
2686.35
939.621
898.013
857.76
818.778
)


20
(
5759.22
5743.85
5697.74
5620.89
5513.31
5374.97
5205.89
5006.05
4775.45
4514.09
4221.95
3899.04
3545.33
3160.83
2745.52
2299.4
831.103
796.127
762.291
729.523
)


20
(
4627.99
4615.77
4579.14
4518.08
4432.59
4322.67
4188.32
4029.53
3846.3
3638.62
3406.49
3149.91
2868.85
2563.33
2233.33
1878.84
712.143
684.352
657.466
631.429
)


20
(
3413.99
3405.13
3378.54
3334.22
3272.18
3192.41
3094.9
2979.66
2846.68
2695.95
2527.48
2341.26
2137.29
1915.55
1676.05
1418.78
572.046
551.877
532.364
513.468
)


20
(
2122.65
2117.27
2101.14
2074.26
2036.62
1988.22
1929.07
1859.16
1778.49
1687.06
1584.87
1471.9
1348.17
1213.68
1068.4
912.355
398.771
386.537
374.702
363.24
)


20
(
773.688
771.879
766.452
757.406
744.742
728.461
708.562
685.045
657.912
627.163
592.797
554.816
513.22
468.01
419.186
366.75
194.184
190.073
186.096
182.245
)


20
(
2425.79
2424.08
2418.92
2410.33
2398.3
2382.82
2363.89
2341.49
2315.61
2286.25
2253.39
2217.02
2177.12
2133.68
2086.68
2036.11
1869.5
1865.54
1861.7
1857.99
)


20
(
3624.21
3618.91
3603.02
3576.53
3539.44
3491.75
3433.43
3364.5
3284.92
3194.7
3093.82
2982.26
2860
2727.04
2583.35
2428.92
1920.51
1908.4
1896.69
1885.34
)


20
(
4782.08
4773.28
4746.91
4702.95
4641.39
4562.24
4465.48
4351.1
4219.1
4069.45
3902.15
3717.18
3514.52
3294.15
3056.06
2800.23
1958.1
1938.04
1918.64
1899.85
)


20
(
5881.54
5869.4
5832.95
5772.22
5687.17
5577.82
5444.15
5286.16
5103.82
4897.12
4666.06
4410.61
4130.75
3826.48
3497.76
3144.59
1982.09
1954.4
1927.61
1901.67
)


20
(
6905.6
6890.29
6844.37
6767.81
6660.63
6522.82
6354.35
6155.24
5925.45
5664.98
5373.82
5051.94
4699.32
4315.95
3901.82
3456.89
1992.41
1957.53
1923.79
1891.11
)


20
(
7838.39
7820.16
7765.47
7674.31
7546.69
7382.59
7182
6944.92
6671.32
6361.2
6014.54
5631.32
5211.53
4755.13
4262.12
3732.48
1989.19
1947.67
1907.5
1868.59
)


20
(
8665.41
8644.55
8581.96
8477.65
8331.6
8143.81
7914.27
7642.97
7329.9
6975.03
6578.36
6139.86
5659.52
5137.31
4573.22
3967.23
1972.69
1925.18
1879.22
1834.7
)


20
(
9373.81
9350.64
9281.15
9165.33
9003.17
8794.66
8539.8
8238.57
7890.96
7496.96
7056.54
6569.7
6036.4
5456.64
4830.39
4157.63
1943.33
1890.59
1839.57
1790.15
)


20
(
9952.56
9927.46
9852.16
9726.66
9550.94
9325.01
9048.86
8722.46
8345.82
7918.9
7441.7
6914.2
6336.38
5708.22
5029.7
4300.8
1901.73
1844.59
1789.3
1735.77
)


20
(
10392.6
10366
10286.1
10152.9
9966.39
9726.61
9433.52
9087.12
8687.38
8234.3
7727.86
7168.04
6554.82
5888.18
5168.11
4394.57
1848.63
1787.99
1729.32
1672.5
)


20
(
10687.2
10659.4
10576.1
10437.3
10243
9993.19
9687.8
9326.86
8910.35
8438.27
7910.58
7327.28
6688.35
5993.76
5243.51
4437.56
1784.94
1721.75
1660.63
1601.43
)


20
(
10831.6
10803.1
10717.8
10575.6
10376.6
10120.6
9807.74
9437.97
9011.27
8527.63
7987.04
7389.47
6734.91
6023.35
5254.76
4429.12
1711.71
1646.98
1584.36
1523.71
)


20
(
10823.6
10795
10709
10565.6
10364.9
10106.9
9791.51
9418.74
8988.58
8501.03
7956.07
7353.67
6693.83
5976.52
5201.73
4369.44
1630.13
1564.88
1501.76
1440.62
)


20
(
10663.5
10635.1
10549.8
10407.5
10208.4
9952.36
9639.41
9269.53
8842.72
8358.95
7818.22
7220.51
6565.8
5854.07
5085.32
4259.51
1541.56
1476.82
1414.18
1353.53
)


20
(
10353.9
10326.1
10242.8
10103.9
9909.47
9659.48
9353.92
8992.77
8576.04
8103.7
7575.74
6992.15
6352.91
5658.01
4907.42
4101.14
1447.45
1384.23
1323.08
1263.86
)


20
(
9899.57
9872.9
9792.91
9659.59
9472.93
9232.93
8939.58
8592.88
8192.8
7739.35
7232.5
6672.25
6058.57
5391.46
4670.89
3896.86
1349.33
1288.64
1229.94
1173.08
)


20
(
9307.72
9282.58
9207.19
9081.52
8905.58
8679.37
8402.87
8076.08
7698.98
7271.57
6793.84
6265.77
5687.35
5058.56
4379.39
3649.83
1248.67
1191.48
1136.14
1082.56
)


20
(
8587.25
8564.04
8494.43
8378.41
8215.97
8007.11
7751.83
7450.11
7101.96
6707.35
6266.27
5778.73
5244.7
4664.16
4037.12
3363.55
1146.68
1093.87
1042.79
993.312
)


20
(
7748.42
7727.51
7664.79
7560.24
7413.87
7225.67
6995.64
6723.77
6410.05
6054.47
5657.03
5217.71
4736.51
4213.4
3648.39
3041.45
1043.89
996.304
950.271
905.691
)


20
(
6802.27
6783.98
6729.13
6637.71
6509.72
6345.16
6144.01
5906.28
5631.95
5321.02
4973.49
4589.33
4168.55
3711.13
3217.07
2686.35
939.621
898.013
857.76
818.778
)


20
(
5759.22
5743.85
5697.74
5620.89
5513.3
5374.97
5205.89
5006.05
4775.45
4514.09
4221.95
3899.04
3545.33
3160.83
2745.52
2299.4
831.103
796.127
762.291
729.523
)


20
(
4627.99
4615.78
4579.14
4518.08
4432.59
4322.67
4188.32
4029.53
3846.3
3638.62
3406.5
3149.91
2868.86
2563.33
2233.33
1878.84
712.143
684.352
657.466
631.429
)


20
(
3413.99
3405.13
3378.54
3334.23
3272.18
3192.41
3094.9
2979.66
2846.68
2695.95
2527.48
2341.26
2137.29
1915.55
1676.05
1418.78
572.046
551.877
532.364
513.468
)


20
(
2122.65
2117.27
2101.14
2074.26
2036.62
1988.22
1929.07
1859.16
1778.49
1687.06
1584.87
1471.9
1348.17
1213.67
1068.4
912.355
398.771
386.537
374.702
363.24
)


20
(
773.688
771.879
766.452
757.406
744.742
728.461
708.562
685.045
657.912
627.163
592.797
554.816
513.22
468.01
419.187
366.75
194.184
190.073
186.096
182.245
)


20
(
2393.53
2391.83
2386.73
2378.23
2366.31
2350.99
2332.24
2310.07
2284.46
2255.39
2222.86
2186.86
2147.37
2104.37
2057.84
2007.78
1842.87
1838.95
1835.15
1831.47
)


20
(
3579.17
3573.92
3558.2
3531.99
3495.28
3448.08
3390.37
3322.15
3243.4
3154.12
3054.29
2943.89
2822.91
2691.33
2549.14
2396.32
1893.21
1881.22
1869.63
1858.41
)


20
(
4724.75
4716.05
4689.95
4646.45
4585.54
4507.21
4411.47
4298.29
4167.66
4019.58
3854.03
3670.99
3470.45
3252.39
3016.8
2763.65
1930.34
1910.49
1891.29
1872.7
)


20
(
5812.63
5800.61
5764.55
5704.44
5620.29
5512.09
5379.82
5223.48
5043.05
4838.53
4609.89
4357.11
4080.2
3779.12
3453.85
3104.39
1954.09
1926.69
1900.19
1874.52
)


20
(
6825.96
6810.81
6765.37
6689.62
6583.56
6447.19
6280.5
6083.47
5856.1
5598.37
5310.26
4991.76
4642.85
4263.51
3853.73
3413.48
1964.4
1929.88
1896.49
1864.15
)


20
(
7749.05
7731.02
7676.9
7586.7
7460.42
7298.05
7099.57
6864.97
6594.26
6287.4
5944.38
5565.19
5149.8
4698.21
4210.39
3686.31
1961.36
1920.28
1880.53
1842.04
)


20
(
8567.57
8546.93
8485
8381.78
8237.27
8051.46
7824.33
7555.89
7246.1
6894.97
6502.47
6068.58
5593.29
5076.58
4518.43
3918.82
1945.26
1898.25
1852.78
1808.73
)


20
(
9268.78
9245.86
9177.1
9062.5
8902.04
8695.73
8443.55
8145.49
7801.54
7411.68
6975.9
6494.18
5966.49
5392.83
4773.18
4107.5
1916.52
1864.33
1813.84
1764.95
)


20
(
9841.78
9816.94
9742.44
9618.25
9444.39
9220.84
8947.59
8624.63
8251.95
7829.52
7357.35
6835.4
6263.66
5642.12
4970.74
4249.51
1875.72
1819.17
1764.47
1711.49
)


20
(
10277.6
10251.3
10172.2
10040.4
9855.86
9618.61
9328.6
8985.85
8590.32
8142.01
7640.9
7086.98
6480.21
5820.6
5108.11
4342.72
1823.59
1763.59
1705.54
1649.32
)


20
(
10569.5
10542
10459.7
10322.3
10130.1
9882.84
9580.67
9223.53
8811.41
8344.29
7822.16
7245.01
6612.8
5925.53
5183.18
4385.72
1761.05
1698.53
1638.04
1579.47
)


20
(
10712.9
10684.8
10600.4
10459.7
10262.7
10009.4
9699.86
9333.98
8911.77
8433.23
7898.33
7307.06
6659.4
5955.33
5194.83
4377.89
1689.11
1625.06
1563.1
1503.1
)


20
(
10705.6
10677.3
10592.2
10450.3
10251.8
9996.44
9684.36
9315.52
8889.89
8407.48
7868.25
7272.21
6619.31
5909.56
5142.94
4319.41
1608.97
1544.41
1481.95
1421.46
)


20
(
10547.8
10519.7
10435.2
10294.5
10097.5
9844.14
9534.48
9168.5
8746.18
8267.51
7732.48
7141.06
6493.25
5789.03
5028.37
4211.26
1521.96
1457.89
1395.92
1335.9
)


20
(
10242.1
10214.6
10132.1
9994.73
9802.35
9554.99
9252.65
8895.31
8482.97
8015.6
7493.21
6915.77
6283.26
5595.68
4853.01
4055.22
1429.5
1366.95
1306.44
1247.84
)


20
(
9793.23
9766.85
9687.7
9555.78
9371.09
9133.62
8843.36
8500.31
8104.45
7655.77
7154.27
6599.92
5992.71
5332.63
4619.65
3853.78
1333.09
1273.05
1214.96
1158.71
)


20
(
9208.29
9183.42
9108.82
8984.48
8810.39
8586.56
8312.98
7989.63
7616.51
7193.6
6720.91
6198.4
5626.07
5003.91
4331.91
3610.04
1234.18
1177.59
1122.84
1069.82
)


20
(
8496.04
8473.08
8404.21
8289.41
8128.68
7922.02
7669.43
7370.9
7026.41
6635.96
6199.53
5717.12
5188.72
4614.31
3993.87
3327.41
1133.9
1081.65
1031.1
982.151
)


20
(
7666.6
7645.91
7583.84
7480.4
7335.57
7149.36
6921.75
6652.74
6342.33
5990.5
5597.25
5162.56
4686.43
4168.84
3609.78
3009.25
1032.74
985.656
940.108
895.998
)


20
(
6730.82
6712.73
6658.46
6568
6441.36
6278.53
6079.5
5844.28
5572.84
5265.19
4921.32
4541.21
4124.87
3672.27
3183.42
2658.29
929.979
888.81
848.982
810.411
)


20
(
5699.01
5683.81
5638.19
5562.15
5455.69
5318.82
5151.52
4953.79
4725.62
4467.01
4177.96
3858.44
3508.46
3128.01
2717.08
2275.67
822.852
788.245
754.766
722.343
)


20
(
4579.81
4567.73
4531.48
4471.06
4386.47
4277.71
4144.78
3987.66
3806.36
3600.87
3371.19
3117.31
2839.22
2536.92
2210.39
1859.64
705.241
677.742
651.14
625.377
)


20
(
3378.65
3369.88
3343.57
3299.72
3238.33
3159.39
3062.91
2948.88
2817.3
2668.17
2501.47
2317.22
2115.39
1895.99
1659.01
1404.46
566.643
546.686
527.379
508.682
)


20
(
2101.01
2095.69
2079.73
2053.13
2015.88
1968
1909.47
1840.3
1760.47
1670
1568.89
1457.11
1334.69
1201.6
1057.86
903.456
395.281
383.176
371.465
360.124
)


20
(
766.418
764.628
759.258
750.307
737.776
721.665
701.974
678.705
651.856
621.429
587.424
549.841
508.682
463.946
415.635
363.749
192.996
188.928
184.993
181.182
)


20
(
2433.58
2431.86
2426.69
2418.08
2406.02
2390.5
2371.52
2349.06
2323.12
2293.69
2260.75
2224.29
2184.29
2140.74
2093.62
2042.92
1875.89
1871.91
1868.07
1864.35
)


20
(
3635.19
3629.88
3613.94
3587.39
3550.2
3502.38
3443.92
3374.81
3295.03
3204.57
3103.43
2991.58
2869.01
2735.7
2591.64
2436.81
1927.08
1914.95
1903.2
1891.83
)


20
(
4796.12
4787.3
4760.86
4716.78
4655.07
4575.71
4478.7
4364.03
4231.68
4081.65
3913.91
3728.46
3525.27
3304.34
3065.63
2809.13
1964.81
1944.7
1925.25
1906.41
)


20
(
5898.48
5886.3
5849.77
5788.87
5703.61
5593.97
5459.96
5301.55
5118.73
4911.5
4679.84
4423.72
4143.14
3838.08
3508.51
3154.41
1988.88
1961.12
1934.27
1908.26
)


20
(
6925.22
6909.87
6863.82
6787.07
6679.61
6541.44
6372.54
6172.9
5942.52
5681.37
5389.45
5066.73
4713.2
4328.83
3913.62
3467.53
1999.24
1964.27
1930.43
1897.67
)


20
(
7860.43
7842.15
7787.32
7695.93
7567.97
7403.44
7202.33
6964.63
6690.33
6379.4
6031.83
5647.62
5226.72
4769.14
4274.85
3743.82
1995.99
1954.36
1914.08
1875.08
)


20
(
8689.58
8668.66
8605.91
8501.33
8354.9
8166.62
7936.48
7664.48
7350.58
6994.79
6597.08
6157.44
5675.85
5152.28
4586.73
3979.16
1979.41
1931.77
1885.69
1841.07
)


20
(
9399.78
9376.55
9306.88
9190.75
9028.17
8819.12
8563.59
8261.58
7913.06
7518.03
7076.47
6588.35
6053.67
5472.39
4844.51
4169.99
1949.92
1897.04
1845.88
1796.34
)


20
(
9979.97
9954.81
9879.31
9753.48
9577.31
9350.79
9073.91
8746.67
8369.04
7941.01
7462.57
6933.69
6354.36
5724.56
5044.27
4313.47
1908.14
1850.85
1795.42
1741.74
)


20
(
10421.1
10394.4
10314.3
10180.7
9993.76
9753.35
9459.5
9112.19
8711.41
8257.15
7749.39
7188.11
6573.29
5904.91
5182.96
4407.4
1854.82
1794.01
1735.19
1678.23
)


20
(
10716.3
10688.5
10605
10465.8
10271
10020.5
9714.34
9352.46
8934.87
8461.55
7932.48
7347.66
6707.06
6010.67
5258.45
4450.4
1790.85
1727.5
1666.22
1606.86
)


20
(
10861
10832.5
10746.9
10604.4
10404.8
10148.2
9834.48
9463.74
9035.93
8551.03
8009.02
7409.9
6753.63
6040.21
5269.61
4441.82
1717.31
1652.41
1589.63
1528.83
)


20
(
10852.9
10824.2
10737.9
10594.2
10393
10134.3
9818.07
9444.33
9013.05
8524.23
7977.84
7373.87
6712.31
5993.13
5216.32
4381.85
1635.39
1569.97
1506.68
1445.39
)


20
(
10692.2
10663.7
10578.2
10435.6
10235.9
9979.2
9665.43
9294.59
8866.66
8381.63
7839.49
7240.22
6583.8
5870.22
5099.45
4271.49
1546.44
1481.53
1418.73
1357.92
)


20
(
10381.6
10353.8
10270.2
10131
9936.05
9685.4
9379.04
9016.95
8599.13
8125.56
7596.22
7011.11
6370.2
5673.48
4920.93
4112.54
1451.93
1388.55
1327.24
1267.86
)


20
(
9925.95
9899.22
9819.02
9685.35
9498.2
9257.57
8963.46
8615.85
8214.73
7760.09
7251.92
6690.2
6074.93
5406.07
4683.62
3907.57
1353.38
1292.54
1233.68
1176.68
)


20
(
9332.39
9307.19
9231.59
9105.6
8929.2
8702.4
8425.18
8097.53
7719.45
7290.93
6811.95
6282.5
5702.57
5072.14
4391.2
3659.73
1252.3
1194.95
1139.47
1085.75
)


20
(
8609.88
8586.62
8516.82
8400.5
8237.63
8028.23
7772.28
7469.78
7120.71
6725.07
6282.85
5794.03
5258.6
4676.55
4047.87
3372.54
1149.88
1096.94
1045.72
996.113
)


20
(
7768.73
7747.77
7684.87
7580.05
7433.3
7244.61
7013.98
6741.4
6426.86
6070.36
5671.88
5231.41
4748.95
4224.48
3657.99
3049.47
1046.68
998.976
952.823
908.126
)


20
(
6820
6801.67
6746.68
6655.02
6526.69
6361.7
6160.02
5921.67
5646.63
5334.89
4986.44
4601.29
4179.41
3720.8
3225.44
2693.33
942.041
900.324
859.967
820.883
)


20
(
5774.16
5758.75
5712.53
5635.48
5527.61
5388.91
5219.39
5019.03
4787.83
4525.79
4232.89
3909.12
3554.49
3168.99
2752.59
2305.31
833.177
798.11
764.186
731.332
)


20
(
4639.95
4627.71
4590.98
4529.76
4444.05
4333.84
4199.14
4039.94
3856.23
3648.01
3415.27
3158.01
2876.23
2569.91
2239.04
1883.63
713.883
686.019
659.063
632.958
)


20
(
3422.78
3413.89
3387.24
3342.8
3280.6
3200.61
3102.85
2987.31
2853.98
2702.86
2533.95
2347.25
2142.74
1920.43
1680.3
1422.36
573.413
553.191
533.627
514.681
)


20
(
2128.03
2122.64
2106.47
2079.51
2041.78
1993.26
1933.95
1863.86
1782.98
1691.31
1588.84
1475.59
1351.54
1216.69
1071.04
914.58