/*--------------------------------*- C++ -*----------------------------------*\
| =========                 |                                                 |
| \\      /  F ield         | OpenFOAM: The Open Source CFD Toolbox           |
|  \\    /   O peration     | Version:  2212                                  |
|   \\  /    A nd           | Website:  www.openfoam.com                      |
|    \\/     M anipulation  |                                                 |
\*---------------------------------------------------------------------------*/
FoamFile
{
    version     2.0;
    format      ascii;
    arch        "LSB;label=32;scalar=64";
    class       surfaceScalarField;
    location    "49/fluidRegion";
    object      alphaRhoPhi;
}
// * * * * * * * * * * * * * * * * * * * * * * * * * * * * * * * * * * * * * //

dimensions      [1 0 -1 0 0 0 0];

oriented        oriented;

internalField   nonuniform List<scalar> 
661
(
-0.00584869
-1.5591e-11
-0.00584898
-1.21261e-11
-0.00584934
1.34135e-12
-0.00584961
1.37971e-11
-0.00584972
1.90139e-11
-0.00584967
1.56823e-11
-0.00584951
6.11081e-12
-0.00584935
-5.18449e-12
-0.00584927
-1.36053e-11
-0.00584933
-1.62069e-11
-0.00584953
-1.25371e-11
-0.0058498
-4.50655e-12
-0.00585008
4.58229e-12
-0.0058503
1.13974e-11
-0.0058504
1.38687e-11
-0.00585039
1.18094e-11
-0.00585029
6.75048e-12
-0.00585016
1.07079e-12
-0.00585003
-3.09097e-12
-0.00584992
-4.66327e-12
-0.00584985
-3.91319e-12
-0.00584979
-1.99e-12
-0.00584974
-2.75739e-13
-0.00584968
-1.41922e-15
-2.03506e-12
-0.00584869
-0.00584898
-0.00584934
-0.00584961
-0.00584972
-0.00584967
-0.00584951
-0.00584935
-0.00584927
-0.00584933
-0.00584953
-0.0058498
-0.00585008
-0.0058503
-0.0058504
-0.00585039
-0.00585029
-0.00585016
-0.00585003
-0.00584992
-0.00584985
-0.00584979
-0.00584974
-0.00584968
-0.00939501
6.45391e-07
-0.00939524
3.13337e-07
-0.00939551
3.48176e-07
-0.00939576
3.2317e-07
-0.00939599
3.03743e-07
-0.0093962
2.86706e-07
-0.00939641
2.71777e-07
-0.0093966
2.57325e-07
-0.00939678
2.39397e-07
-0.00939693
2.10304e-07
-0.00939705
1.57845e-07
-0.0093971
6.50306e-08
-0.00939703
-8.53022e-08
-0.00939677
-3.00774e-07
-0.00939626
-5.81756e-07
-0.00939546
-9.09646e-07
-0.00939432
-1.25851e-06
-0.00939284
-1.61199e-06
-0.009391
-1.98174e-06
-0.00938873
-2.41794e-06
-0.00938588
-3.01208e-06
-0.00938218
-3.86025e-06
-0.00937733
-4.99123e-06
-0.0093716
-5.88253e-06
-7.18705e-06
-0.00931085
-1.86684e-08
-1.69214e-08
-0.0093104
-8.21539e-08
-8.25853e-08
-0.00930992
-7.98725e-08
-8.00709e-08
-0.00930948
-7.13466e-08
-7.14846e-08
-0.00930908
-6.41974e-08
-6.4236e-08
-0.0093087
-5.75654e-08
-5.75611e-08
-0.00930835
-5.13788e-08
-5.1363e-08
-0.00930803
-4.52039e-08
-4.51666e-08
-0.00930773
-3.79377e-08
-3.78946e-08
-0.00930748
-2.73967e-08
-2.7363e-08
-0.00930732
-9.81274e-09
-9.79477e-09
-0.0093073
1.98974e-08
1.97597e-08
-0.00930751
6.62118e-08
6.59951e-08
-0.00930807
1.36653e-07
1.36211e-07
-0.00930908
2.29206e-07
2.2843e-07
-0.00931064
3.39759e-07
3.38537e-07
-0.00931277
4.60648e-07
4.58852e-07
-0.00931551
5.86954e-07
5.84488e-07
-0.00931889
7.23115e-07
7.19869e-07
-0.00932303
8.86427e-07
8.8266e-07
-0.00932821
1.10793e-06
1.10319e-06
-0.00933484
1.41398e-06
1.40704e-06
-0.00934335
1.78598e-06
1.77379e-06
-0.00935301
1.91926e-06
1.90248e-06
1.87591e-06
1.8695e-06
-0.00940881
3.1806e-07
-0.00940913
3.06495e-07
-0.00940946
3.02345e-07
-0.00940975
2.77568e-07
-0.00941002
2.56324e-07
-0.00941026
2.37293e-07
-0.00941049
2.1987e-07
-0.00941069
2.02116e-07
-0.00941087
1.79419e-07
-0.00941101
1.43205e-07
-0.00941109
7.9931e-08
-0.00941105
-2.76556e-08
-0.00941082
-1.97283e-07
-0.00941031
-4.38576e-07
-0.00940943
-7.4922e-07
-0.0094081
-1.10904e-06
-0.00940629
-1.49118e-06
-0.00940398
-1.88061e-06
-0.00940112
-2.29352e-06
-0.00939761
-2.78664e-06
-0.00939322
-3.45519e-06
-0.00938758
-4.3928e-06
-0.00938041
-5.54115e-06
-0.00937238
-6.23308e-06
-6.5134e-06
-0.00932972
1.50774e-09
-0.00932945
-4.05516e-11
-0.00932918
7.56256e-11
-0.00932894
6.21731e-11
-0.00932871
1.10441e-10
-0.0093285
1.47997e-10
-0.00932831
1.44339e-10
-0.00932814
1.73417e-10
-0.00932798
1.81168e-10
-0.00932786
1.56505e-10
-0.00932779
1.68803e-10
-0.00932782
1.75574e-10
-0.009328
1.73894e-10
-0.00932841
1.20948e-10
-0.00932911
-2.18092e-11
-0.00933015
-2.8176e-10
-0.00933157
-5.91893e-10
-0.00933337
-8.69974e-10
-0.00933558
-1.29059e-09
-0.00933829
-1.72245e-09
-0.00934165
-2.00057e-09
-0.00934596
-2.80261e-09
-0.00935142
-4.56758e-09
-0.00935759
-5.11348e-09
-7.06457e-09
-0.00932973
-3.14839e-07
-0.00932946
-3.06646e-07
-0.00932919
-3.02137e-07
-0.00932895
-2.77373e-07
-0.00932872
-2.56039e-07
-0.00932852
-2.36944e-07
-0.00932832
-2.195e-07
-0.00932815
-2.01676e-07
-0.00932799
-1.78942e-07
-0.00932787
-1.42722e-07
-0.0093278
-7.93665e-08
-0.00932783
2.8286e-08
-0.00932801
1.97991e-07
-0.00932842
4.39281e-07
-0.00932912
7.49786e-07
-0.00933016
1.1093e-06
-0.00933158
1.49109e-06
-0.00933338
1.88018e-06
-0.0093356
2.29246e-06
-0.0093383
2.78482e-06
-0.00934167
3.45266e-06
-0.00934597
4.3885e-06
-0.00935143
5.53262e-06
-0.0093576
6.22235e-06
6.49739e-06
-0.00940881
1.67446e-08
-0.00940913
8.23405e-08
-0.00940946
7.9881e-08
-0.00940975
7.13673e-08
-0.00941002
6.42581e-08
-0.00941027
5.76415e-08
-0.00941049
5.14753e-08
-0.00941069
4.53261e-08
-0.00941087
3.80752e-08
-0.00941101
2.75116e-08
-0.00941109
9.94627e-09
-0.00941105
-1.96676e-08
-0.00941082
-6.59299e-08
-0.00941031
-1.36303e-07
-0.00940943
-2.28788e-07
-0.0094081
-3.39284e-07
-0.00940629
-4.60041e-07
-0.00940397
-5.86151e-07
-0.00940111
-7.22193e-07
-0.0093976
-8.85581e-07
-0.0093932
-1.10702e-06
-0.00938756
-1.41372e-06
-0.00938039
-1.78736e-06
-0.00937237
-1.92087e-06
-1.86435e-06
-0.00931085
-6.45429e-07
-1.88549e-08
-0.0093104
-3.13366e-07
-8.24395e-08
-0.00930992
-3.48168e-07
-8.01202e-08
-0.00930948
-3.23136e-07
-7.15242e-08
-0.00930908
-3.03637e-07
-6.43296e-08
-0.0093087
-2.86578e-07
-5.76859e-08
-0.00930835
-2.71625e-07
-5.14938e-08
-0.00930803
-2.57153e-07
-4.53283e-08
-0.00930773
-2.39216e-07
-3.80687e-08
-0.00930748
-2.10144e-07
-2.75265e-08
-0.00930732
-1.57648e-07
-1.0013e-08
-0.0093073
-6.48081e-08
1.95787e-08
-0.00930751
8.5579e-08
6.57628e-08
-0.00930807
3.01037e-07
1.36021e-07
-0.00930908
5.8196e-07
2.2839e-07
-0.00931064
9.09714e-07
3.38793e-07
-0.00931277
1.25846e-06
4.59536e-07
-0.00931551
1.61176e-06
5.85735e-07
-0.00931889
1.98105e-06
7.22179e-07
-0.00932303
2.41625e-06
8.86617e-07
-0.00932821
3.00828e-06
1.11015e-06
-0.00933484
3.85277e-06
1.41799e-06
-0.00934335
4.97596e-06
1.79161e-06
-0.00935301
5.86113e-06
1.92375e-06
7.16113e-06
1.9042e-06
-0.00939501
-0.00939524
-0.00939551
-0.00939576
-0.00939599
-0.0093962
-0.00939641
-0.0093966
-0.00939678
-0.00939693
-0.00939705
-0.0093971
-0.00939703
-0.00939677
-0.00939626
-0.00939546
-0.00939432
-0.00939284
-0.009391
-0.00938873
-0.00938587
-0.00938217
-0.00937734
-0.00937161
-0.00932972
-3.17891e-07
1.40398e-09
-0.00932945
-3.06228e-07
-2.08215e-10
-0.00932918
-3.02071e-07
-7.88657e-11
-0.00932894
-2.77298e-07
-8.17805e-11
-0.00932871
-2.55997e-07
-1.14537e-10
-0.0093285
-2.36922e-07
-1.48908e-10
-0.00932831
-2.19471e-07
-1.65582e-10
-0.00932814
-2.01661e-07
-2.1304e-10
-0.00932798
-1.78923e-07
-2.46779e-10
-0.00932786
-1.42705e-07
-2.66491e-10
-0.00932779
-7.93317e-08
-3.00542e-10
-0.00932782
2.84111e-08
-5.30266e-10
-0.009328
1.98205e-07
-6.59183e-10
-0.00932841
4.39693e-07
-9.19358e-10
-0.00932911
7.50549e-07
-1.28167e-09
-0.00933015
1.11062e-06
-1.80716e-09
-0.00933157
1.49327e-06
-2.68516e-09
-0.00933337
1.88358e-06
-4.08364e-09
-0.00933558
2.29777e-06
-6.08893e-09
-0.00933829
2.79267e-06
-8.60185e-09
-0.00934165
3.46502e-06
-1.271e-08
-0.00934596
4.40637e-06
-1.67386e-08
-0.00935142
5.55962e-06
-2.02529e-08
-0.00935759
6.25766e-06
-2.29279e-08
6.54869e-06
-3.39802e-08
-0.00940881
-0.00940913
-0.00940945
-0.00940975
-0.00941002
-0.00941026
-0.00941049
-0.00941069
-0.00941087
-0.00941101
-0.00941109
-0.00941105
-0.00941082
-0.00941031
-0.00940943
-0.0094081
-0.00940629
-0.00940398
-0.00940112
-0.00939761
-0.00939322
-0.00938758
-0.00938041
-0.00937239
-0.00940881
3.14815e-07
-0.00940914
3.06623e-07
-0.00940946
3.02153e-07
-0.00940975
2.7743e-07
-0.00941002
2.56229e-07
-0.00941027
2.37196e-07
-0.00941049
2.19796e-07
-0.00941069
2.02038e-07
-0.00941087
1.79346e-07
-0.00941101
1.43093e-07
-0.00941109
7.97707e-08
-0.00941105
-2.77299e-08
-0.00941082
-1.97383e-07
-0.00941031
-4.38665e-07
-0.00940943
-7.49214e-07
-0.0094081
-1.10887e-06
-0.00940629
-1.49069e-06
-0.00940397
-1.8797e-06
-0.00940111
-2.29202e-06
-0.0093976
-2.78447e-06
-0.00939321
-3.45303e-06
-0.00938757
-4.39324e-06
-0.00938039
-5.5474e-06
-0.00937236
-6.24764e-06
-6.50564e-06
-0.00932973
-0.00932946
-0.00932919
-0.00932895
-0.00932872
-0.00932852
-0.00932832
-0.00932815
-0.00932799
-0.00932787
-0.0093278
-0.00932783
-0.00932801
-0.00932842
-0.00932912
-0.00933016
-0.00933158
-0.00933338
-0.0093356
-0.0093383
-0.00934167
-0.00934597
-0.00935144
-0.00935761
)
;

boundaryField
{
    outletCentralUnloaded
    {
        type            calculated;
        value           nonuniform List<scalar> 2(0.00584856 0.00584856);
    }
    inletCentralUnloaded
    {
        type            calculated;
        value           nonuniform List<scalar> 2(-0.0058737 -0.0058737);
    }
    outletFuelElement
    {
        type            calculated;
        value           nonuniform List<scalar> 
12
(
0.00939444
0.0093115
0.00940853
0.00933
0.00933001
0.00940854
0.0093115
0.00939444
0.00933
0.00940853
0.00940854
0.00933002
)
;
    }
    inletFuelElement
    {
        type            calculated;
        value           nonuniform List<scalar> 
12
(
-0.00953717
-0.00953717
-0.00953716
-0.00953716
-0.00953717
-0.00953717
-0.00953717
-0.00953717
-0.00953716
-0.00953716
-0.00953717
-0.00953717
)
;
    }
    defaultFaces
    {
        type            calculated;
        value           nonuniform List<scalar> 
450
(
-9.71088e-25
-1.07378e-23
0
8.48527e-24
-3.80844e-24
0
1.34234e-23
1.44338e-23
0
-2.10692e-23
-1.35447e-23
0
-6.47882e-24
-1.69749e-23
0
-1.94672e-23
-6.01554e-24
0
-1.98685e-23
-8.44536e-24
0
-2.04288e-23
-3.62039e-24
0
-4.35578e-24
-1.01328e-23
0
-1.44243e-23
-7.90296e-24
0
-9.29819e-24
-4.90184e-24
0
-4.24438e-24
-2.12445e-24
0
7.02891e-24
3.27103e-24
0
1.98103e-23
8.37934e-24
0
4.39375e-23
1.58224e-23
0
6.41865e-23
4.45586e-23
0
3.82418e-23
-1.52249e-23
0
9.48973e-23
1.84421e-23
0
7.54514e-23
-9.12717e-23
0
-1.09369e-22
-1.17197e-22
0
-7.19034e-23
-8.90871e-23
0
2.13711e-22
-1.93483e-22
0
-7.01393e-23
-6.06724e-23
0
-2.13859e-22
-1.12676e-22
0
-1.54465e-22
-2.34394e-22
0
7.41087e-24
0
1.50922e-23
0
0
0
7.97791e-24
0
-6.2131e-24
0
6.49541e-24
0
9.118e-24
0
7.25324e-24
0
-5.1694e-24
0
2.78682e-24
0
3.03278e-24
0
-8.33573e-25
0
-3.70733e-24
0
-1.66952e-23
0
-2.8584e-23
0
-5.52062e-23
0
5.20403e-23
0
-6.24643e-23
0
0
0
-1.44029e-22
0
-1.8544e-22
0
2.04472e-22
0
5.53477e-23
0
-1.49983e-22
0
-2.88205e-22
0
0
-3.7186e-24
0
0
8.1616e-24
-4.26578e-24
0
-4.76258e-24
2.54552e-24
2.7444e-24
-1.49324e-24
0
7.30181e-24
0
0
2.17636e-23
-7.69758e-23
0
-7.5605e-23
0
6.12067e-23
-8.11273e-23
-3.3012e-22
0
-9.59742e-23
0
0
0
0
0
0
0
0
0
0
0
0
0
0
0
0
0
0
0
0
0
0
0
0
0
-5.55815e-24
3.70543e-24
0
1.13192e-23
1.16007e-23
1.54677e-23
-7.9779e-24
-5.98343e-24
8.28413e-24
-4.14206e-24
-6.49541e-24
-8.66054e-24
-9.11799e-24
-4.559e-24
-7.25323e-24
-2.41774e-24
1.29235e-23
-5.1694e-24
-4.18023e-24
-1.39341e-24
-1.51639e-24
-2.27458e-24
8.33572e-25
7.29375e-25
3.70733e-24
5.56099e-24
1.25214e-23
1.25214e-23
3.81119e-23
1.4292e-23
3.31237e-23
4.41649e-23
-3.90301e-23
6.50502e-23
6.24642e-23
6.24642e-23
-1.14818e-22
1.33954e-22
-1.44028e-22
-9.60189e-23
0
-9.27198e-23
-2.45366e-22
2.45366e-22
-1.10695e-22
-1.66043e-22
-1.49983e-22
-1.49983e-22
-3.84273e-22
-1.92137e-22
7.91911e-24
0
0
3.91171e-24
0
0
9.62664e-24
0
-3.08568e-23
-2.73247e-23
0
7.95754e-24
1.2462e-23
0
0
-2.58644e-23
0
8.63825e-24
-2.6878e-23
0
9.09444e-24
-2.55129e-23
0
4.82296e-24
-1.16539e-23
0
-1.0312e-23
-1.92462e-23
0
2.77957e-24
-1.1551e-23
0
6.04979e-24
-5.60949e-24
0
1.66283e-24
8.85181e-24
-0
0
2.90808e-23
-0
-4.1632e-24
5.6049e-23
-0
-1.90087e-23
7.82562e-23
-0
-1.10147e-23
5.61472e-23
-0
0
1.43449e-22
-0
-3.11644e-23
8.13074e-23
-0
-3.81958e-23
-7.36186e-23
-0
9.58447e-23
3.37951e-23
-0
6.17156e-23
1.72063e-22
-0
8.16833e-23
-7.04315e-23
-0
1.10591e-22
-1.3423e-22
-0
2.24853e-22
-1.23167e-22
-0
9.60521e-23
0
-7.43719e-24
0
-3.93039e-24
4.0808e-24
-1.27973e-23
-8.98132e-24
-2.38129e-24
0
0
0
8.20842e-25
7.30181e-24
1.64433e-23
1.87734e-23
4.35272e-23
-5.13172e-23
3.08205e-23
-1.13408e-22
4.74727e-23
0
-2.43382e-22
-3.3012e-22
7.47388e-23
0
1.01899e-23
0
1.50922e-23
0
0
0
7.97791e-24
0
-4.14207e-24
0
4.33027e-24
0
4.559e-24
0
4.83549e-24
0
1.29235e-24
0
4.18023e-24
0
1.89548e-24
0
-1.66715e-24
0
-9.26833e-24
-0
-8.34758e-24
-0
-3.8112e-23
-0
-2.20825e-23
-0
6.50503e-23
-0
-6.24643e-23
-0
7.65454e-23
-0
-4.80095e-23
-0
-1.23627e-22
-0
2.45367e-22
-0
0
-0
-2.99966e-22
-0
-2.88205e-22
-0
-9.26358e-24
0
-7.54612e-24
1.13192e-23
-3.86691e-24
7.73383e-24
-7.9779e-24
-1.99448e-23
0
1.03552e-23
-2.16514e-24
-1.94862e-23
-4.559e-24
-1.59565e-23
-2.41774e-24
-1.45065e-23
2.5847e-24
-1.03388e-23
-2.78682e-24
-8.36046e-24
-1.13729e-24
-4.54916e-24
0
4.06366e-24
5.56099e-24
1.6683e-23
1.25214e-23
3.75641e-23
1.9056e-23
6.19319e-23
2.20825e-23
7.72886e-23
0
6.50502e-23
3.12321e-23
1.56161e-22
0
9.56816e-23
0
-7.20142e-23
0
-1.23626e-22
4.08944e-23
2.86261e-22
1.10695e-22
-1.66043e-22
-7.49914e-23
-1.87478e-22
9.60683e-23
-2.40171e-22
-0
-0
-0
-0
-0
-0
-0
-0
-0
-0
-0
0
0
0
0
0
0
0
0
0
0
0
0
0
0
)
;
    }
    baffle_master
    {
        type            calculated;
        value           nonuniform List<scalar> 
150
(
-7.16615e-29
0
2.48461e-28
1.08425e-28
0
-2.48481e-28
-1.59879e-29
0
-3.10628e-29
-1.69908e-28
0
-2.48523e-28
1.38502e-27
0
7.45629e-28
1.06089e-28
0
-2.48563e-28
4.21415e-29
0
0
-5.6792e-30
0
6.21511e-29
1.94997e-29
0
0
9.64215e-29
0
2.48646e-28
-7.65557e-29
0
0
-2.10701e-29
0
-6.21717e-29
3.58108e-29
0
0
5.0344e-29
0
0
-1.80557e-29
0
2.48748e-28
-4.22438e-29
0
-2.48769e-28
-7.33898e-28
0
-3.73184e-28
-4.23314e-31
0
0
2.15547e-28
0
1.86623e-28
7.10879e-30
0
6.22129e-29
-1.69962e-29
0
1.24436e-28
-1.03707e-28
0
-9.3335e-29
-1.64415e-30
0
0
6.01399e-33
0
-6.07749e-32
9.9451e-30
0
3.11193e-29
2.48461e-28
-6.75668e-28
0
2.48481e-28
-4.57677e-28
0
-3.10628e-29
4.09204e-29
-0
-2.48523e-28
8.63812e-28
-0
-2.48543e-28
-5.21576e-28
-0
0
5.89902e-28
-0
-1.24292e-28
2.66473e-28
-0
6.21511e-29
-1.55929e-28
0
-2.48625e-28
-4.47609e-28
0
2.48646e-28
-4.45061e-28
0
2.48666e-28
-4.40415e-28
0
1.24343e-28
-1.52873e-28
0
0
1.53486e-28
-0
-2.48728e-28
1.48603e-28
-0
-2.48748e-28
3.53767e-28
-0
-2.48769e-28
2.36935e-28
-0
2.4879e-28
7.39312e-29
-0
-1.55506e-29
4.50822e-29
-0
-1.24415e-28
-2.4609e-29
0
-6.22129e-29
1.58373e-28
0
0
1.00138e-28
0
-6.22233e-29
1.13441e-28
0
-3.88928e-30
-9.54717e-30
0
-3.03875e-32
-6.52114e-32
-0
0
2.93257e-29
0
)
;
    }
    baffle_slave
    {
        type            calculated;
        value           nonuniform List<scalar> 
150
(
2.04749e-24
-0
0
1.07118e-24
-0
7.43719e-24
1.73917e-24
-0
0
-7.84056e-26
-0
0
-1.79484e-23
-0
-8.1616e-24
-9.54666e-26
-0
4.26578e-24
-1.82204e-24
-0
0
-2.44202e-24
-0
0
5.10186e-25
-0
-2.54552e-24
4.27208e-25
-0
0
1.22032e-25
-0
0
-1.30009e-24
0
-4.10421e-25
1.50956e-25
0
3.65091e-24
-1.16784e-24
0
0
2.95903e-24
0
9.38668e-24
-9.3178e-24
0
0
-9.17399e-23
0
-5.13172e-23
2.93986e-24
0
0
-7.33839e-23
0
-1.13408e-22
-1.10025e-23
0
0
2.22993e-23
0
-6.12067e-23
1.43895e-22
0
1.62255e-22
-1.93139e-23
0
0
1.63351e-23
0
7.47388e-23
-6.93396e-24
0
-9.59743e-23
-1.17912e-23
2.71292e-23
0
-5.31525e-24
1.03825e-23
0
2.35672e-24
6.63777e-24
0
-9.95481e-25
7.36248e-24
0
-2.16277e-24
-1.57157e-23
0
-5.04288e-24
5.94228e-24
0
-3.3848e-24
6.83482e-24
0
-2.09458e-24
6.61941e-24
0
4.65579e-24
5.11424e-24
0
-3.13758e-24
6.75523e-24
0
-3.30225e-24
4.32849e-24
0
4.93038e-25
2.94037e-24
0
1.66347e-25
-7.31691e-25
0
9.75331e-24
-6.27913e-24
0
2.66186e-24
-1.45942e-23
0
7.38464e-24
-1.9885e-23
0
-7.93402e-23
-2.98392e-23
0
3.26742e-23
-4.40379e-23
0
1.69751e-23
3.68024e-25
0
-3.66685e-23
3.15052e-23
0
3.50806e-23
4.73412e-23
0
-1.99901e-22
1.74255e-22
0
-1.2933e-22
-8.30496e-23
0
-4.69435e-23
9.88859e-23
0
6.50143e-23
1.64916e-22
0
)
;
    }
}


// ************************************************************************* //
