/*--------------------------------*- C++ -*----------------------------------*\
| =========                 |                                                 |
| \\      /  F ield         | OpenFOAM: The Open Source CFD Toolbox           |
|  \\    /   O peration     | Version:  2212                                  |
|   \\  /    A nd           | Website:  www.openfoam.com                      |
|    \\/     M anipulation  |                                                 |
\*---------------------------------------------------------------------------*/
FoamFile
{
    version     2.0;
    format      ascii;
    arch        "LSB;label=32;scalar=64";
    class       volScalarField;
    location    "49/fluidRegion";
    object      epsilon;
}
// * * * * * * * * * * * * * * * * * * * * * * * * * * * * * * * * * * * * * //

dimensions      [0 2 -3 0 0 0 0];

internalField   nonuniform List<scalar> 
350
(
66.9841
66.9678
66.9515
66.9352
66.9188
66.9022
66.8855
66.8689
66.8524
66.8361
66.8202
66.8048
66.79
66.7764
66.7642
66.7545
66.7485
66.7483
66.7567
66.7784
66.8204
66.8933
67.0133
67.2052
67.5068
66.9841
66.9678
66.9515
66.9352
66.9188
66.9022
66.8855
66.8689
66.8524
66.8361
66.8202
66.8048
66.79
66.7764
66.7642
66.7545
66.7485
66.7483
66.7567
66.7784
66.8204
66.8933
67.0133
67.2052
67.5068
7.63169e+06
7.02412e+06
6.35129e+06
5.63427e+06
4.90087e+06
4.17662e+06
3.48366e+06
2.84003e+06
2.25925e+06
1.75017e+06
1.31716e+06
960355
676255
458327
297844
184819
108998
60770.2
31842.8
15599.8
7144.8
3115.17
1385.26
735.642
547.183
7.79681e+06
7.17755e+06
6.49168e+06
5.76017e+06
5.01151e+06
4.27182e+06
3.56377e+06
2.90586e+06
2.31195e+06
1.79119e+06
1.34807e+06
982839
691960
468808
304489
188796
111229
61931.6
32397
15837.8
7234.25
3143.47
1392.43
737.084
547.606
7.60467e+06
6.99895e+06
6.32837e+06
5.61379e+06
4.88294e+06
4.16124e+06
3.47077e+06
2.82948e+06
2.25083e+06
1.74365e+06
1.31225e+06
956801
673779
456678
296800
184194
108647
60586.5
31754.2
15561
7129.59
3109.89
1383.63
735.148
547.004
7.76023e+06
7.1435e+06
6.46044e+06
5.73209e+06
4.98678e+06
4.25049e+06
3.54578e+06
2.89104e+06
2.30007e+06
1.78192e+06
1.34107e+06
977737
688389
466420
302973
187887
110719
61665.8
32270.2
15783.3
7213.86
3137.07
1390.84
736.787
547.528
7.76023e+06
7.1435e+06
6.46044e+06
5.73209e+06
4.98678e+06
4.25049e+06
3.54578e+06
2.89104e+06
2.30007e+06
1.78192e+06
1.34107e+06
977737
688389
466420
302973
187887
110719
61665.8
32270.2
15783.4
7213.86
3137.07
1390.84
736.786
547.527
7.60468e+06
6.99896e+06
6.32838e+06
5.6138e+06
4.88294e+06
4.16125e+06
3.47078e+06
2.82948e+06
2.25084e+06
1.74365e+06
1.31226e+06
956803
673780
456679
296801
184195
108647
60586.6
31754.3
15561
7129.6
3109.9
1383.63
735.149
547.006
7.79681e+06
7.17755e+06
6.49168e+06
5.76017e+06
5.01151e+06
4.27182e+06
3.56377e+06
2.90586e+06
2.31195e+06
1.79119e+06
1.34807e+06
982839
691960
468808
304489
188796
111229
61931.6
32397.1
15837.8
7234.26
3143.48
1392.43
737.083
547.605
7.63169e+06
7.02412e+06
6.35129e+06
5.63427e+06
4.90087e+06
4.17661e+06
3.48366e+06
2.84003e+06
2.25925e+06
1.75017e+06
1.31716e+06
960355
676255
458327
297844
184819
108998
60770.2
31842.8
15599.8
7144.82
3115.18
1385.28
735.655
547.195
7.76023e+06
7.1435e+06
6.46044e+06
5.73209e+06
4.98678e+06
4.25049e+06
3.54578e+06
2.89104e+06
2.30007e+06
1.78192e+06
1.34107e+06
977737
688389
466420
302973
187887
110719
61665.8
32270.2
15783.4
7213.86
3137.07
1390.85
736.79
547.531
7.60467e+06
6.99895e+06
6.32837e+06
5.61379e+06
4.88294e+06
4.16124e+06
3.47077e+06
2.82948e+06
2.25083e+06
1.74365e+06
1.31225e+06
956801
673779
456679
296800
184194
108647
60586.4
31754.2
15560.9
7129.55
3109.86
1383.6
735.126
546.984
7.60468e+06
6.99896e+06
6.32838e+06
5.6138e+06
4.88294e+06
4.16125e+06
3.47078e+06
2.82948e+06
2.25084e+06
1.74365e+06
1.31226e+06
956803
673780
456679
296801
184195
108647
60586.6
31754.3
15561
7129.6
3109.9
1383.62
735.145
547.001
7.76023e+06
7.1435e+06
6.46044e+06
5.73209e+06
4.98678e+06
4.25049e+06
3.54578e+06
2.89104e+06
2.30007e+06
1.78192e+06
1.34107e+06
977737
688389
466420
302973
187887
110719
61665.9
32270.3
15783.4
7213.89
3137.09
1390.87
736.806
547.546
)
;

boundaryField
{
    outletCentralUnloaded
    {
        type            zeroGradient;
    }
    inletCentralUnloaded
    {
        type            zeroGradient;
    }
    outletFuelElement
    {
        type            zeroGradient;
    }
    inletFuelElement
    {
        type            zeroGradient;
    }
    defaultFaces
    {
        type            zeroGradient;
    }
    baffle_master
    {
        type            zeroGradient;
    }
    baffle_slave
    {
        type            zeroGradient;
    }
}


// ************************************************************************* //
