/*--------------------------------*- C++ -*----------------------------------*\
| =========                 |                                                 |
| \\      /  F ield         | OpenFOAM: The Open Source CFD Toolbox           |
|  \\    /   O peration     | Version:  2212                                  |
|   \\  /    A nd           | Website:  www.openfoam.com                      |
|    \\/     M anipulation  |                                                 |
\*---------------------------------------------------------------------------*/
FoamFile
{
    version     2.0;
    format      ascii;
    arch        "LSB;label=32;scalar=64";
    class       volScalarField;
    location    "49/fluidRegion";
    object      heatFlux.structure;
}
// * * * * * * * * * * * * * * * * * * * * * * * * * * * * * * * * * * * * * //

dimensions      [1 0 -3 0 0 0 0];

internalField   nonuniform List<scalar> 
350
(
-258274
-258285
-258299
-258313
-258322
-258326
-258325
-258322
-258321
-258324
-258331
-258342
-258355
-258367
-258375
-258380
-258380
-258379
-258377
-258376
-258375
-258376
-258377
-258378
-258808
-258274
-258285
-258299
-258313
-258322
-258326
-258325
-258322
-258321
-258324
-258331
-258342
-258355
-258367
-258375
-258380
-258380
-258379
-258377
-258376
-258375
-258376
-258377
-258378
-258808
441853
1.33551e+06
2.208e+06
3.04556e+06
3.83498e+06
4.56383e+06
5.2206e+06
5.79496e+06
6.27783e+06
6.66162e+06
6.94028e+06
7.10941e+06
7.16634e+06
7.11019e+06
6.94185e+06
6.66396e+06
6.28092e+06
5.79875e+06
5.22504e+06
4.56891e+06
3.84063e+06
3.05179e+06
2.21483e+06
1.3432e+06
450770
446807
1.35071e+06
2.23319e+06
3.08035e+06
3.87882e+06
4.61602e+06
5.28032e+06
5.86126e+06
6.34967e+06
6.73786e+06
7.01971e+06
7.19078e+06
7.24838e+06
7.19159e+06
7.02132e+06
6.74026e+06
6.35283e+06
5.86515e+06
5.28487e+06
4.62123e+06
3.88461e+06
3.08673e+06
2.24018e+06
1.35857e+06
455922
441063
1.33309e+06
2.20399e+06
3.04001e+06
3.828e+06
4.55552e+06
5.21109e+06
5.7844e+06
6.26639e+06
6.64948e+06
6.92763e+06
7.09645e+06
7.15328e+06
7.09723e+06
6.92919e+06
6.65181e+06
6.26947e+06
5.78818e+06
5.21551e+06
4.56058e+06
3.83363e+06
3.04622e+06
2.21079e+06
1.34075e+06
449950
445665
1.34721e+06
2.22739e+06
3.07234e+06
3.86873e+06
4.604e+06
5.26657e+06
5.846e+06
6.33314e+06
6.72031e+06
7.00143e+06
7.17205e+06
7.22949e+06
7.17286e+06
7.00303e+06
6.7227e+06
6.33628e+06
5.84987e+06
5.2711e+06
4.60918e+06
3.87448e+06
3.07869e+06
2.23435e+06
1.35503e+06
454736
445665
1.34721e+06
2.22739e+06
3.07234e+06
3.86873e+06
4.604e+06
5.26657e+06
5.846e+06
6.33314e+06
6.72031e+06
7.00143e+06
7.17205e+06
7.22949e+06
7.17285e+06
7.00303e+06
6.7227e+06
6.33628e+06
5.84987e+06
5.2711e+06
4.60918e+06
3.87448e+06
3.07869e+06
2.23435e+06
1.35503e+06
454736
441063
1.33309e+06
2.20399e+06
3.04002e+06
3.828e+06
4.55552e+06
5.21109e+06
5.7844e+06
6.26639e+06
6.64948e+06
6.92763e+06
7.09645e+06
7.15328e+06
7.09723e+06
6.92919e+06
6.65181e+06
6.26947e+06
5.78818e+06
5.21551e+06
4.56057e+06
3.83363e+06
3.04622e+06
2.21079e+06
1.34075e+06
449950
446807
1.35071e+06
2.23319e+06
3.08035e+06
3.87882e+06
4.61602e+06
5.28032e+06
5.86126e+06
6.34967e+06
6.73786e+06
7.01971e+06
7.19078e+06
7.24838e+06
7.19159e+06
7.02132e+06
6.74026e+06
6.35283e+06
5.86515e+06
5.28487e+06
4.62123e+06
3.88461e+06
3.08673e+06
2.24018e+06
1.35857e+06
455922
441853
1.33551e+06
2.208e+06
3.04556e+06
3.83498e+06
4.56383e+06
5.2206e+06
5.79496e+06
6.27783e+06
6.66162e+06
6.94028e+06
7.1094e+06
7.16634e+06
7.11019e+06
6.94185e+06
6.66396e+06
6.28092e+06
5.79875e+06
5.22504e+06
4.56891e+06
3.84063e+06
3.05179e+06
2.21483e+06
1.3432e+06
450771
445665
1.34721e+06
2.22739e+06
3.07234e+06
3.86873e+06
4.604e+06
5.26657e+06
5.846e+06
6.33314e+06
6.72031e+06
7.00143e+06
7.17205e+06
7.22949e+06
7.17285e+06
7.00303e+06
6.7227e+06
6.33628e+06
5.84987e+06
5.2711e+06
4.60918e+06
3.87448e+06
3.07869e+06
2.23435e+06
1.35503e+06
454736
441063
1.33309e+06
2.20399e+06
3.04001e+06
3.828e+06
4.55552e+06
5.21109e+06
5.7844e+06
6.26639e+06
6.64948e+06
6.92763e+06
7.09645e+06
7.15328e+06
7.09723e+06
6.92919e+06
6.65181e+06
6.26947e+06
5.78818e+06
5.21551e+06
4.56058e+06
3.83363e+06
3.04622e+06
2.21079e+06
1.34075e+06
449950
441063
1.33309e+06
2.20399e+06
3.04002e+06
3.828e+06
4.55552e+06
5.21109e+06
5.7844e+06
6.26639e+06
6.64948e+06
6.92763e+06
7.09645e+06
7.15328e+06
7.09723e+06
6.92919e+06
6.65181e+06
6.26947e+06
5.78818e+06
5.21551e+06
4.56058e+06
3.83363e+06
3.04622e+06
2.21079e+06
1.34075e+06
449950
445665
1.34721e+06
2.22739e+06
3.07234e+06
3.86873e+06
4.604e+06
5.26657e+06
5.846e+06
6.33314e+06
6.72031e+06
7.00143e+06
7.17205e+06
7.22949e+06
7.17285e+06
7.00303e+06
6.7227e+06
6.33628e+06
5.84987e+06
5.2711e+06
4.60918e+06
3.87448e+06
3.07869e+06
2.23435e+06
1.35503e+06
454736
)
;

boundaryField
{
    outletCentralUnloaded
    {
        type            zeroGradient;
    }
    inletCentralUnloaded
    {
        type            zeroGradient;
    }
    outletFuelElement
    {
        type            zeroGradient;
    }
    inletFuelElement
    {
        type            zeroGradient;
    }
    defaultFaces
    {
        type            zeroGradient;
    }
    baffle_master
    {
        type            zeroGradient;
    }
    baffle_slave
    {
        type            zeroGradient;
    }
}


// ************************************************************************* //
