/*--------------------------------*- C++ -*----------------------------------*\
| =========                 |                                                 |
| \\      /  F ield         | OpenFOAM: The Open Source CFD Toolbox           |
|  \\    /   O peration     | Version:  2212                                  |
|   \\  /    A nd           | Website:  www.openfoam.com                      |
|    \\/     M anipulation  |                                                 |
\*---------------------------------------------------------------------------*/
FoamFile
{
    version     2.0;
    format      ascii;
    arch        "LSB;label=32;scalar=64";
    class       volScalarField;
    location    "49/fluidRegion";
    object      htc;
}
// * * * * * * * * * * * * * * * * * * * * * * * * * * * * * * * * * * * * * //

dimensions      [1 0 -3 -1 0 0 0];

internalField   nonuniform List<scalar> 
350
(
3100.94
3101.05
3101.2
3101.35
3101.45
3101.48
3101.45
3101.4
3101.37
3101.38
3101.45
3101.57
3101.7
3101.82
3101.91
3101.94
3101.94
3101.9
3101.86
3101.83
3101.81
3101.8
3101.79
3101.79
3106.93
3100.94
3101.05
3101.2
3101.35
3101.45
3101.48
3101.45
3101.4
3101.37
3101.38
3101.45
3101.57
3101.7
3101.82
3101.91
3101.94
3101.94
3101.9
3101.86
3101.83
3101.81
3101.8
3101.79
3101.79
3106.93
27236
27155.1
26968.7
26657.3
26222.3
25665.8
24990.6
24200.8
23301.4
22299.6
21205
20030
18789.7
17501
16180.4
14841.7
13495.3
12149.2
10812.8
9501.95
8244.85
7088.04
6102.66
5382.41
4943.25
27324.8
27243.6
27057.9
26746.5
26310.9
25753.4
25076.7
24284.5
23381.9
22375.7
21275.4
20093.4
18845.1
17547.7
16218.5
14872.2
13519.3
12167.9
10826.8
9511.5
8249.83
7088.54
6099.62
5378.17
4941.29
27221.9
27140.7
26954.3
26642.9
26208
25651.6
24976.8
24187.4
23288.6
22287.5
21193.8
20019.9
18780.9
17493.6
16174.2
14836.7
13491.3
12146
10810.2
9499.93
8243.44
7087.21
6102.24
5382.15
4943.11
27305.1
27224
27038.1
26726.6
26291.2
25733.8
25057.4
24265.7
23363.8
22358.6
21259.5
20079
18832.5
17537.1
16209.9
14865.3
13513.9
12163.7
10823.7
9509.4
8248.78
7088.53
6100.43
5379.27
4941.81
27305.1
27224
27038.1
26726.6
26291.2
25733.8
25057.4
24265.7
23363.8
22358.6
21259.5
20079
18832.5
17537.1
16209.9
14865.3
13513.9
12163.7
10823.7
9509.4
8248.78
7088.53
6100.43
5379.27
4941.81
27221.9
27140.7
26954.3
26642.9
26208
25651.6
24976.8
24187.4
23288.6
22287.5
21193.8
20019.9
18780.9
17493.6
16174.2
14836.7
13491.3
12145.9
10810.2
9499.93
8243.44
7087.2
6102.24
5382.14
4943.1
27324.8
27243.6
27057.9
26746.5
26310.9
25753.4
25076.7
24284.5
23381.9
22375.7
21275.4
20093.4
18845.1
17547.7
16218.5
14872.2
13519.3
12167.9
10826.8
9511.5
8249.83
7088.54
6099.62
5378.17
4941.29
27236
27155.1
26968.7
26657.3
26222.3
25665.8
24990.6
24200.8
23301.4
22299.6
21205
20030
18789.7
17501
16180.4
14841.7
13495.3
12149.2
10812.8
9501.95
8244.85
7088.04
6102.66
5382.41
4943.25
27305.1
27224
27038.1
26726.6
26291.2
25733.8
25057.4
24265.7
23363.8
22358.6
21259.5
20079
18832.5
17537.1
16209.9
14865.3
13513.9
12163.7
10823.7
9509.4
8248.78
7088.53
6100.43
5379.27
4941.81
27221.9
27140.7
26954.3
26642.9
26208
25651.6
24976.8
24187.4
23288.6
22287.5
21193.8
20019.9
18780.9
17493.6
16174.2
14836.7
13491.3
12146
10810.2
9499.93
8243.44
7087.2
6102.24
5382.15
4943.11
27221.9
27140.7
26954.3
26642.9
26208
25651.6
24976.8
24187.4
23288.6
22287.5
21193.8
20019.9
18780.9
17493.6
16174.2
14836.7
13491.3
12145.9
10810.2
9499.93
8243.44
7087.2
6102.24
5382.14
4943.1
27305.1
27224
27038.1
26726.6
26291.2
25733.8
25057.4
24265.7
23363.8
22358.6
21259.5
20079
18832.5
17537.1
16209.9
14865.3
13513.9
12163.7
10823.7
9509.4
8248.78
7088.53
6100.43
5379.27
4941.81
)
;

boundaryField
{
    outletCentralUnloaded
    {
        type            zeroGradient;
    }
    inletCentralUnloaded
    {
        type            zeroGradient;
    }
    outletFuelElement
    {
        type            zeroGradient;
    }
    inletFuelElement
    {
        type            zeroGradient;
    }
    defaultFaces
    {
        type            zeroGradient;
    }
    baffle_master
    {
        type            zeroGradient;
    }
    baffle_slave
    {
        type            zeroGradient;
    }
}


// ************************************************************************* //
