/*--------------------------------*- C++ -*----------------------------------*\
| =========                 |                                                 |
| \\      /  F ield         | OpenFOAM: The Open Source CFD Toolbox           |
|  \\    /   O peration     | Version:  2212                                  |
|   \\  /    A nd           | Website:  www.openfoam.com                      |
|    \\/     M anipulation  |                                                 |
\*---------------------------------------------------------------------------*/
FoamFile
{
    version     2.0;
    format      ascii;
    arch        "LSB;label=32;scalar=64";
    class       volTensorField;
    location    "49/fluidRegion";
    object      Kd;
}
// * * * * * * * * * * * * * * * * * * * * * * * * * * * * * * * * * * * * * //

dimensions      [1 -3 -1 0 0 0 0];

internalField   nonuniform List<tensor> 
350
(
(84.7308 0 0 0 84.7308 0 0 0 84.7308)
(84.7331 0 0 0 84.7331 0 0 0 84.7331)
(84.7367 0 0 0 84.7367 0 0 0 84.7367)
(84.7401 0 0 0 84.7401 0 0 0 84.7401)
(84.7422 0 0 0 84.7422 0 0 0 84.7422)
(84.7425 0 0 0 84.7425 0 0 0 84.7425)
(84.7414 0 0 0 84.7414 0 0 0 84.7414)
(84.7396 0 0 0 84.7396 0 0 0 84.7396)
(84.7383 0 0 0 84.7383 0 0 0 84.7383)
(84.7382 0 0 0 84.7382 0 0 0 84.7382)
(84.7396 0 0 0 84.7396 0 0 0 84.7396)
(84.7422 0 0 0 84.7422 0 0 0 84.7422)
(84.7452 0 0 0 84.7452 0 0 0 84.7452)
(84.7479 0 0 0 84.7479 0 0 0 84.7479)
(84.7496 0 0 0 84.7496 0 0 0 84.7496)
(84.7501 0 0 0 84.7501 0 0 0 84.7501)
(84.7495 0 0 0 84.7495 0 0 0 84.7495)
(84.7482 0 0 0 84.7482 0 0 0 84.7482)
(84.7468 0 0 0 84.7468 0 0 0 84.7468)
(84.7455 0 0 0 84.7455 0 0 0 84.7455)
(84.7446 0 0 0 84.7446 0 0 0 84.7446)
(84.7439 0 0 0 84.7439 0 0 0 84.7439)
(84.7433 0 0 0 84.7433 0 0 0 84.7433)
(84.7427 0 0 0 84.7427 0 0 0 84.7427)
(84.8741 0 0 0 84.8741 0 0 0 84.8741)
(84.7308 0 0 0 84.7308 0 0 0 84.7308)
(84.7331 0 0 0 84.7331 0 0 0 84.7331)
(84.7367 0 0 0 84.7367 0 0 0 84.7367)
(84.7401 0 0 0 84.7401 0 0 0 84.7401)
(84.7422 0 0 0 84.7422 0 0 0 84.7422)
(84.7425 0 0 0 84.7425 0 0 0 84.7425)
(84.7414 0 0 0 84.7414 0 0 0 84.7414)
(84.7396 0 0 0 84.7396 0 0 0 84.7396)
(84.7383 0 0 0 84.7383 0 0 0 84.7383)
(84.7382 0 0 0 84.7382 0 0 0 84.7382)
(84.7396 0 0 0 84.7396 0 0 0 84.7396)
(84.7422 0 0 0 84.7422 0 0 0 84.7422)
(84.7452 0 0 0 84.7452 0 0 0 84.7452)
(84.7479 0 0 0 84.7479 0 0 0 84.7479)
(84.7496 0 0 0 84.7496 0 0 0 84.7496)
(84.7501 0 0 0 84.7501 0 0 0 84.7501)
(84.7495 0 0 0 84.7495 0 0 0 84.7495)
(84.7482 0 0 0 84.7482 0 0 0 84.7482)
(84.7468 0 0 0 84.7468 0 0 0 84.7468)
(84.7455 0 0 0 84.7455 0 0 0 84.7455)
(84.7446 0 0 0 84.7446 0 0 0 84.7446)
(84.7439 0 0 0 84.7439 0 0 0 84.7439)
(84.7433 0 0 0 84.7433 0 0 0 84.7433)
(84.7427 0 0 0 84.7427 0 0 0 84.7427)
(84.8741 0 0 0 84.8741 0 0 0 84.8741)
(682.554 0 0 0 682.554 0 0 0 682.554)
(682.093 0 0 0 682.093 0 0 0 682.093)
(682.105 0 0 0 682.105 0 0 0 682.105)
(682.107 0 0 0 682.107 0 0 0 682.107)
(682.098 0 0 0 682.098 0 0 0 682.098)
(682.076 0 0 0 682.076 0 0 0 682.076)
(682.04 0 0 0 682.04 0 0 0 682.04)
(681.988 0 0 0 681.988 0 0 0 681.988)
(681.919 0 0 0 681.919 0 0 0 681.919)
(681.83 0 0 0 681.83 0 0 0 681.83)
(681.72 0 0 0 681.72 0 0 0 681.72)
(681.589 0 0 0 681.589 0 0 0 681.589)
(681.437 0 0 0 681.437 0 0 0 681.437)
(681.264 0 0 0 681.264 0 0 0 681.264)
(681.067 0 0 0 681.067 0 0 0 681.067)
(680.838 0 0 0 680.838 0 0 0 680.838)
(680.559 0 0 0 680.559 0 0 0 680.559)
(680.212 0 0 0 680.212 0 0 0 680.212)
(679.79 0 0 0 679.79 0 0 0 679.79)
(679.348 0 0 0 679.348 0 0 0 679.348)
(679.066 0 0 0 679.066 0 0 0 679.066)
(679.494 0 0 0 679.494 0 0 0 679.494)
(681.964 0 0 0 681.964 0 0 0 681.964)
(688.837 0 0 0 688.837 0 0 0 688.837)
(693.328 0 0 0 693.328 0 0 0 693.328)
(678.018 0 0 0 678.018 0 0 0 678.018)
(677.485 0 0 0 677.485 0 0 0 677.485)
(677.458 0 0 0 677.458 0 0 0 677.458)
(677.422 0 0 0 677.422 0 0 0 677.422)
(677.377 0 0 0 677.377 0 0 0 677.377)
(677.321 0 0 0 677.321 0 0 0 677.321)
(677.255 0 0 0 677.255 0 0 0 677.255)
(677.174 0 0 0 677.174 0 0 0 677.174)
(677.078 0 0 0 677.078 0 0 0 677.078)
(676.965 0 0 0 676.965 0 0 0 676.965)
(676.835 0 0 0 676.835 0 0 0 676.835)
(676.691 0 0 0 676.691 0 0 0 676.691)
(676.542 0 0 0 676.542 0 0 0 676.542)
(676.395 0 0 0 676.395 0 0 0 676.395)
(676.259 0 0 0 676.259 0 0 0 676.259)
(676.132 0 0 0 676.132 0 0 0 676.132)
(676.003 0 0 0 676.003 0 0 0 676.003)
(675.857 0 0 0 675.857 0 0 0 675.857)
(675.686 0 0 0 675.686 0 0 0 675.686)
(675.548 0 0 0 675.548 0 0 0 675.548)
(675.638 0 0 0 675.638 0 0 0 675.638)
(676.538 0 0 0 676.538 0 0 0 676.538)
(679.636 0 0 0 679.636 0 0 0 679.636)
(687.349 0 0 0 687.349 0 0 0 687.349)
(692.844 0 0 0 692.844 0 0 0 692.844)
(683.312 0 0 0 683.312 0 0 0 683.312)
(682.847 0 0 0 682.847 0 0 0 682.847)
(682.863 0 0 0 682.863 0 0 0 682.863)
(682.868 0 0 0 682.868 0 0 0 682.868)
(682.861 0 0 0 682.861 0 0 0 682.861)
(682.841 0 0 0 682.841 0 0 0 682.841)
(682.806 0 0 0 682.806 0 0 0 682.806)
(682.756 0 0 0 682.756 0 0 0 682.756)
(682.687 0 0 0 682.687 0 0 0 682.687)
(682.597 0 0 0 682.597 0 0 0 682.597)
(682.486 0 0 0 682.486 0 0 0 682.486)
(682.351 0 0 0 682.351 0 0 0 682.351)
(682.193 0 0 0 682.193 0 0 0 682.193)
(682.01 0 0 0 682.01 0 0 0 682.01)
(681.797 0 0 0 681.797 0 0 0 681.797)
(681.544 0 0 0 681.544 0 0 0 681.544)
(681.233 0 0 0 681.233 0 0 0 681.233)
(680.845 0 0 0 680.845 0 0 0 680.845)
(680.374 0 0 0 680.374 0 0 0 680.374)
(679.873 0 0 0 679.873 0 0 0 679.873)
(679.518 0 0 0 679.518 0 0 0 679.518)
(679.856 0 0 0 679.856 0 0 0 679.856)
(682.211 0 0 0 682.211 0 0 0 682.211)
(688.948 0 0 0 688.948 0 0 0 688.948)
(693.345 0 0 0 693.345 0 0 0 693.345)
(679.033 0 0 0 679.033 0 0 0 679.033)
(678.521 0 0 0 678.521 0 0 0 678.521)
(678.504 0 0 0 678.504 0 0 0 678.504)
(678.479 0 0 0 678.479 0 0 0 678.479)
(678.444 0 0 0 678.444 0 0 0 678.444)
(678.398 0 0 0 678.398 0 0 0 678.398)
(678.34 0 0 0 678.34 0 0 0 678.34)
(678.268 0 0 0 678.268 0 0 0 678.268)
(678.18 0 0 0 678.18 0 0 0 678.18)
(678.073 0 0 0 678.073 0 0 0 678.073)
(677.95 0 0 0 677.95 0 0 0 677.95)
(677.811 0 0 0 677.811 0 0 0 677.811)
(677.663 0 0 0 677.663 0 0 0 677.663)
(677.512 0 0 0 677.512 0 0 0 677.512)
(677.364 0 0 0 677.364 0 0 0 677.364)
(677.215 0 0 0 677.215 0 0 0 677.215)
(677.054 0 0 0 677.054 0 0 0 677.054)
(676.863 0 0 0 676.863 0 0 0 676.863)
(676.636 0 0 0 676.636 0 0 0 676.636)
(676.43 0 0 0 676.43 0 0 0 676.43)
(676.436 0 0 0 676.436 0 0 0 676.436)
(677.23 0 0 0 677.23 0 0 0 677.23)
(680.186 0 0 0 680.186 0 0 0 680.186)
(687.707 0 0 0 687.707 0 0 0 687.707)
(692.964 0 0 0 692.964 0 0 0 692.964)
(679.033 0 0 0 679.033 0 0 0 679.033)
(678.521 0 0 0 678.521 0 0 0 678.521)
(678.504 0 0 0 678.504 0 0 0 678.504)
(678.479 0 0 0 678.479 0 0 0 678.479)
(678.444 0 0 0 678.444 0 0 0 678.444)
(678.398 0 0 0 678.398 0 0 0 678.398)
(678.34 0 0 0 678.34 0 0 0 678.34)
(678.268 0 0 0 678.268 0 0 0 678.268)
(678.18 0 0 0 678.18 0 0 0 678.18)
(678.073 0 0 0 678.073 0 0 0 678.073)
(677.95 0 0 0 677.95 0 0 0 677.95)
(677.811 0 0 0 677.811 0 0 0 677.811)
(677.663 0 0 0 677.663 0 0 0 677.663)
(677.512 0 0 0 677.512 0 0 0 677.512)
(677.364 0 0 0 677.364 0 0 0 677.364)
(677.215 0 0 0 677.215 0 0 0 677.215)
(677.054 0 0 0 677.054 0 0 0 677.054)
(676.863 0 0 0 676.863 0 0 0 676.863)
(676.636 0 0 0 676.636 0 0 0 676.636)
(676.43 0 0 0 676.43 0 0 0 676.43)
(676.436 0 0 0 676.436 0 0 0 676.436)
(677.23 0 0 0 677.23 0 0 0 677.23)
(680.186 0 0 0 680.186 0 0 0 680.186)
(687.707 0 0 0 687.707 0 0 0 687.707)
(692.964 0 0 0 692.964 0 0 0 692.964)
(683.312 0 0 0 683.312 0 0 0 683.312)
(682.847 0 0 0 682.847 0 0 0 682.847)
(682.863 0 0 0 682.863 0 0 0 682.863)
(682.868 0 0 0 682.868 0 0 0 682.868)
(682.861 0 0 0 682.861 0 0 0 682.861)
(682.841 0 0 0 682.841 0 0 0 682.841)
(682.806 0 0 0 682.806 0 0 0 682.806)
(682.755 0 0 0 682.755 0 0 0 682.755)
(682.686 0 0 0 682.686 0 0 0 682.686)
(682.597 0 0 0 682.597 0 0 0 682.597)
(682.486 0 0 0 682.486 0 0 0 682.486)
(682.351 0 0 0 682.351 0 0 0 682.351)
(682.193 0 0 0 682.193 0 0 0 682.193)
(682.01 0 0 0 682.01 0 0 0 682.01)
(681.797 0 0 0 681.797 0 0 0 681.797)
(681.543 0 0 0 681.543 0 0 0 681.543)
(681.232 0 0 0 681.232 0 0 0 681.232)
(680.845 0 0 0 680.845 0 0 0 680.845)
(680.374 0 0 0 680.374 0 0 0 680.374)
(679.872 0 0 0 679.872 0 0 0 679.872)
(679.517 0 0 0 679.517 0 0 0 679.517)
(679.854 0 0 0 679.854 0 0 0 679.854)
(682.209 0 0 0 682.209 0 0 0 682.209)
(688.947 0 0 0 688.947 0 0 0 688.947)
(693.345 0 0 0 693.345 0 0 0 693.345)
(678.018 0 0 0 678.018 0 0 0 678.018)
(677.485 0 0 0 677.485 0 0 0 677.485)
(677.458 0 0 0 677.458 0 0 0 677.458)
(677.422 0 0 0 677.422 0 0 0 677.422)
(677.377 0 0 0 677.377 0 0 0 677.377)
(677.321 0 0 0 677.321 0 0 0 677.321)
(677.255 0 0 0 677.255 0 0 0 677.255)
(677.174 0 0 0 677.174 0 0 0 677.174)
(677.078 0 0 0 677.078 0 0 0 677.078)
(676.965 0 0 0 676.965 0 0 0 676.965)
(676.835 0 0 0 676.835 0 0 0 676.835)
(676.691 0 0 0 676.691 0 0 0 676.691)
(676.542 0 0 0 676.542 0 0 0 676.542)
(676.395 0 0 0 676.395 0 0 0 676.395)
(676.259 0 0 0 676.259 0 0 0 676.259)
(676.132 0 0 0 676.132 0 0 0 676.132)
(676.003 0 0 0 676.003 0 0 0 676.003)
(675.857 0 0 0 675.857 0 0 0 675.857)
(675.686 0 0 0 675.686 0 0 0 675.686)
(675.548 0 0 0 675.548 0 0 0 675.548)
(675.638 0 0 0 675.638 0 0 0 675.638)
(676.538 0 0 0 676.538 0 0 0 676.538)
(679.636 0 0 0 679.636 0 0 0 679.636)
(687.349 0 0 0 687.349 0 0 0 687.349)
(692.844 0 0 0 692.844 0 0 0 692.844)
(682.554 0 0 0 682.554 0 0 0 682.554)
(682.093 0 0 0 682.093 0 0 0 682.093)
(682.105 0 0 0 682.105 0 0 0 682.105)
(682.107 0 0 0 682.107 0 0 0 682.107)
(682.098 0 0 0 682.098 0 0 0 682.098)
(682.076 0 0 0 682.076 0 0 0 682.076)
(682.04 0 0 0 682.04 0 0 0 682.04)
(681.988 0 0 0 681.988 0 0 0 681.988)
(681.919 0 0 0 681.919 0 0 0 681.919)
(681.83 0 0 0 681.83 0 0 0 681.83)
(681.72 0 0 0 681.72 0 0 0 681.72)
(681.589 0 0 0 681.589 0 0 0 681.589)
(681.437 0 0 0 681.437 0 0 0 681.437)
(681.264 0 0 0 681.264 0 0 0 681.264)
(681.067 0 0 0 681.067 0 0 0 681.067)
(680.838 0 0 0 680.838 0 0 0 680.838)
(680.559 0 0 0 680.559 0 0 0 680.559)
(680.212 0 0 0 680.212 0 0 0 680.212)
(679.79 0 0 0 679.79 0 0 0 679.79)
(679.348 0 0 0 679.348 0 0 0 679.348)
(679.066 0 0 0 679.066 0 0 0 679.066)
(679.494 0 0 0 679.494 0 0 0 679.494)
(681.964 0 0 0 681.964 0 0 0 681.964)
(688.837 0 0 0 688.837 0 0 0 688.837)
(693.329 0 0 0 693.329 0 0 0 693.329)
(679.033 0 0 0 679.033 0 0 0 679.033)
(678.521 0 0 0 678.521 0 0 0 678.521)
(678.504 0 0 0 678.504 0 0 0 678.504)
(678.479 0 0 0 678.479 0 0 0 678.479)
(678.444 0 0 0 678.444 0 0 0 678.444)
(678.398 0 0 0 678.398 0 0 0 678.398)
(678.34 0 0 0 678.34 0 0 0 678.34)
(678.268 0 0 0 678.268 0 0 0 678.268)
(678.18 0 0 0 678.18 0 0 0 678.18)
(678.073 0 0 0 678.073 0 0 0 678.073)
(677.95 0 0 0 677.95 0 0 0 677.95)
(677.811 0 0 0 677.811 0 0 0 677.811)
(677.663 0 0 0 677.663 0 0 0 677.663)
(677.512 0 0 0 677.512 0 0 0 677.512)
(677.364 0 0 0 677.364 0 0 0 677.364)
(677.215 0 0 0 677.215 0 0 0 677.215)
(677.054 0 0 0 677.054 0 0 0 677.054)
(676.863 0 0 0 676.863 0 0 0 676.863)
(676.636 0 0 0 676.636 0 0 0 676.636)
(676.43 0 0 0 676.43 0 0 0 676.43)
(676.436 0 0 0 676.436 0 0 0 676.436)
(677.23 0 0 0 677.23 0 0 0 677.23)
(680.186 0 0 0 680.186 0 0 0 680.186)
(687.707 0 0 0 687.707 0 0 0 687.707)
(692.964 0 0 0 692.964 0 0 0 692.964)
(683.312 0 0 0 683.312 0 0 0 683.312)
(682.847 0 0 0 682.847 0 0 0 682.847)
(682.863 0 0 0 682.863 0 0 0 682.863)
(682.868 0 0 0 682.868 0 0 0 682.868)
(682.861 0 0 0 682.861 0 0 0 682.861)
(682.841 0 0 0 682.841 0 0 0 682.841)
(682.806 0 0 0 682.806 0 0 0 682.806)
(682.756 0 0 0 682.756 0 0 0 682.756)
(682.687 0 0 0 682.687 0 0 0 682.687)
(682.597 0 0 0 682.597 0 0 0 682.597)
(682.486 0 0 0 682.486 0 0 0 682.486)
(682.351 0 0 0 682.351 0 0 0 682.351)
(682.193 0 0 0 682.193 0 0 0 682.193)
(682.01 0 0 0 682.01 0 0 0 682.01)
(681.797 0 0 0 681.797 0 0 0 681.797)
(681.544 0 0 0 681.544 0 0 0 681.544)
(681.233 0 0 0 681.233 0 0 0 681.233)
(680.845 0 0 0 680.845 0 0 0 680.845)
(680.374 0 0 0 680.374 0 0 0 680.374)
(679.873 0 0 0 679.873 0 0 0 679.873)
(679.518 0 0 0 679.518 0 0 0 679.518)
(679.856 0 0 0 679.856 0 0 0 679.856)
(682.211 0 0 0 682.211 0 0 0 682.211)
(688.949 0 0 0 688.949 0 0 0 688.949)
(693.346 0 0 0 693.346 0 0 0 693.346)
(683.312 0 0 0 683.312 0 0 0 683.312)
(682.847 0 0 0 682.847 0 0 0 682.847)
(682.863 0 0 0 682.863 0 0 0 682.863)
(682.868 0 0 0 682.868 0 0 0 682.868)
(682.861 0 0 0 682.861 0 0 0 682.861)
(682.841 0 0 0 682.841 0 0 0 682.841)
(682.806 0 0 0 682.806 0 0 0 682.806)
(682.755 0 0 0 682.755 0 0 0 682.755)
(682.686 0 0 0 682.686 0 0 0 682.686)
(682.597 0 0 0 682.597 0 0 0 682.597)
(682.486 0 0 0 682.486 0 0 0 682.486)
(682.351 0 0 0 682.351 0 0 0 682.351)
(682.193 0 0 0 682.193 0 0 0 682.193)
(682.01 0 0 0 682.01 0 0 0 682.01)
(681.797 0 0 0 681.797 0 0 0 681.797)
(681.543 0 0 0 681.543 0 0 0 681.543)
(681.232 0 0 0 681.232 0 0 0 681.232)
(680.845 0 0 0 680.845 0 0 0 680.845)
(680.374 0 0 0 680.374 0 0 0 680.374)
(679.872 0 0 0 679.872 0 0 0 679.872)
(679.517 0 0 0 679.517 0 0 0 679.517)
(679.855 0 0 0 679.855 0 0 0 679.855)
(682.209 0 0 0 682.209 0 0 0 682.209)
(688.947 0 0 0 688.947 0 0 0 688.947)
(693.345 0 0 0 693.345 0 0 0 693.345)
(679.033 0 0 0 679.033 0 0 0 679.033)
(678.521 0 0 0 678.521 0 0 0 678.521)
(678.504 0 0 0 678.504 0 0 0 678.504)
(678.479 0 0 0 678.479 0 0 0 678.479)
(678.444 0 0 0 678.444 0 0 0 678.444)
(678.398 0 0 0 678.398 0 0 0 678.398)
(678.34 0 0 0 678.34 0 0 0 678.34)
(678.268 0 0 0 678.268 0 0 0 678.268)
(678.18 0 0 0 678.18 0 0 0 678.18)
(678.073 0 0 0 678.073 0 0 0 678.073)
(677.95 0 0 0 677.95 0 0 0 677.95)
(677.811 0 0 0 677.811 0 0 0 677.811)
(677.663 0 0 0 677.663 0 0 0 677.663)
(677.512 0 0 0 677.512 0 0 0 677.512)
(677.364 0 0 0 677.364 0 0 0 677.364)
(677.215 0 0 0 677.215 0 0 0 677.215)
(677.054 0 0 0 677.054 0 0 0 677.054)
(676.863 0 0 0 676.863 0 0 0 676.863)
(676.636 0 0 0 676.636 0 0 0 676.636)
(676.43 0 0 0 676.43 0 0 0 676.43)
(676.436 0 0 0 676.436 0 0 0 676.436)
(677.23 0 0 0 677.23 0 0 0 677.23)
(680.186 0 0 0 680.186 0 0 0 680.186)
(687.708 0 0 0 687.708 0 0 0 687.708)
(692.965 0 0 0 692.965 0 0 0 692.965)
)
;

boundaryField
{
    outletCentralUnloaded
    {
        type            zeroGradient;
    }
    inletCentralUnloaded
    {
        type            zeroGradient;
    }
    outletFuelElement
    {
        type            zeroGradient;
    }
    inletFuelElement
    {
        type            zeroGradient;
    }
    defaultFaces
    {
        type            zeroGradient;
    }
    baffle_master
    {
        type            zeroGradient;
    }
    baffle_slave
    {
        type            zeroGradient;
    }
}


// ************************************************************************* //
