/*--------------------------------*- C++ -*----------------------------------*\
| =========                 |                                                 |
| \\      /  F ield         | OpenFOAM: The Open Source CFD Toolbox           |
|  \\    /   O peration     | Version:  2212                                  |
|   \\  /    A nd           | Website:  www.openfoam.com                      |
|    \\/     M anipulation  |                                                 |
\*---------------------------------------------------------------------------*/
FoamFile
{
    version     2.0;
    format      ascii;
    arch        "LSB;label=32;scalar=64";
    class       volScalarField;
    location    "49/fluidRegion";
    object      nut;
}
// * * * * * * * * * * * * * * * * * * * * * * * * * * * * * * * * * * * * * //

dimensions      [0 2 -1 0 0 0 0];

internalField   nonuniform List<scalar> 
350
(
0.000537559
0.000537524
0.000537495
0.000537466
0.000537432
0.00053739
0.000537342
0.00053729
0.000537241
0.000537197
0.000537161
0.000537131
0.000537105
0.00053708
0.000537054
0.000537028
0.000537006
0.000536995
0.000537006
0.000537052
0.000537152
0.000537332
0.000537635
0.00053812
0.000539503
0.000537559
0.000537524
0.000537495
0.000537466
0.000537432
0.00053739
0.000537342
0.00053729
0.000537241
0.000537197
0.000537161
0.000537131
0.000537105
0.00053708
0.000537054
0.000537028
0.000537006
0.000536995
0.000537006
0.000537052
0.000537152
0.000537332
0.000537635
0.00053812
0.000539503
0.010411
0.0101923
0.00992154
0.00959482
0.00921711
0.0087936
0.00832963
0.00783068
0.00730242
0.0067507
0.00618168
0.00560194
0.00501861
0.00443946
0.00387275
0.00332696
0.00281026
0.00233002
0.00189249
0.00150287
0.00116578
0.000885659
0.000666779
0.000511736
0.000416369
0.0104783
0.0102585
0.00998673
0.00965855
0.00927897
0.00885318
0.00838657
0.00788465
0.00735309
0.00679779
0.00622491
0.00564108
0.00505346
0.00446988
0.00389869
0.0033485
0.00282761
0.00234349
0.00190249
0.00150987
0.00117028
0.000888215
0.000667965
0.000512117
0.000416435
0.0104001
0.0101815
0.00991088
0.00958444
0.00920707
0.00878396
0.00832045
0.00782201
0.0072943
0.00674318
0.00617479
0.00559572
0.00501309
0.00443465
0.00386864
0.00332354
0.0028075
0.00232787
0.00189087
0.00150171
0.001165
0.000885168
0.000666496
0.000511587
0.000416319
0.0104634
0.0102438
0.00997226
0.00964437
0.00926517
0.00883987
0.00837382
0.00787254
0.0073417
0.00678718
0.00621516
0.00563223
0.00504557
0.00446297
0.0038928
0.0033436
0.00282366
0.00234042
0.00190021
0.00150827
0.00116926
0.000887639
0.000667705
0.000512041
0.000416426
0.0104634
0.0102438
0.00997226
0.00964437
0.00926517
0.00883987
0.00837382
0.00787254
0.0073417
0.00678718
0.00621516
0.00563223
0.00504557
0.00446297
0.0038928
0.0033436
0.00282366
0.00234042
0.00190021
0.00150828
0.00116926
0.000887639
0.000667704
0.000512041
0.000416426
0.0104001
0.0101815
0.00991089
0.00958444
0.00920708
0.00878397
0.00832045
0.00782201
0.00729431
0.00674318
0.0061748
0.00559572
0.00501309
0.00443465
0.00386865
0.00332355
0.00280751
0.00232787
0.00189087
0.00150172
0.001165
0.000885169
0.000666496
0.000511587
0.000416319
0.0104783
0.0102585
0.00998673
0.00965855
0.00927897
0.00885318
0.00838657
0.00788465
0.00735309
0.00679779
0.00622491
0.00564108
0.00505346
0.00446988
0.00389869
0.0033485
0.00282761
0.00234349
0.00190249
0.00150987
0.00117028
0.000888215
0.000667965
0.000512117
0.000416435
0.010411
0.0101923
0.00992154
0.00959482
0.00921711
0.0087936
0.00832963
0.00783068
0.00730242
0.0067507
0.00618168
0.00560194
0.00501861
0.00443946
0.00387275
0.00332696
0.00281026
0.00233002
0.00189249
0.00150288
0.00116578
0.00088566
0.000666781
0.000511739
0.000416371
0.0104634
0.0102438
0.00997226
0.00964437
0.00926517
0.00883987
0.00837382
0.00787254
0.0073417
0.00678718
0.00621516
0.00563223
0.00504557
0.00446297
0.0038928
0.0033436
0.00282366
0.00234042
0.00190021
0.00150828
0.00116926
0.00088764
0.000667705
0.000512042
0.000416427
0.0104001
0.0101815
0.00991088
0.00958444
0.00920707
0.00878396
0.00832045
0.00782201
0.0072943
0.00674318
0.00617479
0.00559572
0.00501309
0.00443465
0.00386864
0.00332354
0.0028075
0.00232787
0.00189087
0.00150171
0.00116499
0.000885165
0.000666492
0.000511582
0.000416314
0.0104001
0.0101815
0.00991089
0.00958444
0.00920708
0.00878397
0.00832045
0.00782201
0.00729431
0.00674318
0.0061748
0.00559572
0.00501309
0.00443465
0.00386865
0.00332355
0.00280751
0.00232787
0.00189087
0.00150172
0.001165
0.000885169
0.000666496
0.000511586
0.000416318
0.0104634
0.0102438
0.00997226
0.00964437
0.00926517
0.00883987
0.00837382
0.00787254
0.0073417
0.00678718
0.00621516
0.00563223
0.00504557
0.00446297
0.0038928
0.0033436
0.00282366
0.00234042
0.00190021
0.00150828
0.00116926
0.000887642
0.000667708
0.000512045
0.00041643
)
;

boundaryField
{
    outletCentralUnloaded
    {
        type            zeroGradient;
    }
    inletCentralUnloaded
    {
        type            zeroGradient;
    }
    outletFuelElement
    {
        type            zeroGradient;
    }
    inletFuelElement
    {
        type            zeroGradient;
    }
    defaultFaces
    {
        type            zeroGradient;
    }
    baffle_master
    {
        type            calculated;
        value           nonuniform List<scalar> 
150
(
0.000537559
0.000537559
0.000537559
0.000537524
0.000537524
0.000537524
0.000537495
0.000537495
0.000537495
0.000537466
0.000537466
0.000537466
0.000537432
0.000537432
0.000537432
0.00053739
0.00053739
0.00053739
0.000537342
0.000537342
0.000537342
0.00053729
0.00053729
0.00053729
0.000537241
0.000537241
0.000537241
0.000537197
0.000537197
0.000537197
0.000537161
0.000537161
0.000537161
0.000537131
0.000537131
0.000537131
0.000537105
0.000537105
0.000537105
0.00053708
0.00053708
0.00053708
0.000537054
0.000537054
0.000537054
0.000537028
0.000537028
0.000537028
0.000537006
0.000537006
0.000537006
0.000536995
0.000536995
0.000536995
0.000537006
0.000537006
0.000537006
0.000537052
0.000537052
0.000537052
0.000537152
0.000537152
0.000537152
0.000537332
0.000537332
0.000537332
0.000537635
0.000537635
0.000537635
0.00053812
0.00053812
0.00053812
0.000539503
0.000539503
0.000539503
0.000537559
0.000537559
0.000537559
0.000537524
0.000537524
0.000537524
0.000537495
0.000537495
0.000537495
0.000537466
0.000537466
0.000537466
0.000537432
0.000537432
0.000537432
0.00053739
0.00053739
0.00053739
0.000537342
0.000537342
0.000537342
0.00053729
0.00053729
0.00053729
0.000537241
0.000537241
0.000537241
0.000537197
0.000537197
0.000537197
0.000537161
0.000537161
0.000537161
0.000537131
0.000537131
0.000537131
0.000537105
0.000537105
0.000537105
0.00053708
0.00053708
0.00053708
0.000537054
0.000537054
0.000537054
0.000537028
0.000537028
0.000537028
0.000537006
0.000537006
0.000537006
0.000536995
0.000536995
0.000536995
0.000537006
0.000537006
0.000537006
0.000537052
0.000537052
0.000537052
0.000537152
0.000537152
0.000537152
0.000537332
0.000537332
0.000537332
0.000537635
0.000537635
0.000537635
0.00053812
0.00053812
0.00053812
0.000539503
0.000539503
0.000539503
)
;
    }
    baffle_slave
    {
        type            calculated;
        value           nonuniform List<scalar> 
150
(
0.0104783
0.0104634
0.0104634
0.0102585
0.0102438
0.0102438
0.00998673
0.00997226
0.00997226
0.00965855
0.00964437
0.00964437
0.00927897
0.00926517
0.00926517
0.00885318
0.00883987
0.00883987
0.00838657
0.00837382
0.00837382
0.00788465
0.00787254
0.00787254
0.00735309
0.0073417
0.0073417
0.00679779
0.00678718
0.00678718
0.00622491
0.00621516
0.00621516
0.00564108
0.00563223
0.00563223
0.00505346
0.00504557
0.00504557
0.00446988
0.00446297
0.00446297
0.00389869
0.0038928
0.0038928
0.0033485
0.0033436
0.0033436
0.00282761
0.00282366
0.00282366
0.00234349
0.00234042
0.00234042
0.00190249
0.00190021
0.00190021
0.00150987
0.00150827
0.00150828
0.00117028
0.00116926
0.00116926
0.000888215
0.000887639
0.000887642
0.000667965
0.000667705
0.000667708
0.000512117
0.000512041
0.000512045
0.000416435
0.000416426
0.00041643
0.0104634
0.0104783
0.0104634
0.0102438
0.0102585
0.0102438
0.00997226
0.00998673
0.00997226
0.00964437
0.00965855
0.00964437
0.00926517
0.00927897
0.00926517
0.00883987
0.00885318
0.00883987
0.00837382
0.00838657
0.00837382
0.00787254
0.00788465
0.00787254
0.0073417
0.00735309
0.0073417
0.00678718
0.00679779
0.00678718
0.00621516
0.00622491
0.00621516
0.00563223
0.00564108
0.00563223
0.00504557
0.00505346
0.00504557
0.00446297
0.00446988
0.00446297
0.0038928
0.00389869
0.0038928
0.0033436
0.0033485
0.0033436
0.00282366
0.00282761
0.00282366
0.00234042
0.00234349
0.00234042
0.00190021
0.00190249
0.00190021
0.00150828
0.00150987
0.00150828
0.00116926
0.00117028
0.00116926
0.000887639
0.000888215
0.00088764
0.000667704
0.000667965
0.000667705
0.000512041
0.000512117
0.000512042
0.000416426
0.000416435
0.000416427
)
;
    }
}


// ************************************************************************* //
