/*--------------------------------*- C++ -*----------------------------------*\
| =========                 |                                                 |
| \\      /  F ield         | OpenFOAM: The Open Source CFD Toolbox           |
|  \\    /   O peration     | Version:  2212                                  |
|   \\  /    A nd           | Website:  www.openfoam.com                      |
|    \\/     M anipulation  |                                                 |
\*---------------------------------------------------------------------------*/
FoamFile
{
    version     2.0;
    format      ascii;
    arch        "LSB;label=32;scalar=64";
    class       volScalarField;
    location    "49/fluidRegion";
    object      p;
}
// * * * * * * * * * * * * * * * * * * * * * * * * * * * * * * * * * * * * * //

dimensions      [1 -1 -2 0 0 0 0];

internalField   nonuniform List<scalar> 
350
(
3.44743e+06
3.44773e+06
3.44802e+06
3.44832e+06
3.44861e+06
3.4489e+06
3.44919e+06
3.44949e+06
3.44979e+06
3.45008e+06
3.45038e+06
3.45068e+06
3.45097e+06
3.45127e+06
3.45156e+06
3.45186e+06
3.45215e+06
3.45245e+06
3.45275e+06
3.45304e+06
3.45334e+06
3.45364e+06
3.45393e+06
3.45423e+06
3.45451e+06
3.44743e+06
3.44773e+06
3.44802e+06
3.44832e+06
3.44861e+06
3.4489e+06
3.44919e+06
3.44949e+06
3.44979e+06
3.45008e+06
3.45038e+06
3.45068e+06
3.45097e+06
3.45127e+06
3.45156e+06
3.45186e+06
3.45215e+06
3.45245e+06
3.45275e+06
3.45304e+06
3.45334e+06
3.45364e+06
3.45393e+06
3.45423e+06
3.45451e+06
3.47381e+06
3.52559e+06
3.57676e+06
3.62701e+06
3.67605e+06
3.72358e+06
3.76934e+06
3.81311e+06
3.85468e+06
3.89384e+06
3.93045e+06
3.96437e+06
3.99548e+06
4.02371e+06
4.04901e+06
4.07138e+06
4.09086e+06
4.10754e+06
4.12157e+06
4.13311e+06
4.14237e+06
4.14956e+06
4.15494e+06
4.15879e+06
4.16147e+06
3.47381e+06
3.52559e+06
3.57676e+06
3.62701e+06
3.67605e+06
3.72358e+06
3.76934e+06
3.81311e+06
3.85468e+06
3.89384e+06
3.93045e+06
3.96437e+06
3.99548e+06
4.02371e+06
4.04901e+06
4.07138e+06
4.09086e+06
4.10754e+06
4.12157e+06
4.13311e+06
4.14237e+06
4.14956e+06
4.15494e+06
4.15879e+06
4.16147e+06
3.47381e+06
3.52559e+06
3.57676e+06
3.62701e+06
3.67605e+06
3.72358e+06
3.76934e+06
3.81311e+06
3.85468e+06
3.89384e+06
3.93045e+06
3.96437e+06
3.99548e+06
4.02371e+06
4.04901e+06
4.07138e+06
4.09086e+06
4.10754e+06
4.12157e+06
4.13311e+06
4.14237e+06
4.14956e+06
4.15494e+06
4.15879e+06
4.16147e+06
3.47381e+06
3.52559e+06
3.57676e+06
3.62701e+06
3.67605e+06
3.72358e+06
3.76934e+06
3.81311e+06
3.85468e+06
3.89384e+06
3.93045e+06
3.96437e+06
3.99548e+06
4.02371e+06
4.04901e+06
4.07138e+06
4.09086e+06
4.10754e+06
4.12157e+06
4.13311e+06
4.14237e+06
4.14956e+06
4.15494e+06
4.15879e+06
4.16147e+06
3.47381e+06
3.52559e+06
3.57676e+06
3.62701e+06
3.67605e+06
3.72358e+06
3.76934e+06
3.81311e+06
3.85468e+06
3.89384e+06
3.93045e+06
3.96437e+06
3.99548e+06
4.02371e+06
4.04901e+06
4.07138e+06
4.09086e+06
4.10754e+06
4.12157e+06
4.13311e+06
4.14237e+06
4.14956e+06
4.15494e+06
4.15879e+06
4.16147e+06
3.47381e+06
3.52559e+06
3.57676e+06
3.62701e+06
3.67605e+06
3.72358e+06
3.76934e+06
3.81311e+06
3.85468e+06
3.89384e+06
3.93045e+06
3.96437e+06
3.99548e+06
4.02371e+06
4.04901e+06
4.07138e+06
4.09086e+06
4.10754e+06
4.12157e+06
4.13311e+06
4.14237e+06
4.14956e+06
4.15494e+06
4.15879e+06
4.16147e+06
3.47381e+06
3.52559e+06
3.57676e+06
3.62701e+06
3.67605e+06
3.72358e+06
3.76934e+06
3.81311e+06
3.85468e+06
3.89384e+06
3.93045e+06
3.96437e+06
3.99548e+06
4.02371e+06
4.04901e+06
4.07138e+06
4.09086e+06
4.10754e+06
4.12157e+06
4.13311e+06
4.14237e+06
4.14956e+06
4.15494e+06
4.15879e+06
4.16147e+06
3.47381e+06
3.52559e+06
3.57676e+06
3.62701e+06
3.67605e+06
3.72358e+06
3.76934e+06
3.81311e+06
3.85468e+06
3.89384e+06
3.93045e+06
3.96437e+06
3.99548e+06
4.02371e+06
4.04901e+06
4.07138e+06
4.09086e+06
4.10754e+06
4.12157e+06
4.13311e+06
4.14237e+06
4.14956e+06
4.15494e+06
4.15879e+06
4.16147e+06
3.47381e+06
3.52559e+06
3.57676e+06
3.62701e+06
3.67605e+06
3.72358e+06
3.76934e+06
3.81311e+06
3.85468e+06
3.89384e+06
3.93045e+06
3.96437e+06
3.99548e+06
4.02371e+06
4.04901e+06
4.07138e+06
4.09086e+06
4.10754e+06
4.12157e+06
4.13311e+06
4.14237e+06
4.14956e+06
4.15494e+06
4.15879e+06
4.16147e+06
3.47381e+06
3.52559e+06
3.57676e+06
3.62701e+06
3.67605e+06
3.72358e+06
3.76934e+06
3.81311e+06
3.85468e+06
3.89384e+06
3.93045e+06
3.96437e+06
3.99548e+06
4.02371e+06
4.04901e+06
4.07138e+06
4.09086e+06
4.10754e+06
4.12157e+06
4.13311e+06
4.14237e+06
4.14956e+06
4.15494e+06
4.15879e+06
4.16147e+06
3.47381e+06
3.52559e+06
3.57676e+06
3.62701e+06
3.67605e+06
3.72358e+06
3.76934e+06
3.81311e+06
3.85468e+06
3.89384e+06
3.93045e+06
3.96437e+06
3.99548e+06
4.02371e+06
4.04901e+06
4.07138e+06
4.09086e+06
4.10754e+06
4.12157e+06
4.13311e+06
4.14237e+06
4.14956e+06
4.15494e+06
4.15879e+06
4.16147e+06
3.47381e+06
3.52559e+06
3.57676e+06
3.62701e+06
3.67605e+06
3.72358e+06
3.76934e+06
3.81311e+06
3.85468e+06
3.89384e+06
3.93045e+06
3.96437e+06
3.99548e+06
4.02371e+06
4.04901e+06
4.07138e+06
4.09086e+06
4.10754e+06
4.12157e+06
4.13311e+06
4.14237e+06
4.14956e+06
4.15494e+06
4.15879e+06
4.16147e+06
)
;

boundaryField
{
    outletCentralUnloaded
    {
        type            fixedValue;
        value           uniform 3.44728e+06;
    }
    inletCentralUnloaded
    {
        type            zeroGradient;
    }
    outletFuelElement
    {
        type            fixedValue;
        value           uniform 3.44728e+06;
    }
    inletFuelElement
    {
        type            zeroGradient;
    }
    defaultFaces
    {
        type            zeroGradient;
    }
    baffle_master
    {
        type            zeroGradient;
    }
    baffle_slave
    {
        type            zeroGradient;
    }
}


// ************************************************************************* //
