/*--------------------------------*- C++ -*----------------------------------*\
| =========                 |                                                 |
| \\      /  F ield         | OpenFOAM: The Open Source CFD Toolbox           |
|  \\    /   O peration     | Version:  2212                                  |
|   \\  /    A nd           | Website:  www.openfoam.com                      |
|    \\/     M anipulation  |                                                 |
\*---------------------------------------------------------------------------*/
FoamFile
{
    version     2.0;
    format      ascii;
    arch        "LSB;label=32;scalar=64";
    class       volScalarField;
    location    "49/fluidRegion";
    object      Re;
}
// * * * * * * * * * * * * * * * * * * * * * * * * * * * * * * * * * * * * * //

dimensions      [0 0 0 0 0 0 0];

internalField   nonuniform List<scalar> 
350
(
174002
174008
174018
174027
174033
174034
174030
174026
174022
174022
174026
174033
174041
174048
174053
174054
174053
174049
174045
174042
174039
174037
174036
174034
174394
174002
174008
174018
174027
174033
174034
174030
174026
174022
174022
174026
174033
174041
174048
174053
174054
174053
174049
174045
174042
174039
174037
174036
174034
174394
55421.3
55371.4
55372.6
55372.8
55371.8
55369.5
55365.6
55360
55352.5
55342.9
55331
55316.7
55300.3
55281.6
55260.3
55235.5
55205.3
55167.8
55122.2
55074.4
55043.9
55090.2
55357.3
56102.5
56590.8
54930.7
54873.2
54870.2
54866.3
54861.4
54855.5
54848.3
54839.6
54829.2
54816.9
54802.9
54787.5
54771.3
54755.5
54740.7
54727
54713.2
54697.3
54678.9
54664
54673.7
54770.9
55105.5
55940.9
56538.1
55503.3
55453
55454.7
55455.2
55454.5
55452.3
55448.5
55443.1
55435.6
55425.9
55413.9
55399.3
55382.2
55362.3
55339.3
55311.9
55278.2
55236.3
55185.4
55131.2
55092.8
55129.3
55384.1
56114.6
56592.6
55040.4
54985
54983.2
54980.5
54976.7
54971.8
54965.5
54957.7
54948.2
54936.7
54923.3
54908.3
54892.3
54876.1
54860
54844
54826.5
54805.9
54781.4
54759.2
54759.9
54845.6
55165
55979.8
56551.1
55040.4
54985
54983.2
54980.5
54976.7
54971.8
54965.5
54957.7
54948.2
54936.7
54923.3
54908.3
54892.3
54876.1
54860
54844
54826.5
54805.9
54781.4
54759.2
54759.9
54845.6
55165
55979.8
56551.1
55503.3
55453
55454.7
55455.2
55454.4
55452.3
55448.5
55443
55435.6
55425.9
55413.8
55399.3
55382.1
55362.3
55339.3
55311.9
55278.2
55236.2
55185.3
55131.1
55092.7
55129.2
55383.9
56114.4
56592.5
54930.7
54873.2
54870.2
54866.3
54861.4
54855.5
54848.3
54839.6
54829.2
54816.9
54802.9
54787.5
54771.3
54755.5
54740.7
54727
54713.2
54697.3
54678.9
54664
54673.7
54770.9
55105.5
55940.9
56538.1
55421.3
55371.4
55372.6
55372.9
55371.8
55369.5
55365.6
55360
55352.5
55342.9
55331
55316.8
55300.3
55281.6
55260.3
55235.5
55205.3
55167.8
55122.2
55074.4
55043.9
55090.2
55357.3
56102.5
56590.8
55040.4
54985
54983.2
54980.5
54976.7
54971.8
54965.5
54957.7
54948.2
54936.7
54923.3
54908.3
54892.3
54876.1
54860
54844
54826.5
54805.9
54781.4
54759.2
54759.9
54845.6
55165
55979.8
56551.1
55503.3
55453
55454.7
55455.2
55454.4
55452.3
55448.5
55443
55435.6
55425.9
55413.9
55399.3
55382.2
55362.3
55339.3
55311.9
55278.2
55236.3
55185.4
55131.2
55092.8
55129.3
55384.1
56114.6
56592.6
55503.3
55453
55454.7
55455.2
55454.4
55452.3
55448.5
55443
55435.6
55425.9
55413.8
55399.3
55382.1
55362.3
55339.3
55311.9
55278.2
55236.2
55185.3
55131.1
55092.7
55129.2
55383.9
56114.4
56592.5
55040.4
54985
54983.2
54980.5
54976.7
54971.8
54965.5
54957.7
54948.2
54936.7
54923.3
54908.3
54892.3
54876.1
54860
54844
54826.6
54806
54781.5
54759.2
54759.9
54845.6
55165
55979.9
56551.2
)
;

boundaryField
{
    outletCentralUnloaded
    {
        type            zeroGradient;
    }
    inletCentralUnloaded
    {
        type            zeroGradient;
    }
    outletFuelElement
    {
        type            zeroGradient;
    }
    inletFuelElement
    {
        type            zeroGradient;
    }
    defaultFaces
    {
        type            zeroGradient;
    }
    baffle_master
    {
        type            zeroGradient;
    }
    baffle_slave
    {
        type            zeroGradient;
    }
}


// ************************************************************************* //
