/*--------------------------------*- C++ -*----------------------------------*\
| =========                 |                                                 |
| \\      /  F ield         | OpenFOAM: The Open Source CFD Toolbox           |
|  \\    /   O peration     | Version:  2212                                  |
|   \\  /    A nd           | Website:  www.openfoam.com                      |
|    \\/     M anipulation  |                                                 |
\*---------------------------------------------------------------------------*/
FoamFile
{
    version     2.0;
    format      ascii;
    arch        "LSB;label=32;scalar=64";
    class       volScalarField;
    location    "49/fluidRegion";
    object      Tci.nuclearFuelPin;
}
// * * * * * * * * * * * * * * * * * * * * * * * * * * * * * * * * * * * * * //

dimensions      [0 0 0 1 0 0 0];

internalField   nonuniform List<scalar> 
350
(
0
0
0
0
0
0
0
0
0
0
0
0
0
0
0
0
0
0
0
0
0
0
0
0
0
0
0
0
0
0
0
0
0
0
0
0
0
0
0
0
0
0
0
0
0
0
0
0
0
0
1849.68
1900.01
1937.12
1960.8
1971
1967.82
1951.54
1922.59
1881.54
1829.15
1766.31
1694.05
1613.57
1526.19
1433.35
1336.57
1237.28
1136.63
1035.12
932.043
824.629
706.742
567.823
396.004
193.108
1878.14
1929.23
1966.86
1990.83
2001.09
1997.74
1981.06
1951.48
1909.6
1856.17
1792.11
1718.47
1636.46
1547.41
1452.8
1354.17
1253
1150.5
1047.23
942.521
833.606
714.266
573.729
399.825
194.399
1845.05
1895.29
1932.33
1955.98
1966.19
1963.06
1946.86
1918.02
1877.12
1824.91
1762.27
1690.24
1610.01
1522.9
1430.35
1333.86
1234.86
1134.5
1033.27
930.447
823.27
705.614
566.95
395.443
192.911
1871.74
1922.64
1960.13
1984.02
1994.25
1990.93
1974.33
1944.88
1903.18
1849.98
1786.19
1712.86
1631.19
1542.52
1448.32
1350.1
1249.37
1147.29
1044.43
940.098
831.53
712.524
572.361
398.939
194.101
1871.74
1922.64
1960.13
1984.02
1994.25
1990.93
1974.33
1944.88
1903.18
1849.98
1786.19
1712.86
1631.19
1542.52
1448.32
1350.1
1249.37
1147.29
1044.43
940.098
831.53
712.524
572.361
398.939
194.101
1845.06
1895.29
1932.33
1955.98
1966.19
1963.06
1946.87
1918.02
1877.13
1824.91
1762.27
1690.24
1610.01
1522.9
1430.35
1333.86
1234.86
1134.5
1033.27
930.448
823.271
705.615
566.951
395.444
192.911
1878.14
1929.23
1966.86
1990.83
2001.09
1997.74
1981.06
1951.48
1909.6
1856.17
1792.11
1718.47
1636.46
1547.41
1452.8
1354.17
1253
1150.5
1047.23
942.521
833.606
714.266
573.729
399.825
194.399
1849.68
1900.01
1937.12
1960.8
1971
1967.82
1951.54
1922.59
1881.54
1829.15
1766.3
1694.05
1613.57
1526.19
1433.35
1336.57
1237.28
1136.63
1035.12
932.043
824.629
706.742
567.823
396.003
193.108
1871.74
1922.64
1960.13
1984.02
1994.25
1990.93
1974.33
1944.88
1903.18
1849.98
1786.19
1712.86
1631.19
1542.52
1448.32
1350.1
1249.37
1147.29
1044.43
940.098
831.53
712.524
572.361
398.939
194.101
1845.05
1895.29
1932.33
1955.98
1966.19
1963.06
1946.86
1918.02
1877.13
1824.91
1762.27
1690.24
1610.01
1522.9
1430.35
1333.86
1234.86
1134.5
1033.27
930.447
823.27
705.614
566.95
395.443
192.911
1845.06
1895.29
1932.33
1955.98
1966.19
1963.06
1946.87
1918.02
1877.13
1824.91
1762.27
1690.24
1610.01
1522.9
1430.35
1333.86
1234.86
1134.5
1033.27
930.448
823.271
705.615
566.951
395.444
192.911
1871.74
1922.64
1960.13
1984.02
1994.25
1990.93
1974.33
1944.88
1903.18
1849.98
1786.19
1712.86
1631.19
1542.52
1448.32
1350.1
1249.37
1147.29
1044.43
940.098
831.53
712.524
572.361
398.939
194.101
)
;

boundaryField
{
    outletCentralUnloaded
    {
        type            zeroGradient;
    }
    inletCentralUnloaded
    {
        type            zeroGradient;
    }
    outletFuelElement
    {
        type            zeroGradient;
    }
    inletFuelElement
    {
        type            zeroGradient;
    }
    defaultFaces
    {
        type            zeroGradient;
    }
    baffle_master
    {
        type            zeroGradient;
    }
    baffle_slave
    {
        type            zeroGradient;
    }
}


// ************************************************************************* //
