/*--------------------------------*- C++ -*----------------------------------*\
| =========                 |                                                 |
| \\      /  F ield         | OpenFOAM: The Open Source CFD Toolbox           |
|  \\    /   O peration     | Version:  2212                                  |
|   \\  /    A nd           | Website:  www.openfoam.com                      |
|    \\/     M anipulation  |                                                 |
\*---------------------------------------------------------------------------*/
FoamFile
{
    version     2.0;
    format      ascii;
    arch        "LSB;label=32;scalar=64";
    class       volScalarField;
    location    "49/fluidRegion";
    object      Tfav.nuclearFuelPin;
}
// * * * * * * * * * * * * * * * * * * * * * * * * * * * * * * * * * * * * * //

dimensions      [0 0 0 1 0 0 0];

internalField   nonuniform List<scalar> 
350
(
0
0
0
0
0
0
0
0
0
0
0
0
0
0
0
0
0
0
0
0
0
0
0
0
0
0
0
0
0
0
0
0
0
0
0
0
0
0
0
0
0
0
0
0
0
0
0
0
0
0
2213.78
3000.78
3757.1
4471.21
5132.16
5729.8
6254.93
6699.44
7056.46
7320.44
7487.31
7554.48
7520.94
7387.28
7155.69
6829.84
6414.8
5916.69
5342.26
4698.32
3990.57
3222.41
2393.57
1503.25
564.725
2246.32
3042.53
3807.61
4529.92
5198.39
5802.74
6333.67
6782.98
7143.73
7410.31
7578.59
7645.98
7611.45
7475.61
7240.65
6910.33
6489.8
5985.29
5403.69
4751.92
4035.79
3258.74
2420.38
1519.75
570.262
2208.5
2994.06
3749.01
4461.82
5121.6
5718.19
6242.41
6686.17
7042.61
7306.19
7472.84
7539.99
7506.61
7373.31
7142.25
6817.11
6402.95
5905.85
5332.55
4689.85
3983.43
3216.7
2389.37
1500.68
563.851
2238.98
3033.05
3796.11
4516.51
5183.23
5786.03
6315.61
6763.8
7123.68
7389.65
7557.6
7624.93
7590.62
7455.27
7221.08
6891.79
6472.52
5969.49
5389.54
4739.57
4025.37
3250.37
2414.2
1515.94
568.986
2238.98
3033.05
3796.11
4516.51
5183.23
5786.03
6315.61
6763.8
7123.68
7389.65
7557.6
7624.93
7590.62
7455.27
7221.08
6891.79
6472.52
5969.49
5389.54
4739.57
4025.37
3250.37
2414.2
1515.94
568.986
2208.5
2994.06
3749.01
4461.83
5121.6
5718.19
6242.42
6686.17
7042.61
7306.19
7472.84
7539.99
7506.61
7373.31
7142.25
6817.12
6402.95
5905.85
5332.56
4689.85
3983.43
3216.7
2389.37
1500.68
563.852
2246.32
3042.52
3807.61
4529.92
5198.39
5802.74
6333.67
6782.98
7143.73
7410.31
7578.59
7645.98
7611.45
7475.6
7240.65
6910.33
6489.8
5985.29
5403.69
4751.92
4035.79
3258.74
2420.38
1519.75
570.262
2213.78
3000.78
3757.1
4471.21
5132.16
5729.8
6254.93
6699.44
7056.46
7320.44
7487.31
7554.48
7520.94
7387.28
7155.69
6829.84
6414.8
5916.69
5342.26
4698.32
3990.56
3222.41
2393.57
1503.25
564.725
2238.98
3033.05
3796.11
4516.51
5183.23
5786.03
6315.61
6763.8
7123.68
7389.65
7557.6
7624.93
7590.62
7455.27
7221.08
6891.79
6472.52
5969.49
5389.54
4739.57
4025.37
3250.37
2414.2
1515.94
568.986
2208.5
2994.06
3749.01
4461.83
5121.6
5718.19
6242.41
6686.17
7042.61
7306.19
7472.84
7539.98
7506.61
7373.31
7142.25
6817.11
6402.95
5905.85
5332.55
4689.85
3983.43
3216.7
2389.37
1500.68
563.851
2208.5
2994.06
3749.01
4461.83
5121.6
5718.19
6242.41
6686.17
7042.61
7306.19
7472.84
7539.99
7506.61
7373.31
7142.25
6817.11
6402.95
5905.85
5332.56
4689.85
3983.43
3216.7
2389.37
1500.68
563.852
2238.98
3033.05
3796.11
4516.51
5183.23
5786.03
6315.61
6763.8
7123.68
7389.65
7557.6
7624.93
7590.62
7455.27
7221.08
6891.79
6472.52
5969.49
5389.54
4739.57
4025.37
3250.37
2414.2
1515.94
568.986
)
;

boundaryField
{
    outletCentralUnloaded
    {
        type            zeroGradient;
    }
    inletCentralUnloaded
    {
        type            zeroGradient;
    }
    outletFuelElement
    {
        type            zeroGradient;
    }
    inletFuelElement
    {
        type            zeroGradient;
    }
    defaultFaces
    {
        type            zeroGradient;
    }
    baffle_master
    {
        type            zeroGradient;
    }
    baffle_slave
    {
        type            zeroGradient;
    }
}


// ************************************************************************* //
