/*--------------------------------*- C++ -*----------------------------------*\
| =========                 |                                                 |
| \\      /  F ield         | OpenFOAM: The Open Source CFD Toolbox           |
|  \\    /   O peration     | Version:  2212                                  |
|   \\  /    A nd           | Website:  www.openfoam.com                      |
|    \\/     M anipulation  |                                                 |
\*---------------------------------------------------------------------------*/
FoamFile
{
    version     2.0;
    format      ascii;
    arch        "LSB;label=32;scalar=64";
    class       volScalarField;
    location    "49/fluidRegion";
    object      Tfo.nuclearFuelPin;
}
// * * * * * * * * * * * * * * * * * * * * * * * * * * * * * * * * * * * * * //

dimensions      [0 0 0 1 0 0 0];

internalField   nonuniform List<scalar> 
350
(
0
0
0
0
0
0
0
0
0
0
0
0
0
0
0
0
0
0
0
0
0
0
0
0
0
0
0
0
0
0
0
0
0
0
0
0
0
0
0
0
0
0
0
0
0
0
0
0
0
0
2017.45
2406.73
2774.74
3116.09
3425.69
3698.95
3931.77
4120.65
4262.74
4355.91
4398.74
4390.63
4331.73
4223.05
4066.36
3864.17
3619.59
3336.05
3016.93
2664.99
2281.35
1864.26
1407.89
905.469
364.073
2047.8
2441.72
2814.05
3159.32
3472.42
3748.67
3983.94
4174.69
4318.05
4411.85
4454.68
4445.92
4385.74
4275.15
4115.95
3910.7
3662.58
3375.11
3051.74
2695.32
2307.01
1885.04
1423.42
915.121
367.319
2012.53
2401.09
2768.43
3109.17
3418.24
3691.04
3923.48
4112.08
4253.99
4347.06
4389.91
4381.9
4323.22
4214.84
4058.55
3856.85
3612.83
3329.91
3011.47
2660.24
2277.34
1861.03
1405.49
903.98
363.565
2040.96
2433.8
2805.12
3149.47
3461.75
3737.3
3971.99
4162.3
4305.36
4399
4441.83
4433.2
4373.31
4263.15
4104.53
3899.98
3652.67
3366.1
3043.71
2688.33
2301.09
1880.25
1419.84
912.892
366.57
2040.96
2433.8
2805.12
3149.47
3461.75
3737.3
3971.99
4162.3
4305.36
4399
4441.82
4433.2
4373.31
4263.15
4104.53
3899.98
3652.67
3366.1
3043.71
2688.33
2301.09
1880.25
1419.84
912.892
366.57
2012.53
2401.09
2768.43
3109.17
3418.24
3691.04
3923.49
4112.08
4253.99
4347.06
4389.91
4381.9
4323.22
4214.84
4058.55
3856.85
3612.83
3329.92
3011.47
2660.24
2277.34
1861.03
1405.49
903.981
363.565
2047.8
2441.72
2814.05
3159.32
3472.42
3748.67
3983.94
4174.69
4318.05
4411.85
4454.68
4445.92
4385.74
4275.15
4115.95
3910.7
3662.58
3375.1
3051.74
2695.32
2307.01
1885.04
1423.42
915.121
367.319
2017.45
2406.73
2774.74
3116.09
3425.69
3698.95
3931.77
4120.65
4262.74
4355.91
4398.74
4390.63
4331.73
4223.05
4066.35
3864.17
3619.59
3336.05
3016.93
2664.99
2281.35
1864.26
1407.9
905.469
364.073
2040.96
2433.8
2805.12
3149.47
3461.75
3737.3
3971.99
4162.3
4305.36
4399
4441.82
4433.2
4373.31
4263.15
4104.53
3899.98
3652.67
3366.1
3043.71
2688.33
2301.09
1880.25
1419.84
912.892
366.57
2012.53
2401.09
2768.43
3109.17
3418.24
3691.04
3923.48
4112.08
4253.99
4347.06
4389.91
4381.9
4323.22
4214.84
4058.55
3856.85
3612.83
3329.91
3011.47
2660.24
2277.34
1861.03
1405.49
903.98
363.565
2012.53
2401.09
2768.43
3109.17
3418.24
3691.04
3923.48
4112.08
4253.99
4347.06
4389.91
4381.9
4323.22
4214.84
4058.55
3856.85
3612.83
3329.92
3011.47
2660.24
2277.34
1861.03
1405.49
903.981
363.565
2040.96
2433.8
2805.12
3149.47
3461.75
3737.3
3971.99
4162.3
4305.36
4399
4441.82
4433.2
4373.31
4263.15
4104.53
3899.98
3652.67
3366.1
3043.71
2688.33
2301.09
1880.25
1419.84
912.892
366.57
)
;

boundaryField
{
    outletCentralUnloaded
    {
        type            zeroGradient;
    }
    inletCentralUnloaded
    {
        type            zeroGradient;
    }
    outletFuelElement
    {
        type            zeroGradient;
    }
    inletFuelElement
    {
        type            zeroGradient;
    }
    defaultFaces
    {
        type            zeroGradient;
    }
    baffle_master
    {
        type            zeroGradient;
    }
    baffle_slave
    {
        type            zeroGradient;
    }
}


// ************************************************************************* //
