/*--------------------------------*- C++ -*----------------------------------*\
| =========                 |                                                 |
| \\      /  F ield         | OpenFOAM: The Open Source CFD Toolbox           |
|  \\    /   O peration     | Version:  2212                                  |
|   \\  /    A nd           | Website:  www.openfoam.com                      |
|    \\/     M anipulation  |                                                 |
\*---------------------------------------------------------------------------*/
FoamFile
{
    version     2.0;
    format      ascii;
    arch        "LSB;label=32;scalar=64";
    class       surfaceScalarField;
    location    "70/fluidRegion";
    object      alphaPhi;
}
// * * * * * * * * * * * * * * * * * * * * * * * * * * * * * * * * * * * * * //

dimensions      [0 3 -1 0 0 0 0];

oriented        oriented;

internalField   nonuniform List<scalar> 
661
(
-0.000539002
8.37457e-13
-0.000538953
1.04545e-12
-0.0005389
8.872e-13
-0.000538845
5.80452e-13
-0.000538789
1.9645e-13
-0.000538731
-1.85639e-13
-0.000538674
-4.86373e-13
-0.000538619
-6.71832e-13
-0.000538568
-7.70708e-13
-0.000538522
-8.06014e-13
-0.000538481
-8.05996e-13
-0.000538445
-7.51073e-13
-0.000538412
-6.34457e-13
-0.000538382
-4.43942e-13
-0.000538352
-2.11028e-13
-0.000538323
2.33975e-14
-0.000538292
2.06973e-13
-0.000538258
3.20149e-13
-0.00053822
3.56988e-13
-0.000538178
3.37395e-13
-0.00053813
2.95026e-13
-0.000538078
2.53448e-13
-0.000538021
1.98896e-13
-0.000537963
5.39031e-14
-1.43584e-13
-0.000539002
-0.000538953
-0.0005389
-0.000538845
-0.000538789
-0.000538731
-0.000538674
-0.000538619
-0.000538568
-0.000538522
-0.000538481
-0.000538445
-0.000538412
-0.000538382
-0.000538352
-0.000538323
-0.000538292
-0.000538258
-0.00053822
-0.000538178
-0.00053813
-0.000538078
-0.000538021
-0.000537963
-0.0202308
1.41377e-06
-0.0198026
6.71034e-07
-0.019258
7.27056e-07
-0.018606
6.54223e-07
-0.0178562
5.9219e-07
-0.0170185
5.3474e-07
-0.0161031
4.81555e-07
-0.0151206
4.30022e-07
-0.0140815
3.74401e-07
-0.0129972
3.05257e-07
-0.0118794
2.10729e-07
-0.0107411
7.91772e-08
-0.00959641
-9.28598e-08
-0.00846109
-2.91468e-07
-0.00735201
-4.94104e-07
-0.00628635
-6.66594e-07
-0.0052803
-7.82238e-07
-0.00434803
-8.33943e-07
-0.00350111
-8.35622e-07
-0.00274927
-8.11725e-07
-0.00210124
-7.84624e-07
-0.00156636
-7.59455e-07
-0.00115537
-7.25137e-07
-0.000879351
-6.3044e-07
-6.01007e-07
-0.0203608
-4.47814e-08
-3.3311e-08
-0.0199317
-1.81004e-07
-1.72717e-07
-0.0193849
-1.72473e-07
-1.63193e-07
-0.0187299
-1.50398e-07
-1.40593e-07
-0.0179763
-1.31404e-07
-1.20976e-07
-0.017134
-1.13897e-07
-1.0286e-07
-0.0162134
-9.78856e-08
-8.62269e-08
-0.0152249
-8.27355e-08
-7.03178e-08
-0.0141793
-6.6917e-08
-5.36524e-08
-0.0130879
-4.77349e-08
-3.35789e-08
-0.0119625
-2.14641e-08
-6.34298e-09
-0.0108161
1.53784e-08
3.13483e-08
-0.00966289
6.30026e-08
8.0464e-08
-0.00851879
1.22938e-07
1.41613e-07
-0.00740086
1.84937e-07
2.04889e-07
-0.00632654
2.39173e-07
2.60455e-07
-0.0053123
2.7661e-07
2.99276e-07
-0.00437251
2.94248e-07
3.18304e-07
-0.00351893
2.95895e-07
3.21295e-07
-0.00276139
2.89153e-07
3.15443e-07
-0.00210868
2.80634e-07
3.06806e-07
-0.00157022
2.70838e-07
2.95203e-07
-0.00115682
2.52594e-07
2.73773e-07
-0.000879546
1.99989e-07
2.15786e-07
1.53046e-07
1.61641e-07
-0.0202096
6.88126e-07
-0.0197817
6.48151e-07
-0.0192375
6.23564e-07
-0.018586
5.54399e-07
-0.0178369
4.92545e-07
-0.017
4.35697e-07
-0.0160855
3.83074e-07
-0.0151039
3.31688e-07
-0.014066
2.7509e-07
-0.0129828
2.03059e-07
-0.0118663
1.02841e-07
-0.0107293
-3.63846e-08
-0.00958595
-2.16918e-07
-0.00845202
-4.25588e-07
-0.00734433
-6.35549e-07
-0.00628001
-8.10801e-07
-0.00527523
-9.24147e-07
-0.00434411
-9.69793e-07
-0.00349821
-9.63772e-07
-0.00274724
-9.32075e-07
-0.0020999
-8.96128e-07
-0.00156556
-8.59675e-07
-0.00115493
-7.99778e-07
-0.000879133
-6.62926e-07
-5.3994e-07
-0.0203319
4.46038e-10
-0.0199028
-3.38069e-09
-0.0193565
-3.15588e-09
-0.0187021
-3.11658e-09
-0.0179493
-2.89989e-09
-0.017108
-2.64855e-09
-0.0161885
-2.40309e-09
-0.0152013
-2.00754e-09
-0.0141572
-1.53856e-09
-0.0130674
-9.98304e-10
-0.0119437
-2.88029e-10
-0.0107991
6.03338e-10
-0.00964776
1.57158e-09
-0.00850564
2.61164e-09
-0.00738972
3.65872e-09
-0.00631736
4.65656e-09
-0.00530499
5.59047e-09
-0.00436692
6.40241e-09
-0.00351486
6.88159e-09
-0.00275863
6.99904e-09
-0.00210699
6.71507e-09
-0.00156936
5.90316e-09
-0.00115651
4.72241e-09
-0.000879528
3.31321e-09
1.75505e-09
-0.0203319
-6.87488e-07
-0.0199029
-6.55669e-07
-0.0193565
-6.30434e-07
-0.0187021
-5.61268e-07
-0.0179493
-4.99128e-07
-0.017108
-4.41965e-07
-0.0161885
-3.89002e-07
-0.0152013
-3.37058e-07
-0.0141572
-2.79795e-07
-0.0130674
-2.06968e-07
-0.0119437
-1.05654e-07
-0.0107991
3.47137e-08
-0.00964777
2.16715e-07
-0.00850565
4.26897e-07
-0.00738973
6.38393e-07
-0.00631737
8.15157e-07
-0.00530499
9.30039e-07
-0.00436692
9.77188e-07
-0.00351487
9.72429e-07
-0.00275863
9.41722e-07
-0.00210699
9.06466e-07
-0.00156936
8.7002e-07
-0.00115651
8.09518e-07
-0.000879529
6.70861e-07
5.45409e-07
-0.0202096
3.84069e-08
-0.0197817
1.78593e-07
-0.0192375
1.69279e-07
-0.0185861
1.46845e-07
-0.0178369
1.27491e-07
-0.017
1.09551e-07
-0.0160855
9.30198e-08
-0.0151039
7.72911e-08
-0.014066
6.07538e-08
-0.0129828
4.07523e-08
-0.0118663
1.36572e-08
-0.0107293
-2.39855e-08
-0.00958596
-7.27174e-08
-0.00845203
-1.33655e-07
-0.00734434
-1.9663e-07
-0.00628002
-2.51709e-07
-0.00527524
-2.89738e-07
-0.00434412
-3.0756e-07
-0.00349822
-3.09018e-07
-0.00274724
-3.01506e-07
-0.0020999
-2.91749e-07
-0.00156556
-2.80112e-07
-0.00115493
-2.59716e-07
-0.000879131
-2.04399e-07
-1.53572e-07
-0.0203608
-1.41443e-06
-3.66651e-08
-0.0199317
-6.72024e-07
-1.71281e-07
-0.0193849
-7.28178e-07
-1.62229e-07
-0.0187299
-6.55402e-07
-1.39778e-07
-0.0179763
-5.9334e-07
-1.20495e-07
-0.017134
-5.35887e-07
-1.02757e-07
-0.0162134
-4.82714e-07
-8.65399e-08
-0.0152249
-4.31144e-07
-7.12155e-08
-0.0141793
-3.75514e-07
-5.52356e-08
-0.0130879
-3.06341e-07
-3.59641e-08
-0.0119625
-2.11679e-07
-9.78174e-09
-0.0108161
-7.98931e-08
2.69745e-08
-0.00966289
9.25422e-08
7.44413e-08
-0.00851879
2.91573e-07
1.33877e-07
-0.00740086
4.94865e-07
1.95158e-07
-0.00632654
6.68337e-07
2.48349e-07
-0.0053123
7.85486e-07
2.84224e-07
-0.00437251
8.39436e-07
2.99606e-07
-0.00351893
8.44289e-07
2.98193e-07
-0.00276139
8.24719e-07
2.87414e-07
-0.00210868
8.03412e-07
2.73252e-07
-0.00157022
7.8426e-07
2.57509e-07
-0.00115682
7.55407e-07
2.34405e-07
-0.000879546
6.6152e-07
1.80292e-07
6.29126e-07
1.36475e-07
-0.0202308
-0.0198026
-0.019258
-0.018606
-0.0178562
-0.0170185
-0.0161031
-0.0151206
-0.0140815
-0.0129972
-0.0118794
-0.0107411
-0.00959641
-0.00846109
-0.00735201
-0.00628635
-0.0052803
-0.00434803
-0.00350111
-0.00274927
-0.00210123
-0.00156636
-0.00115537
-0.000879351
-0.0203319
-6.98518e-07
7.01291e-09
-0.0199028
-6.60135e-07
4.27506e-09
-0.0193565
-6.36126e-07
4.91796e-09
-0.0187021
-5.67385e-07
5.28425e-09
-0.0179493
-5.05792e-07
5.61868e-09
-0.017108
-4.49192e-07
6.02039e-09
-0.0161885
-3.96828e-07
6.52561e-09
-0.0152013
-3.4561e-07
7.07369e-09
-0.0141572
-2.89176e-07
7.74383e-09
-0.0130674
-2.1724e-07
8.53519e-09
-0.0119437
-1.16873e-07
9.43589e-09
-0.0107991
2.23838e-08
9.9472e-09
-0.00964776
2.02966e-07
1.13325e-08
-0.00850564
4.11785e-07
1.26309e-08
-0.00738972
6.21728e-07
1.41987e-08
-0.00631736
7.9668e-07
1.61045e-08
-0.00530499
9.09232e-07
1.84288e-08
-0.00436692
9.53327e-07
2.12739e-08
-0.00351486
9.44346e-07
2.49678e-08
-0.00275863
9.08366e-07
2.93393e-08
-0.00210699
8.66067e-07
3.42758e-08
-0.00156936
8.22934e-07
3.80826e-08
-0.00115651
7.57577e-07
3.97753e-08
-0.000879528
6.20833e-07
3.56375e-08
5.07367e-07
2.5222e-08
-0.0202096
-0.0197817
-0.0192375
-0.018586
-0.0178369
-0.017
-0.0160855
-0.0151039
-0.014066
-0.0129828
-0.0118663
-0.0107293
-0.00958595
-0.00845202
-0.00734433
-0.00628001
-0.00527523
-0.00434412
-0.00349822
-0.00274724
-0.0020999
-0.00156556
-0.00115493
-0.000879133
-0.0202096
6.83939e-07
-0.0197817
6.51909e-07
-0.0192375
6.26452e-07
-0.0185861
5.57123e-07
-0.0178369
4.94977e-07
-0.017
4.37746e-07
-0.0160855
3.84644e-07
-0.0151039
3.32646e-07
-0.014066
2.7526e-07
-0.0129828
2.02298e-07
-0.0118663
1.01009e-07
-0.0107293
-3.89678e-08
-0.00958596
-2.21138e-07
-0.00845203
-4.31329e-07
-0.00734433
-6.42789e-07
-0.00628002
-8.19411e-07
-0.00527524
-9.33853e-07
-0.00434412
-9.7997e-07
-0.00349822
-9.73485e-07
-0.00274724
-9.39777e-07
-0.0020999
-9.00733e-07
-0.00156556
-8.59409e-07
-0.00115493
-7.93779e-07
-0.000879131
-6.52057e-07
-5.24528e-07
-0.0203319
-0.0199029
-0.0193565
-0.0187021
-0.0179493
-0.017108
-0.0161885
-0.0152013
-0.0141572
-0.0130674
-0.0119437
-0.0107991
-0.00964777
-0.00850565
-0.00738973
-0.00631737
-0.00530499
-0.00436692
-0.00351487
-0.00275863
-0.00210699
-0.00156936
-0.00115651
-0.000879529
)
;

boundaryField
{
    outletCentralUnloaded
    {
        type            calculated;
        value           nonuniform List<scalar> 2(0.000539048 0.000539048);
    }
    inletCentralUnloaded
    {
        type            calculated;
        value           uniform -0.000540134;
    }
    outletFuelElement
    {
        type            calculated;
        value           nonuniform List<scalar> 
12
(
0.0205717
0.0207049
0.0205509
0.0206751
0.0206752
0.020551
0.0207049
0.0205717
0.0206751
0.0205509
0.020551
0.0206752
)
;
    }
    inletFuelElement
    {
        type            calculated;
        value           nonuniform List<scalar> 
12
(
-0.000722059
-0.00072206
-0.000722059
-0.000722059
-0.00072206
-0.000722059
-0.00072206
-0.000722059
-0.000722059
-0.000722059
-0.000722059
-0.00072206
)
;
    }
    defaultFaces
    {
        type            calculated;
        value           nonuniform List<scalar> 
450
(
5.32698e-23
-3.09548e-23
0
1.64058e-23
-1.17077e-24
0
2.22842e-23
1.31402e-24
0
-5.6454e-23
-1.83779e-23
0
-1.7201e-23
-4.14727e-23
0
-2.95718e-23
-2.00369e-23
0
-3.47929e-23
-1.50874e-23
0
-3.46311e-23
-1.26166e-23
0
-1.98868e-23
-3.78977e-24
0
-1.69592e-23
-8.08691e-24
0
-1.34804e-23
-7.04668e-24
0
-6.18029e-24
-2.24806e-24
0
7.62592e-24
1.36658e-24
0
1.99627e-23
4.01464e-24
0
3.0923e-23
1.60631e-23
0
4.32702e-23
1.8523e-23
0
3.66832e-23
8.88422e-24
0
5.61106e-23
2.06932e-23
0
5.37413e-23
-4.94684e-23
0
-3.01599e-23
-7.71528e-24
0
-2.45207e-23
-1.24335e-23
0
3.735e-23
-1.5308e-23
0
-1.24635e-23
1.05379e-23
0
-3.19675e-23
-3.5205e-23
0
-1.35866e-23
-1.9559e-23
0
3.20908e-23
0
1.60454e-23
0
8.0227e-24
0
2.40681e-23
0
-1.60454e-23
0
1.2034e-23
0
1.2034e-23
0
1.2034e-23
0
-2.00567e-24
0
8.0227e-24
0
4.01135e-24
0
-1.00284e-24
0
-8.0227e-24
0
-1.2034e-23
0
-1.60454e-23
0
-4.01135e-23
0
4.01135e-23
0
-1.60454e-23
0
3.20908e-23
0
-3.20908e-23
0
-3.20908e-23
0
3.20908e-23
0
8.0227e-24
0
-3.20908e-23
0
-3.20908e-23
0
-1.60454e-23
-8.0227e-24
8.0227e-24
0
8.0227e-24
-8.0227e-24
-1.60454e-23
0
8.0227e-24
-4.01135e-24
-2.00567e-24
5.01419e-25
4.01135e-24
8.0227e-24
8.0227e-24
1.60454e-23
-3.20908e-23
1.60454e-23
-1.60454e-23
1.60454e-23
3.20908e-23
-3.20908e-23
-3.20908e-23
8.0227e-24
-8.0227e-24
0
0
0
0
0
0
0
0
0
0
0
0
0
0
0
0
0
0
0
0
0
0
0
0
0
-2.60738e-23
2.40681e-23
8.0227e-24
2.40681e-23
3.20908e-23
3.20908e-23
-1.60454e-23
-1.60454e-23
1.60454e-23
-1.60454e-23
-2.00567e-23
-1.2034e-23
-8.0227e-24
-1.2034e-23
-4.01135e-24
-8.0227e-24
1.80511e-23
-8.0227e-24
-4.01135e-24
-4.01135e-24
-3.00851e-24
-1.00284e-24
2.00567e-24
1.75497e-24
8.0227e-24
6.01702e-24
2.00567e-23
1.60454e-23
1.60454e-23
1.60454e-23
2.40681e-23
1.60454e-23
-1.60454e-23
4.81362e-23
1.60454e-23
2.40681e-23
-8.0227e-23
4.01135e-23
-4.81362e-23
-3.20908e-23
-1.60454e-23
-3.20908e-23
-4.81362e-23
4.01135e-23
-1.60454e-23
-3.20908e-23
0
-1.2034e-23
-2.40681e-23
-1.60454e-23
2.34536e-23
0
0
-2.87231e-24
0
0
1.49039e-23
0
-6.41816e-23
-6.38252e-23
0
8.0227e-24
1.56956e-23
0
0
-4.33615e-23
0
1.60454e-23
-3.74664e-23
0
8.0227e-24
-4.30057e-23
0
0
-2.71358e-23
0
-8.0227e-24
-3.11399e-23
0
4.01135e-24
-2.14263e-23
0
8.0227e-24
-7.55595e-24
0
2.00567e-24
9.35242e-24
-0
-2.00567e-24
2.83713e-23
-0
-4.01135e-24
4.60675e-23
-0
-1.60454e-23
6.55377e-23
-0
-1.60454e-23
3.94852e-23
-0
0
7.84797e-23
-0
0
4.16448e-23
-0
-3.20908e-23
-2.18103e-23
-0
3.20908e-23
-8.94154e-25
-0
1.60454e-23
3.8658e-23
-0
1.60454e-23
-2.44798e-23
-0
1.60454e-23
-8.98269e-24
-0
1.60454e-23
-1.64757e-23
-0
8.0227e-24
-1.60454e-23
-1.60454e-23
8.0227e-24
-8.0227e-24
1.60454e-23
-2.40681e-23
-8.0227e-24
0
-4.01135e-24
-8.0227e-24
0
2.50709e-25
4.01135e-24
8.0227e-24
1.60454e-23
1.60454e-23
-1.60454e-23
0
-3.20908e-23
1.60454e-23
0
-3.20908e-23
-1.60454e-23
8.0227e-24
0
2.00567e-23
0
1.60454e-23
0
8.0227e-24
0
2.00567e-23
0
-1.2034e-23
0
1.2034e-23
0
1.2034e-23
0
6.01702e-24
0
0
0
1.00284e-23
0
4.01135e-24
0
-1.00284e-24
0
-4.01135e-24
-0
-1.2034e-23
-0
-8.0227e-24
-0
-2.40681e-23
-0
5.61589e-23
-0
-4.81362e-23
-0
3.20908e-23
-0
-4.01135e-23
-0
-3.20908e-23
-0
4.01135e-23
-0
8.0227e-24
-0
-1.60454e-23
-0
-1.60454e-23
-0
-1.10312e-23
8.0227e-24
-2.40681e-23
2.40681e-23
-1.60454e-23
2.40681e-23
-1.60454e-23
-4.41248e-23
0
1.2034e-23
-1.2034e-23
-2.80794e-23
-8.0227e-24
-2.80794e-23
-1.00284e-23
-2.00567e-23
0
-1.2034e-23
-5.01419e-24
-1.2034e-23
-2.7578e-24
-6.01702e-24
0
6.51844e-24
4.01135e-24
2.00567e-23
4.01135e-24
3.20908e-23
1.60454e-23
5.61589e-23
1.60454e-23
7.22043e-23
0
4.01135e-23
1.60454e-23
8.0227e-23
-1.60454e-23
4.81362e-23
-1.60454e-23
-3.20908e-23
0
-4.01135e-23
1.60454e-23
4.81362e-23
1.60454e-23
-1.60454e-23
8.0227e-24
-2.00567e-23
8.0227e-24
-1.60454e-23
-0
-0
-0
-0
-0
-0
-0
-0
-0
-0
-0
0
0
0
0
0
0
0
0
0
0
0
0
0
0
)
;
    }
    baffle_master
    {
        type            calculated;
        value           nonuniform List<scalar> 
150
(
-4.13195e-30
0
-2.28934e-29
-3.5057e-30
0
2.28934e-29
-3.78358e-30
0
0
5.49218e-30
0
1.14467e-29
9.93344e-30
0
8.58502e-30
1.87783e-30
0
0
-1.55734e-31
0
0
3.52552e-30
0
0
-6.13852e-31
0
0
5.83085e-30
0
-1.14467e-29
5.52108e-30
0
0
9.46449e-30
0
0
2.51082e-30
0
0
1.74562e-30
0
0
1.47444e-30
0
0
1.39594e-31
0
0
-1.78268e-29
0
-8.58502e-30
1.74394e-30
0
-5.72334e-30
-2.05384e-29
0
-1.717e-29
3.71202e-31
0
0
9.49575e-31
0
-5.72334e-30
1.71931e-29
0
5.72334e-30
-1.04318e-30
0
2.86167e-30
4.21436e-31
0
-7.15418e-31
1.94333e-30
0
0
-2.28934e-29
2.74226e-29
-0
-2.28934e-29
2.7115e-29
-0
-1.14467e-29
3.46849e-29
-0
0
3.33649e-29
-0
2.86167e-30
-6.02469e-30
-0
5.72334e-30
-6.79301e-30
0
0
-1.66068e-29
0
1.14467e-29
-3.27615e-29
0
-1.14467e-29
-2.83737e-29
0
0
-2.57288e-29
0
0
-1.17487e-29
0
1.14467e-29
-1.86982e-29
0
1.14467e-29
-1.81431e-29
0
1.14467e-29
-1.81862e-29
0
2.86167e-30
-8.78041e-30
0
0
9.94768e-31
-0
5.72334e-30
7.5054e-30
-0
-1.14467e-29
9.65218e-30
-0
5.72334e-30
-2.99259e-30
-0
0
-9.35742e-30
-0
5.72334e-30
-5.85804e-30
-0
1.14467e-29
-1.49326e-29
-0
2.86167e-30
8.56366e-30
-0
-7.15418e-31
-1.86291e-30
-0
0
1.77118e-30
0
)
;
    }
    baffle_slave
    {
        type            calculated;
        value           nonuniform List<scalar> 
150
(
5.01419e-24
-0
0
1.00284e-24
-0
-8.0227e-24
9.52696e-24
-0
8.0227e-24
5.51561e-24
-0
0
-2.70766e-23
-0
-1.60454e-23
-4.51277e-24
-0
-8.0227e-24
2.50709e-24
-0
0
-3.50993e-24
-0
0
4.51277e-24
-0
-4.01135e-24
-3.00851e-24
-0
0
2.50709e-24
-0
0
0
0
0
0
0
-4.01135e-24
-3.00851e-24
0
-8.0227e-24
-2.00567e-24
0
0
1.00284e-24
0
1.60454e-23
-4.11163e-23
0
-4.81362e-23
-1.00284e-23
0
0
-3.61021e-23
0
-6.41816e-23
1.00284e-24
0
-1.60454e-23
-5.01419e-24
0
-3.20908e-23
3.00851e-23
0
1.60454e-23
0
0
1.60454e-23
2.00567e-24
0
-1.60454e-23
2.25638e-24
0
-1.60454e-23
6.88601e-25
3.15894e-23
0
-1.0557e-23
1.42904e-23
0
2.15799e-24
1.67975e-23
0
-7.44624e-24
1.60454e-23
0
-3.17452e-24
-2.73273e-23
0
-1.69109e-23
1.32876e-23
0
-1.29424e-23
1.65468e-23
0
-9.01034e-25
9.02554e-24
0
8.36933e-24
1.00284e-23
0
-4.29235e-24
8.52412e-24
0
-2.08694e-24
5.89167e-24
0
2.08259e-25
2.63245e-24
0
2.71731e-24
-8.77483e-25
0
6.07366e-24
-6.81616e-24
0
5.50904e-24
-1.33503e-23
0
1.60205e-23
-1.52933e-23
0
-3.0963e-23
-1.67975e-23
0
1.24448e-23
-2.10596e-23
0
-1.9752e-23
-1.50426e-24
0
3.24337e-24
1.00284e-23
0
-1.20572e-23
2.10596e-23
0
-4.88605e-23
2.80794e-23
0
-3.15732e-23
-1.70482e-23
0
3.91901e-24
6.01702e-24
0
-2.56813e-24
7.01986e-24
0
)
;
    }
}


// ************************************************************************* //
