/*--------------------------------*- C++ -*----------------------------------*\
| =========                 |                                                 |
| \\      /  F ield         | OpenFOAM: The Open Source CFD Toolbox           |
|  \\    /   O peration     | Version:  2212                                  |
|   \\  /    A nd           | Website:  www.openfoam.com                      |
|    \\/     M anipulation  |                                                 |
\*---------------------------------------------------------------------------*/
FoamFile
{
    version     2.0;
    format      ascii;
    arch        "LSB;label=32;scalar=64";
    class       volScalarField;
    location    "70/fluidRegion";
    object      alphat;
}
// * * * * * * * * * * * * * * * * * * * * * * * * * * * * * * * * * * * * * //

dimensions      [1 -1 -1 0 0 0 0];

internalField   nonuniform List<scalar> 
350
(
0.0025856
0.00258558
0.0025856
0.00258563
0.00258566
0.00258567
0.00258566
0.00258564
0.00258563
0.00258564
0.00258569
0.00258575
0.00258584
0.00258596
0.0025861
0.0025863
0.0025866
0.00258705
0.00258773
0.00258877
0.00259036
0.00259279
0.00259653
0.00260226
0.00261102
0.0025856
0.00258558
0.0025856
0.00258563
0.00258566
0.00258567
0.00258566
0.00258564
0.00258563
0.00258564
0.00258569
0.00258575
0.00258584
0.00258596
0.0025861
0.0025863
0.0025866
0.00258705
0.00258773
0.00258877
0.00259036
0.00259279
0.00259653
0.00260226
0.00261102
0.000895862
0.000884259
0.00087285
0.00086128
0.000849443
0.000837234
0.000824548
0.000811286
0.000797363
0.000782715
0.00076731
0.000751155
0.000734292
0.000716793
0.000698736
0.000680218
0.000661415
0.000642782
0.000625498
0.000612399
0.00060988
0.000631327
0.000699561
0.000832307
0.00100222
0.000888004
0.000876415
0.000865041
0.000853514
0.000841728
0.000829577
0.000816957
0.000803766
0.00078992
0.000775352
0.000760033
0.000743975
0.000727228
0.000709876
0.000692012
0.000673738
0.000655232
0.000636934
0.000620002
0.000607244
0.000605039
0.000626813
0.000695609
0.000829607
0.00100148
0.000897116
0.0008855
0.000874081
0.000862499
0.000850649
0.000838426
0.000825725
0.000812447
0.000798507
0.000783842
0.000768418
0.000752241
0.000735354
0.000717824
0.00069973
0.000681167
0.000662309
0.000643615
0.000626267
0.000613103
0.00061052
0.000631905
0.000700054
0.000832642
0.00100233
0.000889808
0.00087822
0.000866841
0.000855306
0.000843511
0.000831349
0.000818715
0.00080551
0.000791647
0.000777061
0.000761722
0.000745641
0.000728867
0.000711481
0.000693571
0.000675241
0.000656666
0.000638291
0.000621277
0.000608441
0.000606164
0.000627863
0.000696531
0.000830241
0.00100165
0.000889808
0.00087822
0.000866841
0.000855307
0.000843511
0.00083135
0.000818716
0.00080551
0.000791647
0.000777061
0.000761723
0.000745641
0.000728868
0.000711481
0.000693572
0.000675242
0.000656667
0.000638291
0.000621278
0.000608442
0.000606164
0.000627863
0.000696531
0.00083024
0.00100165
0.000897116
0.0008855
0.00087408
0.000862498
0.000850649
0.000838425
0.000825724
0.000812447
0.000798507
0.000783842
0.000768418
0.000752241
0.000735354
0.000717825
0.000699732
0.000681168
0.000662311
0.000643618
0.000626269
0.000613106
0.000610524
0.000631909
0.000700058
0.000832647
0.00100234
0.000888004
0.000876415
0.000865041
0.000853513
0.000841728
0.000829577
0.000816956
0.000803766
0.000789919
0.000775352
0.000760033
0.000743974
0.000727228
0.000709876
0.000692011
0.000673738
0.000655231
0.000636934
0.000620002
0.000607244
0.00060504
0.000626814
0.00069561
0.000829607
0.00100147
0.000895862
0.000884259
0.00087285
0.00086128
0.000849443
0.000837234
0.000824548
0.000811286
0.000797363
0.000782715
0.00076731
0.000751155
0.000734292
0.000716793
0.000698736
0.000680219
0.000661416
0.000642783
0.0006255
0.000612402
0.000609885
0.000631335
0.000699573
0.000832323
0.00100224
0.000889808
0.00087822
0.000866841
0.000855307
0.000843512
0.00083135
0.000818716
0.00080551
0.000791647
0.000777061
0.000761723
0.000745641
0.000728868
0.000711481
0.000693572
0.000675242
0.000656667
0.000638291
0.000621278
0.000608441
0.000606165
0.000627865
0.000696534
0.000830246
0.00100166
0.000897116
0.0008855
0.000874081
0.000862499
0.000850649
0.000838426
0.000825724
0.000812447
0.000798507
0.000783841
0.000768417
0.000752241
0.000735353
0.000717824
0.00069973
0.000681166
0.000662308
0.000643613
0.000626262
0.000613096
0.00061051
0.000631889
0.000700031
0.000832612
0.0010023
0.000897117
0.0008855
0.000874081
0.000862499
0.00085065
0.000838426
0.000825725
0.000812448
0.000798508
0.000783843
0.000768419
0.000752242
0.000735356
0.000717826
0.000699733
0.00068117
0.000662313
0.00064362
0.000626272
0.000613108
0.000610526
0.00063191
0.000700058
0.000832642
0.00100233
0.000889808
0.00087822
0.000866841
0.000855307
0.000843512
0.00083135
0.000818716
0.000805511
0.000791647
0.000777062
0.000761723
0.000745642
0.000728868
0.000711482
0.000693573
0.000675243
0.000656668
0.000638294
0.000621282
0.000608447
0.000606173
0.000627877
0.00069655
0.000830266
0.00100168
)
;

boundaryField
{
    outletCentralUnloaded
    {
        type            zeroGradient;
    }
    inletCentralUnloaded
    {
        type            zeroGradient;
    }
    outletFuelElement
    {
        type            zeroGradient;
    }
    inletFuelElement
    {
        type            zeroGradient;
    }
    defaultFaces
    {
        type            zeroGradient;
    }
    baffle_master
    {
        type            calculated;
        value           nonuniform List<scalar> 
150
(
0.0025856
0.0025856
0.0025856
0.00258558
0.00258558
0.00258558
0.0025856
0.0025856
0.0025856
0.00258563
0.00258563
0.00258563
0.00258566
0.00258566
0.00258566
0.00258567
0.00258567
0.00258567
0.00258566
0.00258566
0.00258566
0.00258564
0.00258564
0.00258564
0.00258563
0.00258563
0.00258563
0.00258564
0.00258564
0.00258564
0.00258569
0.00258569
0.00258569
0.00258575
0.00258575
0.00258575
0.00258584
0.00258584
0.00258584
0.00258596
0.00258596
0.00258596
0.0025861
0.0025861
0.0025861
0.0025863
0.0025863
0.0025863
0.0025866
0.0025866
0.0025866
0.00258705
0.00258705
0.00258705
0.00258773
0.00258773
0.00258773
0.00258877
0.00258877
0.00258877
0.00259036
0.00259036
0.00259036
0.00259279
0.00259279
0.00259279
0.00259653
0.00259653
0.00259653
0.00260226
0.00260226
0.00260226
0.00261102
0.00261102
0.00261102
0.0025856
0.0025856
0.0025856
0.00258558
0.00258558
0.00258558
0.0025856
0.0025856
0.0025856
0.00258563
0.00258563
0.00258563
0.00258566
0.00258566
0.00258566
0.00258567
0.00258567
0.00258567
0.00258566
0.00258566
0.00258566
0.00258564
0.00258564
0.00258564
0.00258563
0.00258563
0.00258563
0.00258564
0.00258564
0.00258564
0.00258569
0.00258569
0.00258569
0.00258575
0.00258575
0.00258575
0.00258584
0.00258584
0.00258584
0.00258596
0.00258596
0.00258596
0.0025861
0.0025861
0.0025861
0.0025863
0.0025863
0.0025863
0.0025866
0.0025866
0.0025866
0.00258705
0.00258705
0.00258705
0.00258773
0.00258773
0.00258773
0.00258877
0.00258877
0.00258877
0.00259036
0.00259036
0.00259036
0.00259279
0.00259279
0.00259279
0.00259653
0.00259653
0.00259653
0.00260226
0.00260226
0.00260226
0.00261102
0.00261102
0.00261102
)
;
    }
    baffle_slave
    {
        type            calculated;
        value           nonuniform List<scalar> 
150
(
0.000888004
0.000889808
0.000889808
0.000876415
0.00087822
0.00087822
0.000865041
0.000866841
0.000866841
0.000853514
0.000855306
0.000855307
0.000841728
0.000843511
0.000843512
0.000829577
0.000831349
0.00083135
0.000816957
0.000818715
0.000818716
0.000803766
0.00080551
0.000805511
0.00078992
0.000791647
0.000791647
0.000775352
0.000777061
0.000777062
0.000760033
0.000761722
0.000761723
0.000743975
0.000745641
0.000745642
0.000727228
0.000728867
0.000728868
0.000709876
0.000711481
0.000711482
0.000692012
0.000693571
0.000693573
0.000673738
0.000675241
0.000675243
0.000655232
0.000656666
0.000656668
0.000636934
0.000638291
0.000638294
0.000620002
0.000621277
0.000621282
0.000607244
0.000608441
0.000608447
0.000605039
0.000606164
0.000606173
0.000626813
0.000627863
0.000627877
0.000695609
0.000696531
0.00069655
0.000829607
0.000830241
0.000830266
0.00100148
0.00100165
0.00100168
0.000889808
0.000888004
0.000889808
0.00087822
0.000876415
0.00087822
0.000866841
0.000865041
0.000866841
0.000855307
0.000853513
0.000855307
0.000843511
0.000841728
0.000843512
0.00083135
0.000829577
0.00083135
0.000818716
0.000816956
0.000818716
0.00080551
0.000803766
0.00080551
0.000791647
0.000789919
0.000791647
0.000777061
0.000775352
0.000777061
0.000761723
0.000760033
0.000761723
0.000745641
0.000743974
0.000745641
0.000728868
0.000727228
0.000728868
0.000711481
0.000709876
0.000711481
0.000693572
0.000692011
0.000693572
0.000675242
0.000673738
0.000675242
0.000656667
0.000655231
0.000656667
0.000638291
0.000636934
0.000638291
0.000621278
0.000620002
0.000621278
0.000608442
0.000607244
0.000608441
0.000606164
0.00060504
0.000606165
0.000627863
0.000626814
0.000627865
0.000696531
0.00069561
0.000696534
0.00083024
0.000829607
0.000830246
0.00100165
0.00100147
0.00100166
)
;
    }
}


// ************************************************************************* //
