/*--------------------------------*- C++ -*----------------------------------*\
| =========                 |                                                 |
| \\      /  F ield         | OpenFOAM: The Open Source CFD Toolbox           |
|  \\    /   O peration     | Version:  2212                                  |
|   \\  /    A nd           | Website:  www.openfoam.com                      |
|    \\/     M anipulation  |                                                 |
\*---------------------------------------------------------------------------*/
FoamFile
{
    version     2.0;
    format      ascii;
    arch        "LSB;label=32;scalar=64";
    class       volScalarField;
    location    "70/fluidRegion";
    object      epsilon;
}
// * * * * * * * * * * * * * * * * * * * * * * * * * * * * * * * * * * * * * //

dimensions      [0 2 -3 0 0 0 0];

internalField   nonuniform List<scalar> 
350
(
66.9849
66.969
66.953
66.937
66.9208
66.9045
66.8881
66.8717
66.8551
66.8386
66.8223
66.8063
66.791
66.7767
66.7641
66.754
66.7477
66.7472
66.7555
66.7771
66.8191
66.8922
67.0124
67.2047
67.5065
66.9849
66.969
66.953
66.937
66.9208
66.9045
66.8881
66.8717
66.8551
66.8386
66.8223
66.8063
66.791
66.7767
66.7641
66.754
66.7477
66.7472
66.7555
66.7771
66.8191
66.8921
67.0124
67.2047
67.5065
7.65547e+06
7.04482e+06
6.36895e+06
5.64909e+06
4.91311e+06
4.18655e+06
3.49157e+06
2.84621e+06
2.26397e+06
1.7537e+06
1.31972e+06
962160
677484
459132
298348
185119
109167
60859.5
31886.4
15619.2
7152.39
3117.62
1385.82
735.662
547.11
7.82124e+06
7.19881e+06
6.50983e+06
5.77541e+06
5.0241e+06
4.28204e+06
3.57191e+06
2.91222e+06
2.31682e+06
1.79482e+06
1.35071e+06
984699
693227
469637
305008
189105
111403
62023.4
32441.9
15857.7
7242.03
3145.99
1393.01
737.107
547.533
7.62836e+06
7.01956e+06
6.34595e+06
5.62855e+06
4.89512e+06
4.17113e+06
3.47865e+06
2.83563e+06
2.25553e+06
1.74716e+06
1.3148e+06
958598
675003
457480
297302
184493
108816
60675.5
31797.7
15580.3
7137.17
3112.35
1384.19
735.173
546.935
7.78452e+06
7.16464e+06
6.47848e+06
5.74723e+06
4.99929e+06
4.26064e+06
3.55387e+06
2.89736e+06
2.3049e+06
1.78553e+06
1.34369e+06
979584
689647
467244
303489
188195
110892
61757.1
32314.8
15803.1
7221.58
3139.56
1391.41
736.806
547.453
7.78452e+06
7.16464e+06
6.47848e+06
5.74723e+06
4.99929e+06
4.26064e+06
3.55387e+06
2.89736e+06
2.3049e+06
1.78553e+06
1.34369e+06
979584
689647
467244
303488
188194
110891
61757
32314.8
15803.1
7221.58
3139.56
1391.41
736.807
547.453
7.62837e+06
7.01957e+06
6.34596e+06
5.62856e+06
4.89513e+06
4.17114e+06
3.47865e+06
2.83564e+06
2.25554e+06
1.74716e+06
1.31481e+06
958599
675003
457480
297302
184493
108816
60675.4
31797.7
15580.3
7137.13
3112.33
1384.18
735.167
546.932
7.82124e+06
7.19882e+06
6.50983e+06
5.77541e+06
5.0241e+06
4.28204e+06
3.57191e+06
2.91222e+06
2.31682e+06
1.79482e+06
1.35071e+06
984700
693227
469637
305008
189105
111403
62023.4
32441.9
15857.7
7242.03
3145.99
1393.01
737.107
547.534
7.65547e+06
7.04482e+06
6.36895e+06
5.64909e+06
4.91311e+06
4.18655e+06
3.49157e+06
2.84621e+06
2.26397e+06
1.7537e+06
1.31972e+06
962159
677483
459132
298348
185119
109167
60859.4
31886.4
15619.1
7152.36
3117.6
1385.81
735.655
547.105
7.78452e+06
7.16464e+06
6.47848e+06
5.74723e+06
4.99928e+06
4.26064e+06
3.55387e+06
2.89736e+06
2.3049e+06
1.78553e+06
1.34369e+06
979584
689646
467244
303488
188194
110892
61757.1
32314.8
15803.1
7221.58
3139.56
1391.41
736.805
547.452
7.62836e+06
7.01956e+06
6.34595e+06
5.62855e+06
4.89512e+06
4.17113e+06
3.47865e+06
2.83563e+06
2.25554e+06
1.74716e+06
1.3148e+06
958598
675003
457480
297302
184494
108816
60675.6
31797.9
15580.4
7137.22
3112.39
1384.21
735.187
546.945
7.62837e+06
7.01957e+06
6.34596e+06
5.62855e+06
4.89513e+06
4.17114e+06
3.47865e+06
2.83564e+06
2.25554e+06
1.74716e+06
1.3148e+06
958598
675002
457479
297302
184493
108815
60675.2
31797.6
15580.2
7137.12
3112.33
1384.18
735.169
546.935
7.78452e+06
7.16464e+06
6.47848e+06
5.74723e+06
4.99928e+06
4.26064e+06
3.55387e+06
2.89736e+06
2.3049e+06
1.78553e+06
1.34369e+06
979583
689646
467244
303488
188194
110891
61756.9
32314.7
15803
7221.53
3139.53
1391.39
736.796
547.446
)
;

boundaryField
{
    outletCentralUnloaded
    {
        type            zeroGradient;
    }
    inletCentralUnloaded
    {
        type            zeroGradient;
    }
    outletFuelElement
    {
        type            zeroGradient;
    }
    inletFuelElement
    {
        type            zeroGradient;
    }
    defaultFaces
    {
        type            zeroGradient;
    }
    baffle_master
    {
        type            zeroGradient;
    }
    baffle_slave
    {
        type            zeroGradient;
    }
}


// ************************************************************************* //
