/*--------------------------------*- C++ -*----------------------------------*\
| =========                 |                                                 |
| \\      /  F ield         | OpenFOAM: The Open Source CFD Toolbox           |
|  \\    /   O peration     | Version:  2212                                  |
|   \\  /    A nd           | Website:  www.openfoam.com                      |
|    \\/     M anipulation  |                                                 |
\*---------------------------------------------------------------------------*/
FoamFile
{
    version     2.0;
    format      ascii;
    arch        "LSB;label=32;scalar=64";
    class       volScalarField;
    location    "70/fluidRegion";
    object      htc;
}
// * * * * * * * * * * * * * * * * * * * * * * * * * * * * * * * * * * * * * //

dimensions      [1 0 -3 -1 0 0 0];

internalField   nonuniform List<scalar> 
350
(
3101.53
3101.54
3101.52
3101.5
3101.46
3101.42
3101.38
3101.34
3101.32
3101.32
3101.34
3101.38
3101.45
3101.52
3101.61
3101.69
3101.77
3101.85
3101.9
3101.94
3101.96
3101.95
3101.92
3101.88
3106.96
3101.53
3101.54
3101.52
3101.5
3101.46
3101.42
3101.38
3101.34
3101.32
3101.32
3101.34
3101.38
3101.45
3101.52
3101.61
3101.69
3101.77
3101.85
3101.9
3101.94
3101.96
3101.95
3101.92
3101.88
3106.96
27257.9
27176.4
26988.9
26676.5
26240.5
25683
25006.9
24216
23315.7
22312.9
21217.3
20041.2
18799.9
17510.2
16188.6
14848.9
13501.7
12154.7
10817.5
9505.84
8247.95
7090.35
6104.23
5383.45
4944.19
27346.9
27265
27078.2
26765.8
26329.3
25770.7
25093
24299.9
23396.3
22389.1
21287.8
20104.8
18855.4
17557
16226.8
14879.4
13525.7
12173.4
10831.5
9515.41
8252.94
7090.86
6101.19
5379.2
4942.22
27243.9
27161.9
26974.5
26662.1
26226.1
25668.8
24993
24202.6
23302.8
22300.8
21206.1
20031.1
18791.1
17502.8
16182.4
14843.9
13497.6
12151.4
10814.8
9503.82
8246.54
7089.52
6103.82
5383.19
4944.04
27327.2
27245.3
27058.4
26745.9
26309.5
25751.1
25073.7
24281
23378.1
22371.9
21271.9
20090.4
18842.8
17546.4
16218.1
14872.6
13520.3
12169.2
10828.4
9513.3
8251.89
7090.84
6102
5380.3
4942.74
27327.2
27245.3
27058.4
26745.9
26309.5
25751.1
25073.7
24281
23378.1
22371.9
21271.9
20090.4
18842.8
17546.4
16218.1
14872.6
13520.3
12169.2
10828.4
9513.3
8251.89
7090.84
6102
5380.3
4942.74
27243.9
27161.9
26974.5
26662.1
26226.1
25668.8
24993
24202.6
23302.9
22300.8
21206.1
20031.2
18791.1
17502.8
16182.4
14843.9
13497.6
12151.4
10814.8
9503.81
8246.54
7089.51
6103.81
5383.18
4944.04
27346.9
27265
27078.2
26765.8
26329.3
25770.7
25093
24299.9
23396.3
22389.1
21287.8
20104.8
18855.4
17557
16226.8
14879.4
13525.7
12173.4
10831.5
9515.41
8252.94
7090.86
6101.19
5379.2
4942.22
27257.9
27176.4
26988.9
26676.5
26240.5
25683
25006.9
24216
23315.7
22312.9
21217.3
20041.2
18799.9
17510.2
16188.6
14848.9
13501.7
12154.7
10817.5
9505.83
8247.95
7090.35
6104.23
5383.45
4944.19
27327.2
27245.3
27058.4
26745.9
26309.5
25751.1
25073.7
24281
23378.1
22371.9
21271.9
20090.4
18842.8
17546.4
16218.1
14872.6
13520.3
12169.2
10828.4
9513.31
8251.89
7090.84
6102
5380.3
4942.74
27243.9
27161.9
26974.5
26662.1
26226.1
25668.8
24993
24202.6
23302.8
22300.8
21206.1
20031.1
18791.1
17502.8
16182.4
14843.9
13497.6
12151.4
10814.8
9503.82
8246.54
7089.52
6103.82
5383.19
4944.04
27243.9
27161.9
26974.5
26662.1
26226.1
25668.8
24993
24202.6
23302.8
22300.8
21206.1
20031.2
18791.1
17502.8
16182.4
14843.9
13497.6
12151.4
10814.8
9503.81
8246.54
7089.51
6103.81
5383.18
4944.04
27327.2
27245.3
27058.4
26745.9
26309.5
25751.1
25073.7
24281
23378.1
22371.9
21271.9
20090.4
18842.8
17546.4
16218.1
14872.6
13520.3
12169.2
10828.4
9513.3
8251.88
7090.84
6102
5380.3
4942.74
)
;

boundaryField
{
    outletCentralUnloaded
    {
        type            zeroGradient;
    }
    inletCentralUnloaded
    {
        type            zeroGradient;
    }
    outletFuelElement
    {
        type            zeroGradient;
    }
    inletFuelElement
    {
        type            zeroGradient;
    }
    defaultFaces
    {
        type            zeroGradient;
    }
    baffle_master
    {
        type            zeroGradient;
    }
    baffle_slave
    {
        type            zeroGradient;
    }
}


// ************************************************************************* //
