/*--------------------------------*- C++ -*----------------------------------*\
| =========                 |                                                 |
| \\      /  F ield         | OpenFOAM: The Open Source CFD Toolbox           |
|  \\    /   O peration     | Version:  2212                                  |
|   \\  /    A nd           | Website:  www.openfoam.com                      |
|    \\/     M anipulation  |                                                 |
\*---------------------------------------------------------------------------*/
FoamFile
{
    version     2.0;
    format      ascii;
    arch        "LSB;label=32;scalar=64";
    class       volScalarField;
    location    "70/fluidRegion";
    object      k;
}
// * * * * * * * * * * * * * * * * * * * * * * * * * * * * * * * * * * * * * //

dimensions      [0 2 -2 0 0 0 0];

internalField   nonuniform List<scalar> 
350
(
0.421089
0.42102
0.420954
0.420889
0.420823
0.420755
0.420685
0.420615
0.420545
0.420476
0.420411
0.420349
0.42029
0.420237
0.420192
0.420159
0.420146
0.420164
0.420227
0.420362
0.420606
0.421016
0.42168
0.422733
0.424377
0.421089
0.42102
0.420954
0.420889
0.420823
0.420755
0.420685
0.420615
0.420545
0.420476
0.420411
0.420349
0.42029
0.420237
0.420192
0.420159
0.420146
0.420164
0.420227
0.420362
0.420606
0.421016
0.42168
0.422733
0.424377
406.89
384.287
358.581
330.285
300.182
269.05
237.638
206.646
176.711
148.397
122.18
98.4404
77.4518
59.3699
44.2265
31.9289
22.272
14.962
9.64998
5.96606
3.55018
2.0728
1.25016
0.853304
0.71326
412.614
389.745
363.735
335.084
304.589
273.038
241.192
209.76
179.39
150.656
124.041
99.9349
78.6165
60.2475
44.8629
32.3708
22.5641
15.1444
9.75622
6.0229
3.57738
2.084
1.25393
0.854332
0.713647
405.943
383.381
357.73
329.495
299.459
268.399
237.06
206.141
176.279
148.033
121.881
98.2016
77.2661
59.2303
44.1253
31.8587
22.2255
14.9328
9.63276
5.95664
3.54546
2.07066
1.24928
0.852961
0.713126
411.357
388.544
362.598
334.022
303.612
272.152
240.4
209.065
178.791
150.149
123.623
99.5981
78.3534
60.0488
44.7185
32.2704
22.4976
15.1028
9.73201
6.00995
3.5712
2.08147
1.2531
0.854118
0.713572
411.357
388.544
362.598
334.022
303.612
272.152
240.4
209.065
178.791
150.149
123.623
99.5981
78.3534
60.0488
44.7185
32.2704
22.4976
15.1028
9.73201
6.00995
3.5712
2.08147
1.2531
0.854118
0.713571
405.943
383.381
357.73
329.495
299.46
268.399
237.06
206.141
176.279
148.034
121.882
98.2017
77.2662
59.2304
44.1254
31.8587
22.2255
14.9329
9.63278
5.95665
3.54546
2.07066
1.24928
0.852961
0.713126
412.614
389.745
363.735
335.084
304.589
273.038
241.192
209.76
179.39
150.656
124.041
99.9349
78.6165
60.2475
44.8629
32.3708
22.5641
15.1444
9.75622
6.0229
3.57738
2.084
1.25393
0.854332
0.713647
406.89
384.287
358.581
330.285
300.182
269.05
237.638
206.646
176.711
148.397
122.18
98.4404
77.4517
59.3699
44.2265
31.9289
22.272
14.9621
9.64998
5.96607
3.55019
2.07281
1.25017
0.853308
0.713263
411.357
388.544
362.598
334.022
303.612
272.152
240.4
209.065
178.791
150.149
123.623
99.5981
78.3534
60.0488
44.7185
32.2704
22.4976
15.1028
9.73201
6.00995
3.5712
2.08147
1.2531
0.85412
0.713573
405.943
383.381
357.73
329.495
299.46
268.399
237.06
206.141
176.279
148.033
121.881
98.2016
77.2661
59.2303
44.1253
31.8587
22.2255
14.9328
9.63275
5.95663
3.54544
2.07064
1.24927
0.852955
0.713122
405.943
383.381
357.73
329.495
299.46
268.399
237.06
206.141
176.279
148.034
121.882
98.2017
77.2662
59.2304
44.1254
31.8587
22.2255
14.9329
9.63279
5.95665
3.54546
2.07066
1.24928
0.85296
0.713125
411.357
388.544
362.598
334.023
303.612
272.152
240.4
209.065
178.791
150.149
123.623
99.5981
78.3534
60.0488
44.7185
32.2704
22.4976
15.1028
9.73202
6.00996
3.57121
2.08148
1.25311
0.854125
0.713576
)
;

boundaryField
{
    outletCentralUnloaded
    {
        type            zeroGradient;
    }
    inletCentralUnloaded
    {
        type            zeroGradient;
    }
    outletFuelElement
    {
        type            zeroGradient;
    }
    inletFuelElement
    {
        type            zeroGradient;
    }
    defaultFaces
    {
        type            zeroGradient;
    }
    baffle_master
    {
        type            zeroGradient;
    }
    baffle_slave
    {
        type            zeroGradient;
    }
}


// ************************************************************************* //
