/*--------------------------------*- C++ -*----------------------------------*\
| =========                 |                                                 |
| \\      /  F ield         | OpenFOAM: The Open Source CFD Toolbox           |
|  \\    /   O peration     | Version:  2212                                  |
|   \\  /    A nd           | Website:  www.openfoam.com                      |
|    \\/     M anipulation  |                                                 |
\*---------------------------------------------------------------------------*/
FoamFile
{
    version     2.0;
    format      ascii;
    arch        "LSB;label=32;scalar=64";
    class       volScalarField;
    location    "70/fluidRegion";
    object      nut;
}
// * * * * * * * * * * * * * * * * * * * * * * * * * * * * * * * * * * * * * //

dimensions      [0 2 -1 0 0 0 0];

internalField   nonuniform List<scalar> 
350
(
0.000537623
0.000537575
0.000537529
0.000537483
0.000537435
0.000537384
0.000537331
0.000537279
0.000537229
0.000537184
0.000537144
0.000537109
0.000537078
0.000537051
0.000537028
0.000537011
0.000537001
0.000537005
0.000537028
0.000537081
0.000537183
0.000537359
0.000537653
0.000538128
0.000539502
0.000537623
0.000537575
0.000537529
0.000537483
0.000537435
0.000537384
0.000537331
0.000537279
0.000537229
0.000537184
0.000537144
0.000537109
0.000537078
0.000537051
0.000537028
0.000537011
0.000537001
0.000537005
0.000537028
0.000537081
0.000537183
0.000537359
0.000537653
0.000538128
0.000539502
0.0104227
0.0102031
0.0099314
0.00960381
0.00922528
0.008801
0.0083363
0.00783668
0.00730778
0.00675546
0.00618588
0.00560562
0.0050218
0.00444219
0.00387504
0.00332885
0.00281179
0.00233123
0.00189341
0.00150355
0.00116624
0.000885936
0.000666911
0.000511769
0.000416364
0.0104901
0.0102694
0.00999671
0.00966765
0.00928723
0.00886067
0.00839332
0.00789071
0.00735852
0.00680261
0.00622917
0.00564481
0.00505669
0.00447264
0.00390102
0.00335043
0.00282916
0.00234472
0.00190342
0.00151055
0.00117075
0.000888496
0.000668099
0.000512151
0.00041643
0.0104118
0.0101922
0.00992073
0.00959341
0.00921523
0.00879135
0.00832711
0.00782799
0.00729965
0.00674793
0.00617899
0.00559939
0.00501627
0.00443737
0.00387094
0.00332544
0.00280904
0.00232908
0.00189179
0.00150239
0.00116545
0.000885445
0.000666628
0.00051162
0.000416314
0.0104751
0.0102547
0.00998221
0.00965344
0.00927342
0.00884733
0.00838055
0.00787859
0.00734711
0.00679199
0.0062194
0.00563595
0.00504879
0.00446573
0.00389512
0.00334552
0.00282521
0.00234164
0.00190114
0.00150895
0.00116972
0.000887919
0.000667838
0.000512075
0.000416421
0.0104751
0.0102547
0.00998221
0.00965344
0.00927342
0.00884733
0.00838055
0.00787859
0.00734711
0.00679199
0.0062194
0.00563595
0.00504879
0.00446573
0.00389512
0.00334552
0.00282521
0.00234164
0.00190114
0.00150895
0.00116972
0.000887919
0.000667838
0.000512075
0.000416421
0.0104118
0.0101922
0.00992074
0.00959342
0.00921523
0.00879135
0.00832711
0.007828
0.00729965
0.00674794
0.00617899
0.0055994
0.00501628
0.00443737
0.00387094
0.00332544
0.00280904
0.00232908
0.00189179
0.00150239
0.00116545
0.000885445
0.000666628
0.00051162
0.000416314
0.0104901
0.0102694
0.00999671
0.00966765
0.00928723
0.00886067
0.00839332
0.00789071
0.00735852
0.00680261
0.00622917
0.00564481
0.00505669
0.00447264
0.00390102
0.00335043
0.00282916
0.00234472
0.00190342
0.00151055
0.00117075
0.000888496
0.0006681
0.000512151
0.00041643
0.0104227
0.0102031
0.0099314
0.00960381
0.00922528
0.008801
0.0083363
0.00783668
0.00730778
0.00675546
0.00618588
0.00560562
0.0050218
0.00444219
0.00387504
0.00332885
0.00281179
0.00233123
0.00189341
0.00150355
0.00116624
0.000885937
0.000666913
0.000511771
0.000416365
0.0104751
0.0102547
0.00998221
0.00965344
0.00927342
0.00884733
0.00838056
0.00787859
0.00734711
0.00679199
0.0062194
0.00563595
0.00504879
0.00446573
0.00389512
0.00334552
0.00282521
0.00234164
0.00190114
0.00150895
0.00116972
0.00088792
0.000667839
0.000512075
0.000416422
0.0104118
0.0101922
0.00992073
0.00959341
0.00921523
0.00879135
0.00832711
0.00782799
0.00729965
0.00674793
0.00617899
0.00559939
0.00501627
0.00443737
0.00387094
0.00332544
0.00280903
0.00232908
0.00189179
0.00150238
0.00116545
0.000885442
0.000666625
0.000511617
0.000416311
0.0104118
0.0101922
0.00992074
0.00959342
0.00921523
0.00879135
0.00832711
0.007828
0.00729966
0.00674794
0.00617899
0.0055994
0.00501628
0.00443737
0.00387094
0.00332544
0.00280904
0.00232908
0.00189179
0.00150239
0.00116545
0.000885445
0.000666628
0.000511619
0.000416313
0.0104751
0.0102547
0.00998221
0.00965344
0.00927342
0.00884733
0.00838056
0.00787859
0.00734711
0.00679199
0.0062194
0.00563595
0.00504879
0.00446573
0.00389512
0.00334552
0.00282521
0.00234164
0.00190114
0.00150896
0.00116972
0.000887922
0.000667841
0.000512078
0.000416423
)
;

boundaryField
{
    outletCentralUnloaded
    {
        type            zeroGradient;
    }
    inletCentralUnloaded
    {
        type            zeroGradient;
    }
    outletFuelElement
    {
        type            zeroGradient;
    }
    inletFuelElement
    {
        type            zeroGradient;
    }
    defaultFaces
    {
        type            zeroGradient;
    }
    baffle_master
    {
        type            calculated;
        value           nonuniform List<scalar> 
150
(
0.000537623
0.000537623
0.000537623
0.000537575
0.000537575
0.000537575
0.000537529
0.000537529
0.000537529
0.000537483
0.000537483
0.000537483
0.000537435
0.000537435
0.000537435
0.000537384
0.000537384
0.000537384
0.000537331
0.000537331
0.000537331
0.000537279
0.000537279
0.000537279
0.000537229
0.000537229
0.000537229
0.000537184
0.000537184
0.000537184
0.000537144
0.000537144
0.000537144
0.000537109
0.000537109
0.000537109
0.000537078
0.000537078
0.000537078
0.000537051
0.000537051
0.000537051
0.000537028
0.000537028
0.000537028
0.000537011
0.000537011
0.000537011
0.000537001
0.000537001
0.000537001
0.000537005
0.000537005
0.000537005
0.000537028
0.000537028
0.000537028
0.000537081
0.000537081
0.000537081
0.000537183
0.000537183
0.000537183
0.000537359
0.000537359
0.000537359
0.000537653
0.000537653
0.000537653
0.000538128
0.000538128
0.000538128
0.000539502
0.000539502
0.000539502
0.000537623
0.000537623
0.000537623
0.000537575
0.000537575
0.000537575
0.000537529
0.000537529
0.000537529
0.000537483
0.000537483
0.000537483
0.000537435
0.000537435
0.000537435
0.000537384
0.000537384
0.000537384
0.000537331
0.000537331
0.000537331
0.000537279
0.000537279
0.000537279
0.000537229
0.000537229
0.000537229
0.000537184
0.000537184
0.000537184
0.000537144
0.000537144
0.000537144
0.000537109
0.000537109
0.000537109
0.000537078
0.000537078
0.000537078
0.000537051
0.000537051
0.000537051
0.000537028
0.000537028
0.000537028
0.000537011
0.000537011
0.000537011
0.000537001
0.000537001
0.000537001
0.000537005
0.000537005
0.000537005
0.000537028
0.000537028
0.000537028
0.000537081
0.000537081
0.000537081
0.000537183
0.000537183
0.000537183
0.000537359
0.000537359
0.000537359
0.000537653
0.000537653
0.000537653
0.000538128
0.000538128
0.000538128
0.000539502
0.000539502
0.000539502
)
;
    }
    baffle_slave
    {
        type            calculated;
        value           nonuniform List<scalar> 
150
(
0.0104901
0.0104751
0.0104751
0.0102694
0.0102547
0.0102547
0.00999671
0.00998221
0.00998221
0.00966765
0.00965344
0.00965344
0.00928723
0.00927342
0.00927342
0.00886067
0.00884733
0.00884733
0.00839332
0.00838055
0.00838056
0.00789071
0.00787859
0.00787859
0.00735852
0.00734711
0.00734711
0.00680261
0.00679199
0.00679199
0.00622917
0.0062194
0.0062194
0.00564481
0.00563595
0.00563595
0.00505669
0.00504879
0.00504879
0.00447264
0.00446573
0.00446573
0.00390102
0.00389512
0.00389512
0.00335043
0.00334552
0.00334552
0.00282916
0.00282521
0.00282521
0.00234472
0.00234164
0.00234164
0.00190342
0.00190114
0.00190114
0.00151055
0.00150895
0.00150896
0.00117075
0.00116972
0.00116972
0.000888496
0.000887919
0.000887922
0.000668099
0.000667838
0.000667841
0.000512151
0.000512075
0.000512078
0.00041643
0.000416421
0.000416423
0.0104751
0.0104901
0.0104751
0.0102547
0.0102694
0.0102547
0.00998221
0.00999671
0.00998221
0.00965344
0.00966765
0.00965344
0.00927342
0.00928723
0.00927342
0.00884733
0.00886067
0.00884733
0.00838055
0.00839332
0.00838056
0.00787859
0.00789071
0.00787859
0.00734711
0.00735852
0.00734711
0.00679199
0.00680261
0.00679199
0.0062194
0.00622917
0.0062194
0.00563595
0.00564481
0.00563595
0.00504879
0.00505669
0.00504879
0.00446573
0.00447264
0.00446573
0.00389512
0.00390102
0.00389512
0.00334552
0.00335043
0.00334552
0.00282521
0.00282916
0.00282521
0.00234164
0.00234472
0.00234164
0.00190114
0.00190342
0.00190114
0.00150895
0.00151055
0.00150895
0.00116972
0.00117075
0.00116972
0.000887919
0.000888496
0.00088792
0.000667838
0.0006681
0.000667839
0.000512075
0.000512151
0.000512075
0.000416421
0.00041643
0.000416422
)
;
    }
}


// ************************************************************************* //
