/*--------------------------------*- C++ -*----------------------------------*\
| =========                 |                                                 |
| \\      /  F ield         | OpenFOAM: The Open Source CFD Toolbox           |
|  \\    /   O peration     | Version:  2212                                  |
|   \\  /    A nd           | Website:  www.openfoam.com                      |
|    \\/     M anipulation  |                                                 |
\*---------------------------------------------------------------------------*/
FoamFile
{
    version     2.0;
    format      ascii;
    arch        "LSB;label=32;scalar=64";
    class       volScalarField;
    location    "70/fluidRegion";
    object      p;
}
// * * * * * * * * * * * * * * * * * * * * * * * * * * * * * * * * * * * * * //

dimensions      [1 -1 -2 0 0 0 0];

internalField   nonuniform List<scalar> 
350
(
3.44743e+06
3.44772e+06
3.44802e+06
3.44831e+06
3.44861e+06
3.44891e+06
3.4492e+06
3.4495e+06
3.44979e+06
3.45009e+06
3.45038e+06
3.45068e+06
3.45097e+06
3.45127e+06
3.45156e+06
3.45186e+06
3.45216e+06
3.45245e+06
3.45275e+06
3.45304e+06
3.45334e+06
3.45364e+06
3.45393e+06
3.45422e+06
3.45451e+06
3.44743e+06
3.44772e+06
3.44802e+06
3.44831e+06
3.44861e+06
3.44891e+06
3.4492e+06
3.4495e+06
3.44979e+06
3.45009e+06
3.45038e+06
3.45068e+06
3.45097e+06
3.45127e+06
3.45156e+06
3.45186e+06
3.45216e+06
3.45245e+06
3.45275e+06
3.45304e+06
3.45334e+06
3.45364e+06
3.45393e+06
3.45422e+06
3.45451e+06
3.47385e+06
3.5257e+06
3.57693e+06
3.62725e+06
3.67634e+06
3.72392e+06
3.76974e+06
3.81355e+06
3.85516e+06
3.89436e+06
3.931e+06
3.96495e+06
3.99608e+06
4.02434e+06
4.04966e+06
4.07204e+06
4.09154e+06
4.10823e+06
4.12227e+06
4.13382e+06
4.14308e+06
4.15029e+06
4.15567e+06
4.15952e+06
4.1622e+06
3.47385e+06
3.5257e+06
3.57693e+06
3.62725e+06
3.67634e+06
3.72392e+06
3.76974e+06
3.81355e+06
3.85516e+06
3.89436e+06
3.931e+06
3.96495e+06
3.99608e+06
4.02434e+06
4.04966e+06
4.07204e+06
4.09154e+06
4.10823e+06
4.12227e+06
4.13382e+06
4.14308e+06
4.15029e+06
4.15567e+06
4.15952e+06
4.1622e+06
3.47385e+06
3.5257e+06
3.57693e+06
3.62725e+06
3.67634e+06
3.72392e+06
3.76974e+06
3.81355e+06
3.85516e+06
3.89436e+06
3.931e+06
3.96495e+06
3.99608e+06
4.02434e+06
4.04966e+06
4.07204e+06
4.09154e+06
4.10823e+06
4.12227e+06
4.13382e+06
4.14308e+06
4.15029e+06
4.15567e+06
4.15952e+06
4.1622e+06
3.47385e+06
3.5257e+06
3.57693e+06
3.62725e+06
3.67634e+06
3.72392e+06
3.76974e+06
3.81355e+06
3.85516e+06
3.89436e+06
3.931e+06
3.96495e+06
3.99608e+06
4.02434e+06
4.04966e+06
4.07204e+06
4.09154e+06
4.10823e+06
4.12227e+06
4.13382e+06
4.14308e+06
4.15029e+06
4.15567e+06
4.15952e+06
4.1622e+06
3.47385e+06
3.5257e+06
3.57693e+06
3.62725e+06
3.67634e+06
3.72392e+06
3.76974e+06
3.81355e+06
3.85516e+06
3.89436e+06
3.931e+06
3.96495e+06
3.99608e+06
4.02434e+06
4.04966e+06
4.07204e+06
4.09154e+06
4.10823e+06
4.12227e+06
4.13382e+06
4.14308e+06
4.15029e+06
4.15567e+06
4.15952e+06
4.1622e+06
3.47385e+06
3.5257e+06
3.57693e+06
3.62725e+06
3.67634e+06
3.72392e+06
3.76974e+06
3.81355e+06
3.85516e+06
3.89436e+06
3.931e+06
3.96495e+06
3.99608e+06
4.02434e+06
4.04966e+06
4.07204e+06
4.09154e+06
4.10823e+06
4.12227e+06
4.13382e+06
4.14308e+06
4.15029e+06
4.15567e+06
4.15952e+06
4.1622e+06
3.47385e+06
3.5257e+06
3.57693e+06
3.62725e+06
3.67634e+06
3.72392e+06
3.76974e+06
3.81355e+06
3.85516e+06
3.89436e+06
3.931e+06
3.96495e+06
3.99608e+06
4.02434e+06
4.04966e+06
4.07204e+06
4.09154e+06
4.10823e+06
4.12227e+06
4.13382e+06
4.14308e+06
4.15029e+06
4.15567e+06
4.15952e+06
4.1622e+06
3.47385e+06
3.5257e+06
3.57693e+06
3.62725e+06
3.67634e+06
3.72392e+06
3.76974e+06
3.81355e+06
3.85516e+06
3.89436e+06
3.931e+06
3.96495e+06
3.99608e+06
4.02434e+06
4.04966e+06
4.07204e+06
4.09154e+06
4.10823e+06
4.12227e+06
4.13382e+06
4.14308e+06
4.15029e+06
4.15567e+06
4.15952e+06
4.1622e+06
3.47385e+06
3.5257e+06
3.57693e+06
3.62725e+06
3.67634e+06
3.72392e+06
3.76974e+06
3.81355e+06
3.85516e+06
3.89436e+06
3.931e+06
3.96495e+06
3.99608e+06
4.02434e+06
4.04966e+06
4.07204e+06
4.09154e+06
4.10823e+06
4.12227e+06
4.13382e+06
4.14308e+06
4.15029e+06
4.15567e+06
4.15952e+06
4.1622e+06
3.47385e+06
3.5257e+06
3.57693e+06
3.62725e+06
3.67634e+06
3.72392e+06
3.76974e+06
3.81355e+06
3.85516e+06
3.89436e+06
3.931e+06
3.96495e+06
3.99608e+06
4.02434e+06
4.04966e+06
4.07204e+06
4.09154e+06
4.10823e+06
4.12227e+06
4.13382e+06
4.14308e+06
4.15029e+06
4.15567e+06
4.15952e+06
4.1622e+06
3.47385e+06
3.5257e+06
3.57693e+06
3.62725e+06
3.67634e+06
3.72392e+06
3.76974e+06
3.81355e+06
3.85516e+06
3.89436e+06
3.931e+06
3.96495e+06
3.99608e+06
4.02434e+06
4.04966e+06
4.07204e+06
4.09154e+06
4.10823e+06
4.12227e+06
4.13382e+06
4.14308e+06
4.15029e+06
4.15567e+06
4.15952e+06
4.1622e+06
3.47385e+06
3.5257e+06
3.57693e+06
3.62725e+06
3.67634e+06
3.72392e+06
3.76974e+06
3.81355e+06
3.85516e+06
3.89436e+06
3.931e+06
3.96495e+06
3.99608e+06
4.02434e+06
4.04966e+06
4.07204e+06
4.09154e+06
4.10823e+06
4.12227e+06
4.13382e+06
4.14308e+06
4.15029e+06
4.15567e+06
4.15952e+06
4.1622e+06
)
;

boundaryField
{
    outletCentralUnloaded
    {
        type            fixedValue;
        value           uniform 3.44728e+06;
    }
    inletCentralUnloaded
    {
        type            zeroGradient;
    }
    outletFuelElement
    {
        type            fixedValue;
        value           uniform 3.44728e+06;
    }
    inletFuelElement
    {
        type            zeroGradient;
    }
    defaultFaces
    {
        type            zeroGradient;
    }
    baffle_master
    {
        type            zeroGradient;
    }
    baffle_slave
    {
        type            zeroGradient;
    }
}


// ************************************************************************* //
