/*--------------------------------*- C++ -*----------------------------------*\
| =========                 |                                                 |
| \\      /  F ield         | OpenFOAM: The Open Source CFD Toolbox           |
|  \\    /   O peration     | Version:  2212                                  |
|   \\  /    A nd           | Website:  www.openfoam.com                      |
|    \\/     M anipulation  |                                                 |
\*---------------------------------------------------------------------------*/
FoamFile
{
    version     2.0;
    format      ascii;
    arch        "LSB;label=32;scalar=64";
    class       volScalarField;
    location    "70/fluidRegion";
    object      Re;
}
// * * * * * * * * * * * * * * * * * * * * * * * * * * * * * * * * * * * * * //

dimensions      [0 0 0 0 0 0 0];

internalField   nonuniform List<scalar> 
350
(
174043
174042
174040
174037
174033
174029
174025
174021
174018
174017
174018
174020
174023
174027
174032
174037
174041
174045
174048
174050
174050
174048
174045
174040
174396
174043
174042
174040
174037
174033
174029
174025
174021
174018
174017
174018
174020
174023
174027
174032
174037
174041
174045
174048
174050
174050
174048
174045
174040
174396
55432.1
55383.1
55384.3
55384.5
55383.5
55381.1
55377.2
55371.6
55364.1
55354.4
55342.5
55328.3
55311.8
55293.1
55271.8
55247
55216.8
55179.2
55133.6
55085.7
55055
55101
55368.1
56114.4
56605.6
54941.1
54884.4
54881.5
54877.5
54872.6
54866.7
54859.5
54850.8
54840.4
54828.1
54814.1
54798.6
54782.5
54766.6
54751.8
54738.1
54724.2
54708.4
54689.9
54675
54684.5
54781.4
55116
55952.6
56552.8
55514.3
55464.8
55466.5
55467
55466.2
55464
55460.2
55454.7
55447.2
55437.6
55425.5
55410.9
55393.8
55373.9
55350.9
55323.4
55289.8
55247.8
55196.8
55142.5
55103.9
55140.2
55394.9
56126.5
56607.4
55050.8
54996.4
54994.6
54991.8
54988
54983.1
54976.8
54969
54959.4
54948
54934.6
54919.6
54903.6
54887.3
54871.2
54855.1
54837.7
54817.1
54792.5
54770.2
54770.7
54856.2
55175.5
55991.6
56565.9
55050.8
54996.4
54994.6
54991.8
54988
54983.1
54976.8
54969
54959.4
54948
54934.6
54919.6
54903.6
54887.3
54871.2
54855.1
54837.7
54817.1
54792.5
54770.2
54770.7
54856.2
55175.5
55991.6
56565.9
55514.3
55464.8
55466.4
55466.9
55466.2
55464
55460.2
55454.7
55447.2
55437.5
55425.5
55410.9
55393.7
55373.9
55350.8
55323.4
55289.7
55247.7
55196.7
55142.4
55103.8
55140.1
55394.8
56126.4
56607.4
54941.1
54884.4
54881.5
54877.5
54872.6
54866.7
54859.5
54850.8
54840.4
54828.1
54814.1
54798.6
54782.5
54766.6
54751.8
54738.1
54724.2
54708.4
54689.9
54675
54684.5
54781.4
55116
55952.6
56552.8
55432.1
55383.1
55384.3
55384.5
55383.5
55381.1
55377.2
55371.6
55364.1
55354.5
55342.5
55328.3
55311.8
55293.1
55271.8
55247
55216.8
55179.2
55133.6
55085.7
55055
55101
55368.1
56114.4
56605.6
55050.8
54996.4
54994.6
54991.8
54988
54983.1
54976.8
54969
54959.4
54948
54934.6
54919.6
54903.6
54887.3
54871.2
54855.1
54837.7
54817.1
54792.5
54770.2
54770.7
54856.2
55175.5
55991.6
56565.9
55514.3
55464.8
55466.5
55467
55466.2
55464
55460.2
55454.7
55447.2
55437.6
55425.5
55410.9
55393.8
55373.9
55350.9
55323.4
55289.8
55247.8
55196.8
55142.5
55103.9
55140.2
55394.9
56126.5
56607.4
55514.3
55464.8
55466.4
55467
55466.2
55464
55460.2
55454.7
55447.2
55437.5
55425.5
55410.9
55393.7
55373.9
55350.8
55323.4
55289.7
55247.7
55196.7
55142.4
55103.8
55140.1
55394.8
56126.4
56607.4
55050.8
54996.4
54994.6
54991.8
54988
54983.1
54976.8
54969
54959.4
54948
54934.6
54919.6
54903.6
54887.3
54871.2
54855.1
54837.7
54817.1
54792.5
54770.2
54770.7
54856.2
55175.5
55991.6
56565.9
)
;

boundaryField
{
    outletCentralUnloaded
    {
        type            zeroGradient;
    }
    inletCentralUnloaded
    {
        type            zeroGradient;
    }
    outletFuelElement
    {
        type            zeroGradient;
    }
    inletFuelElement
    {
        type            zeroGradient;
    }
    defaultFaces
    {
        type            zeroGradient;
    }
    baffle_master
    {
        type            zeroGradient;
    }
    baffle_slave
    {
        type            zeroGradient;
    }
}


// ************************************************************************* //
