/*--------------------------------*- C++ -*----------------------------------*\
| =========                 |                                                 |
| \\      /  F ield         | OpenFOAM: The Open Source CFD Toolbox           |
|  \\    /   O peration     | Version:  2212                                  |
|   \\  /    A nd           | Website:  www.openfoam.com                      |
|    \\/     M anipulation  |                                                 |
\*---------------------------------------------------------------------------*/
FoamFile
{
    version     2.0;
    format      ascii;
    arch        "LSB;label=32;scalar=64";
    class       volScalarField;
    location    "70/fluidRegion";
    object      T.fuelAvForNeutronics;
}
// * * * * * * * * * * * * * * * * * * * * * * * * * * * * * * * * * * * * * //

dimensions      [0 0 0 1 0 0 0];

internalField   nonuniform List<scalar> 
350
(
0
0
0
0
0
0
0
0
0
0
0
0
0
0
0
0
0
0
0
0
0
0
0
0
0
0
0
0
0
0
0
0
0
0
0
0
0
0
0
0
0
0
0
0
0
0
0
0
0
0
2223.01
3010.05
3766.39
4480.48
5141.39
5738.95
6263.95
6708.3
7065.1
7328.83
7495.39
7562.21
7528.28
7394.19
7162.11
6835.76
6420.18
5921.53
5346.55
4702.07
3993.79
3225.09
2395.58
1504.27
564.363
2255.78
3052.02
3817.11
4539.41
5207.82
5812.09
6342.89
6792.03
7152.55
7418.87
7586.84
7653.87
7618.94
7482.64
7247.19
6916.36
6495.28
5990.22
5408.05
4755.74
4039.07
3261.46
2422.42
1520.79
569.909
2217.7
3003.3
3758.26
4471.06
5130.79
5727.3
6251.4
6695
7051.22
7314.55
7480.9
7547.7
7513.93
7380.19
7148.65
6823.01
6408.31
5910.68
5336.83
4693.6
3986.65
3219.37
2391.37
1501.69
563.488
2248.39
3042.49
3805.56
4525.95
5192.62
5795.33
6324.78
6772.8
7132.46
7398.17
7565.81
7632.78
7598.07
7462.28
7227.6
6897.79
6477.98
5974.39
5393.88
4743.37
4028.64
3253.08
2416.24
1516.98
568.631
2248.39
3042.49
3805.56
4525.95
5192.62
5795.33
6324.78
6772.8
7132.46
7398.17
7565.81
7632.78
7598.07
7462.28
7227.6
6897.79
6477.98
5974.39
5393.88
4743.37
4028.63
3253.08
2416.24
1516.98
568.631
2217.7
3003.3
3758.26
4471.06
5130.79
5727.3
6251.41
6695
7051.23
7314.56
7480.9
7547.7
7513.93
7380.19
7148.66
6823.02
6408.32
5910.68
5336.83
4693.6
3986.65
3219.37
2391.37
1501.69
563.488
2255.78
3052.02
3817.11
4539.41
5207.82
5812.09
6342.89
6792.03
7152.55
7418.87
7586.84
7653.87
7618.94
7482.64
7247.19
6916.36
6495.28
5990.22
5408.05
4755.74
4039.07
3261.46
2422.42
1520.79
569.909
2223.01
3010.05
3766.39
4480.48
5141.38
5738.95
6263.95
6708.3
7065.1
7328.83
7495.39
7562.21
7528.28
7394.19
7162.11
6835.76
6420.18
5921.53
5346.55
4702.07
3993.79
3225.09
2395.58
1504.27
564.363
2248.39
3042.49
3805.56
4525.95
5192.62
5795.33
6324.78
6772.8
7132.46
7398.17
7565.81
7632.78
7598.07
7462.28
7227.6
6897.79
6477.98
5974.39
5393.88
4743.37
4028.63
3253.08
2416.24
1516.98
568.631
2217.7
3003.3
3758.26
4471.06
5130.79
5727.3
6251.4
6695
7051.22
7314.55
7480.9
7547.7
7513.93
7380.19
7148.65
6823.01
6408.31
5910.68
5336.83
4693.6
3986.65
3219.37
2391.37
1501.69
563.488
2217.7
3003.3
3758.26
4471.06
5130.79
5727.3
6251.41
6695
7051.23
7314.55
7480.9
7547.7
7513.93
7380.19
7148.66
6823.01
6408.32
5910.68
5336.83
4693.6
3986.65
3219.37
2391.37
1501.69
563.488
2248.39
3042.49
3805.56
4525.95
5192.62
5795.33
6324.78
6772.8
7132.46
7398.17
7565.81
7632.78
7598.07
7462.28
7227.6
6897.79
6477.98
5974.39
5393.88
4743.37
4028.63
3253.08
2416.24
1516.98
568.631
)
;

boundaryField
{
    outletCentralUnloaded
    {
        type            zeroGradient;
    }
    inletCentralUnloaded
    {
        type            zeroGradient;
    }
    outletFuelElement
    {
        type            zeroGradient;
    }
    inletFuelElement
    {
        type            zeroGradient;
    }
    defaultFaces
    {
        type            zeroGradient;
    }
    baffle_master
    {
        type            zeroGradient;
    }
    baffle_slave
    {
        type            zeroGradient;
    }
}


// ************************************************************************* //
