/*--------------------------------*- C++ -*----------------------------------*\
| =========                 |                                                 |
| \\      /  F ield         | OpenFOAM: The Open Source CFD Toolbox           |
|  \\    /   O peration     | Version:  2212                                  |
|   \\  /    A nd           | Website:  www.openfoam.com                      |
|    \\/     M anipulation  |                                                 |
\*---------------------------------------------------------------------------*/
FoamFile
{
    version     2.0;
    format      ascii;
    arch        "LSB;label=32;scalar=64";
    class       volScalarField;
    location    "70/fluidRegion";
    object      Tcav.nuclearFuelPin;
}
// * * * * * * * * * * * * * * * * * * * * * * * * * * * * * * * * * * * * * //

dimensions      [0 0 0 1 0 0 0];

internalField   nonuniform List<scalar> 
350
(
0
0
0
0
0
0
0
0
0
0
0
0
0
0
0
0
0
0
0
0
0
0
0
0
0
0
0
0
0
0
0
0
0
0
0
0
0
0
0
0
0
0
0
0
0
0
0
0
0
0
1845.83
1883.91
1909.05
1921.25
1920.62
1907.45
1882.15
1845.3
1797.6
1739.9
1673.18
1598.53
1517.19
1430.49
1339.85
1246.76
1152.59
1058.42
964.636
870.42
772.855
665.645
538.04
377.924
186.9
1874.28
1912.98
1938.51
1950.86
1950.17
1936.7
1910.9
1873.33
1824.71
1765.92
1697.94
1621.88
1538.99
1450.63
1358.24
1263.34
1167.35
1071.4
975.944
880.197
781.242
672.702
543.608
381.542
188.123
1841.21
1879.21
1904.31
1916.5
1915.9
1902.8
1877.6
1840.87
1793.33
1735.82
1669.31
1594.9
1513.8
1427.37
1337.02
1244.21
1150.33
1056.44
962.913
868.936
771.59
664.592
537.221
377.396
186.714
1867.88
1906.43
1931.85
1944.15
1943.46
1930.05
1904.34
1866.93
1818.51
1759.96
1692.26
1616.52
1533.98
1445.99
1354
1259.51
1163.94
1068.4
973.33
877.936
779.302
671.068
542.318
380.702
187.84
1867.88
1906.43
1931.85
1944.15
1943.46
1930.05
1904.34
1866.93
1818.51
1759.96
1692.26
1616.52
1533.98
1445.99
1354
1259.51
1163.94
1068.4
973.33
877.936
779.302
671.068
542.318
380.702
187.84
1841.21
1879.21
1904.31
1916.5
1915.91
1902.8
1877.6
1840.87
1793.33
1735.82
1669.31
1594.9
1513.81
1427.37
1337.02
1244.21
1150.33
1056.44
962.914
868.937
771.591
664.593
537.222
377.397
186.714
1874.28
1912.98
1938.51
1950.86
1950.17
1936.7
1910.9
1873.33
1824.71
1765.92
1697.94
1621.88
1538.99
1450.63
1358.24
1263.34
1167.35
1071.4
975.944
880.197
781.242
672.702
543.608
381.542
188.123
1845.83
1883.91
1909.05
1921.25
1920.62
1907.45
1882.15
1845.3
1797.6
1739.9
1673.18
1598.53
1517.19
1430.49
1339.85
1246.76
1152.59
1058.42
964.636
870.42
772.855
665.646
538.04
377.923
186.9
1867.88
1906.43
1931.85
1944.15
1943.46
1930.05
1904.34
1866.93
1818.51
1759.96
1692.26
1616.52
1533.98
1445.99
1354
1259.51
1163.94
1068.4
973.33
877.936
779.302
671.068
542.318
380.702
187.84
1841.21
1879.21
1904.31
1916.5
1915.9
1902.8
1877.6
1840.87
1793.33
1735.82
1669.31
1594.9
1513.8
1427.37
1337.02
1244.21
1150.33
1056.44
962.913
868.936
771.59
664.593
537.221
377.396
186.714
1841.21
1879.21
1904.31
1916.5
1915.91
1902.8
1877.6
1840.87
1793.33
1735.82
1669.31
1594.9
1513.81
1427.37
1337.02
1244.21
1150.33
1056.44
962.914
868.937
771.591
664.593
537.222
377.397
186.714
1867.88
1906.43
1931.85
1944.15
1943.46
1930.05
1904.34
1866.92
1818.51
1759.96
1692.26
1616.52
1533.98
1445.99
1354
1259.51
1163.94
1068.4
973.33
877.936
779.302
671.068
542.318
380.702
187.84
)
;

boundaryField
{
    outletCentralUnloaded
    {
        type            zeroGradient;
    }
    inletCentralUnloaded
    {
        type            zeroGradient;
    }
    outletFuelElement
    {
        type            zeroGradient;
    }
    inletFuelElement
    {
        type            zeroGradient;
    }
    defaultFaces
    {
        type            zeroGradient;
    }
    baffle_master
    {
        type            zeroGradient;
    }
    baffle_slave
    {
        type            zeroGradient;
    }
}


// ************************************************************************* //
