/*--------------------------------*- C++ -*----------------------------------*\
| =========                 |                                                 |
| \\      /  F ield         | OpenFOAM: The Open Source CFD Toolbox           |
|  \\    /   O peration     | Version:  2212                                  |
|   \\  /    A nd           | Website:  www.openfoam.com                      |
|    \\/     M anipulation  |                                                 |
\*---------------------------------------------------------------------------*/
FoamFile
{
    version     2.0;
    format      ascii;
    arch        "LSB;label=32;scalar=64";
    class       volScalarField;
    location    "70/fluidRegion";
    object      Tco.nuclearFuelPin;
}
// * * * * * * * * * * * * * * * * * * * * * * * * * * * * * * * * * * * * * //

dimensions      [0 0 0 1 0 0 0];

internalField   nonuniform List<scalar> 
350
(
0
0
0
0
0
0
0
0
0
0
0
0
0
0
0
0
0
0
0
0
0
0
0
0
0
0
0
0
0
0
0
0
0
0
0
0
0
0
0
0
0
0
0
0
0
0
0
0
0
0
1840.13
1866.89
1880.97
1882.56
1871.93
1849.52
1815.9
1771.78
1717.96
1655.4
1585.15
1508.37
1426.31
1340.32
1251.83
1162.26
1072.95
984.895
898.386
812.489
724.158
626.949
509.956
360.894
181.193
1868.51
1895.76
1910.11
1911.73
1900.92
1878.11
1843.89
1798.96
1744.16
1680.45
1608.9
1530.68
1447.07
1359.43
1269.21
1177.87
1086.8
997.034
908.936
821.603
731.987
633.563
515.203
364.318
182.351
1835.51
1862.22
1876.28
1877.88
1867.3
1844.97
1811.47
1767.48
1713.84
1651.47
1581.44
1504.9
1423.09
1337.37
1249.15
1159.87
1070.84
983.045
896.784
811.111
722.982
625.967
509.188
360.398
181.017
1862.13
1889.25
1903.52
1905.12
1894.34
1871.61
1837.51
1792.75
1738.17
1674.72
1603.45
1525.56
1442.29
1355.03
1265.2
1174.27
1083.6
994.228
906.496
819.494
730.175
632.031
513.986
363.523
182.083
1862.13
1889.25
1903.52
1905.12
1894.34
1871.61
1837.51
1792.75
1738.17
1674.72
1603.45
1525.56
1442.29
1355.03
1265.2
1174.27
1083.6
994.228
906.496
819.494
730.175
632.031
513.986
363.523
182.083
1835.52
1862.22
1876.28
1877.88
1867.3
1844.97
1811.47
1767.48
1713.84
1651.48
1581.44
1504.9
1423.09
1337.37
1249.15
1159.87
1070.84
983.045
896.785
811.112
722.982
625.968
509.189
360.398
181.017
1868.51
1895.76
1910.11
1911.73
1900.92
1878.11
1843.89
1798.96
1744.16
1680.45
1608.9
1530.68
1447.07
1359.43
1269.21
1177.87
1086.8
997.034
908.936
821.603
731.987
633.563
515.203
364.318
182.351
1840.13
1866.89
1880.97
1882.56
1871.93
1849.52
1815.9
1771.78
1717.96
1655.4
1585.15
1508.37
1426.31
1340.32
1251.83
1162.26
1072.95
984.895
898.386
812.489
724.158
626.95
509.956
360.894
181.193
1862.13
1889.25
1903.52
1905.12
1894.34
1871.61
1837.51
1792.75
1738.17
1674.72
1603.45
1525.56
1442.29
1355.03
1265.2
1174.27
1083.6
994.228
906.496
819.494
730.175
632.031
513.986
363.523
182.083
1835.51
1862.22
1876.28
1877.88
1867.3
1844.97
1811.47
1767.48
1713.84
1651.47
1581.44
1504.9
1423.09
1337.37
1249.15
1159.87
1070.84
983.045
896.784
811.111
722.982
625.967
509.188
360.398
181.017
1835.52
1862.22
1876.28
1877.88
1867.3
1844.97
1811.47
1767.48
1713.84
1651.48
1581.44
1504.9
1423.09
1337.37
1249.15
1159.87
1070.84
983.045
896.785
811.112
722.982
625.968
509.189
360.398
181.017
1862.13
1889.25
1903.52
1905.12
1894.34
1871.61
1837.51
1792.75
1738.17
1674.72
1603.45
1525.56
1442.29
1355.03
1265.2
1174.27
1083.6
994.227
906.496
819.494
730.175
632.031
513.986
363.523
182.083
)
;

boundaryField
{
    outletCentralUnloaded
    {
        type            zeroGradient;
    }
    inletCentralUnloaded
    {
        type            zeroGradient;
    }
    outletFuelElement
    {
        type            zeroGradient;
    }
    inletFuelElement
    {
        type            zeroGradient;
    }
    defaultFaces
    {
        type            zeroGradient;
    }
    baffle_master
    {
        type            zeroGradient;
    }
    baffle_slave
    {
        type            zeroGradient;
    }
}


// ************************************************************************* //
