/*--------------------------------*- C++ -*----------------------------------*\
| =========                 |                                                 |
| \\      /  F ield         | OpenFOAM: The Open Source CFD Toolbox           |
|  \\    /   O peration     | Version:  2212                                  |
|   \\  /    A nd           | Website:  www.openfoam.com                      |
|    \\/     M anipulation  |                                                 |
\*---------------------------------------------------------------------------*/
FoamFile
{
    version     2.0;
    format      ascii;
    arch        "LSB;label=32;scalar=64";
    class       volScalarField;
    location    "70/fluidRegion";
    object      Tfi.nuclearFuelPin;
}
// * * * * * * * * * * * * * * * * * * * * * * * * * * * * * * * * * * * * * //

dimensions      [0 0 0 1 0 0 0];

internalField   nonuniform List<scalar> 
350
(
0
0
0
0
0
0
0
0
0
0
0
0
0
0
0
0
0
0
0
0
0
0
0
0
0
0
0
0
0
0
0
0
0
0
0
0
0
0
0
0
0
0
0
0
0
0
0
0
0
0
2425.11
3613.53
4761.72
5851.97
6867.4
7792.26
8612.19
9314.41
9887.99
10324
10615.6
10758.2
10749.7
10590.2
10282.3
9830.96
9243.14
8527.72
7694.86
6755.49
5719.92
4596.72
3391.05
2107.89
766.651
2460.2
3662.41
4823.85
5926.61
6953.61
7888.92
8718.02
9427.99
10007.8
10448.3
10742.8
10886.5
10877.2
10715.3
10403.1
9945.87
9350.57
8626.26
7783.26
6832.68
5784.97
4648.8
3429.3
2131.33
774.515
2419.44
3605.68
4751.78
5840.05
6853.66
7776.88
8595.36
9296.36
9868.97
10304.2
10595.4
10737.9
10729.5
10570.4
10263.2
9812.75
9226.12
8512.11
7680.86
6743.27
5709.63
4588.49
3385.03
2104.21
765.408
2452.27
3651.29
4809.67
5909.53
6933.86
7866.75
8693.72
9401.9
9980.25
10419.7
10713.5
10857
10847.9
10686.5
10375.3
9919.4
9325.83
8603.57
7762.9
6814.9
5769.99
4636.8
3420.49
2125.93
772.704
2452.27
3651.29
4809.67
5909.53
6933.85
7866.75
8693.72
9401.9
9980.25
10419.7
10713.5
10857
10847.9
10686.5
10375.3
9919.4
9325.83
8603.56
7762.9
6814.9
5769.99
4636.8
3420.49
2125.93
772.704
2419.44
3605.68
4751.78
5840.05
6853.66
7776.88
8595.36
9296.36
9868.97
10304.2
10595.4
10737.9
10729.5
10570.4
10263.2
9812.75
9226.12
8512.11
7680.86
6743.27
5709.63
4588.49
3385.03
2104.21
765.408
2460.2
3662.41
4823.85
5926.61
6953.61
7888.92
8718.02
9427.99
10007.8
10448.3
10742.8
10886.5
10877.2
10715.3
10403.1
9945.87
9350.57
8626.26
7783.26
6832.68
5784.97
4648.8
3429.3
2131.33
774.515
2425.11
3613.53
4761.72
5851.97
6867.4
7792.26
8612.19
9314.41
9887.99
10324
10615.6
10758.2
10749.7
10590.2
10282.3
9830.96
9243.14
8527.72
7694.86
6755.49
5719.92
4596.72
3391.05
2107.89
766.652
2452.27
3651.29
4809.67
5909.53
6933.85
7866.75
8693.72
9401.9
9980.25
10419.7
10713.5
10857
10847.9
10686.5
10375.3
9919.4
9325.83
8603.56
7762.9
6814.9
5769.99
4636.8
3420.49
2125.93
772.704
2419.44
3605.68
4751.78
5840.05
6853.66
7776.88
8595.36
9296.36
9868.97
10304.2
10595.4
10737.9
10729.5
10570.4
10263.2
9812.75
9226.12
8512.11
7680.86
6743.27
5709.63
4588.49
3385.03
2104.21
765.408
2419.44
3605.68
4751.78
5840.05
6853.66
7776.88
8595.36
9296.36
9868.97
10304.2
10595.4
10737.9
10729.5
10570.4
10263.2
9812.75
9226.12
8512.11
7680.86
6743.27
5709.63
4588.49
3385.03
2104.21
765.408
2452.27
3651.29
4809.67
5909.53
6933.85
7866.75
8693.72
9401.9
9980.25
10419.7
10713.5
10857
10847.9
10686.5
10375.3
9919.4
9325.83
8603.56
7762.9
6814.9
5769.99
4636.8
3420.49
2125.93
772.704
)
;

boundaryField
{
    outletCentralUnloaded
    {
        type            zeroGradient;
    }
    inletCentralUnloaded
    {
        type            zeroGradient;
    }
    outletFuelElement
    {
        type            zeroGradient;
    }
    inletFuelElement
    {
        type            zeroGradient;
    }
    defaultFaces
    {
        type            zeroGradient;
    }
    baffle_master
    {
        type            zeroGradient;
    }
    baffle_slave
    {
        type            zeroGradient;
    }
}


// ************************************************************************* //
