/*--------------------------------*- C++ -*----------------------------------*\
| =========                 |                                                 |
| \\      /  F ield         | OpenFOAM: The Open Source CFD Toolbox           |
|  \\    /   O peration     | Version:  2212                                  |
|   \\  /    A nd           | Website:  www.openfoam.com                      |
|    \\/     M anipulation  |                                                 |
\*---------------------------------------------------------------------------*/
FoamFile
{
    version     2.0;
    format      ascii;
    arch        "LSB;label=32;scalar=64";
    class       volScalarField;
    location    "70/fluidRegion";
    object      Tfo.nuclearFuelPin;
}
// * * * * * * * * * * * * * * * * * * * * * * * * * * * * * * * * * * * * * //

dimensions      [0 0 0 1 0 0 0];

internalField   nonuniform List<scalar> 
350
(
0
0
0
0
0
0
0
0
0
0
0
0
0
0
0
0
0
0
0
0
0
0
0
0
0
0
0
0
0
0
0
0
0
0
0
0
0
0
0
0
0
0
0
0
0
0
0
0
0
0
2022.67
2411.89
2779.84
3121.1
3430.62
3703.78
3936.48
4125.22
4267.17
4360.16
4402.81
4394.49
4335.37
4226.45
4069.51
3867.05
3622.2
3338.39
3019.01
2666.81
2282.93
1865.59
1408.91
905.99
363.865
2053.15
2447.01
2819.27
3164.46
3477.46
3753.61
3988.76
4179.37
4322.57
4416.2
4458.84
4449.86
4389.46
4278.62
4119.16
3913.65
3665.25
3377.49
3053.85
2697.17
2308.61
1886.39
1424.45
915.658
367.115
2017.73
2406.23
2773.51
3114.16
3423.15
3695.85
3928.18
4116.64
4258.4
4351.3
4393.96
4385.75
4326.85
4218.23
4061.69
3859.72
3615.43
3332.25
3013.54
2662.05
2278.91
1862.35
1406.5
904.499
363.356
2046.29
2439.06
2810.31
3154.58
3466.77
3742.21
3976.79
4166.96
4309.86
4403.33
4445.96
4437.13
4377.01
4266.61
4107.73
3902.91
3655.33
3368.48
3045.82
2690.17
2302.69
1881.59
1420.87
913.425
366.366
2046.29
2439.06
2810.31
3154.58
3466.77
3742.21
3976.78
4166.95
4309.86
4403.33
4445.96
4437.13
4377.01
4266.61
4107.73
3902.91
3655.33
3368.48
3045.82
2690.17
2302.69
1881.59
1420.87
913.425
366.366
2017.73
2406.23
2773.51
3114.17
3423.15
3695.85
3928.18
4116.64
4258.4
4351.3
4393.96
4385.75
4326.85
4218.23
4061.69
3859.73
3615.43
3332.25
3013.54
2662.05
2278.91
1862.35
1406.5
904.5
363.356
2053.15
2447.01
2819.27
3164.46
3477.46
3753.61
3988.75
4179.37
4322.57
4416.2
4458.84
4449.86
4389.46
4278.62
4119.16
3913.65
3665.25
3377.49
3053.85
2697.17
2308.61
1886.39
1424.45
915.658
367.115
2022.67
2411.89
2779.84
3121.1
3430.62
3703.78
3936.48
4125.22
4267.17
4360.16
4402.81
4394.49
4335.37
4226.45
4069.51
3867.05
3622.2
3338.39
3019.01
2666.81
2282.93
1865.59
1408.91
905.99
363.865
2046.29
2439.06
2810.31
3154.58
3466.77
3742.21
3976.79
4166.95
4309.86
4403.33
4445.96
4437.13
4377.01
4266.61
4107.73
3902.91
3655.33
3368.48
3045.82
2690.17
2302.69
1881.59
1420.87
913.425
366.366
2017.73
2406.23
2773.51
3114.17
3423.15
3695.85
3928.18
4116.64
4258.4
4351.3
4393.96
4385.75
4326.85
4218.23
4061.69
3859.72
3615.43
3332.25
3013.54
2662.05
2278.91
1862.35
1406.5
904.499
363.356
2017.73
2406.23
2773.51
3114.17
3423.15
3695.85
3928.18
4116.64
4258.4
4351.3
4393.96
4385.75
4326.85
4218.23
4061.69
3859.72
3615.43
3332.25
3013.54
2662.05
2278.91
1862.35
1406.5
904.5
363.356
2046.29
2439.06
2810.31
3154.58
3466.77
3742.21
3976.78
4166.95
4309.86
4403.33
4445.96
4437.13
4377.01
4266.61
4107.72
3902.91
3655.33
3368.48
3045.82
2690.17
2302.69
1881.59
1420.87
913.425
366.366
)
;

boundaryField
{
    outletCentralUnloaded
    {
        type            zeroGradient;
    }
    inletCentralUnloaded
    {
        type            zeroGradient;
    }
    outletFuelElement
    {
        type            zeroGradient;
    }
    inletFuelElement
    {
        type            zeroGradient;
    }
    defaultFaces
    {
        type            zeroGradient;
    }
    baffle_master
    {
        type            zeroGradient;
    }
    baffle_slave
    {
        type            zeroGradient;
    }
}


// ************************************************************************* //
