/*--------------------------------*- C++ -*----------------------------------*\
| =========                 |                                                 |
| \\      /  F ield         | OpenFOAM: The Open Source CFD Toolbox           |
|  \\    /   O peration     | Version:  2212                                  |
|   \\  /    A nd           | Website:  www.openfoam.com                      |
|    \\/     M anipulation  |                                                 |
\*---------------------------------------------------------------------------*/
FoamFile
{
    version     2.0;
    format      ascii;
    arch        "LSB;label=32;scalar=64";
    class       scalarFieldField;
    location    "70/fluidRegion";
    object      Trad.nuclearFuelPin;
}
// * * * * * * * * * * * * * * * * * * * * * * * * * * * * * * * * * * * * * //


350
(
0()
0()
0()
0()
0()
0()
0()
0()
0()
0()
0()
0()
0()
0()
0()
0()
0()
0()
0()
0()
0()
0()
0()
0()
0()
0()
0()
0()
0()
0()
0()
0()
0()
0()
0()
0()
0()
0()
0()
0()
0()
0()
0()
0()
0()
0()
0()
0()
0()
0()

20
(
2425.11
2423.33
2417.96
2409.02
2396.5
2380.4
2360.73
2337.48
2310.66
2280.25
2246.27
2208.71
2167.57
2122.85
2074.55
2022.67
1851.94
1847.87
1843.94
1840.13
)


20
(
3613.53
3608.19
3592.17
3565.47
3528.09
3480.02
3421.28
3351.85
3271.74
3180.96
3079.49
2967.33
2844.5
2710.98
2566.78
2411.89
1902.15
1890.01
1878.26
1866.89
)


20
(
4761.72
4752.91
4726.49
4682.45
4620.79
4541.52
4444.63
4330.12
4198
4048.26
3880.9
3695.92
3493.33
3273.12
3035.29
2779.84
1939.14
1919.11
1899.73
1880.97
)


20
(
5851.97
5839.83
5803.42
5742.74
5657.78
5548.55
5415.04
5257.26
5075.2
4868.87
4638.27
4383.39
4104.23
3800.8
3473.09
3121.1
1962.7
1935.1
1908.41
1882.56
)


20
(
6867.4
6852.13
6806.3
6729.93
6623.01
6485.54
6317.53
6118.96
5889.84
5630.18
5339.96
5019.19
4667.88
4286.01
3873.59
3430.62
1972.79
1938.06
1904.46
1871.93
)


20
(
7792.26
7774.09
7719.58
7628.73
7501.53
7338
7138.12
6901.89
6629.33
6320.42
5975.18
5593.58
5175.65
4721.37
4230.75
3703.78
1969.51
1928.19
1888.23
1849.52
)


20
(
8612.19
8591.41
8529.07
8425.16
8279.7
8092.67
7864.08
7593.93
7282.22
6928.95
6534.11
6097.71
5619.75
5100.22
4539.13
3936.48
1953.12
1905.87
1860.17
1815.9
)


20
(
9314.41
9291.35
9222.16
9106.85
8945.41
8737.84
8484.15
8184.33
7838.39
7446.32
7008.12
6523.8
5993.35
5416.77
4794.06
4125.22
1924.06
1871.63
1820.9
1771.78
)


20
(
9887.99
9863.01
9788.07
9663.16
9488.3
9263.46
8988.67
8663.91
8289.19
7864.51
7389.86
6865.25
6290.68
5666.14
4991.64
4267.17
1882.91
1826.12
1771.17
1717.96
)


20
(
10324
10297.5
10218
10085.4
9899.89
9661.34
9369.78
9025.2
8627.62
8177.02
7673.41
7116.79
6507.15
5844.5
5128.84
4360.16
1830.42
1770.16
1711.86
1655.4
)


20
(
10615.6
10588
10505.1
10367.1
10173.8
9925.27
9621.53
9262.58
8848.39
8378.99
7854.36
7274.5
6639.42
5949.11
5203.57
4402.81
1767.48
1704.7
1643.97
1585.15
)


20
(
10758.2
10729.9
10645.1
10503.7
10305.7
10051.1
9740.01
9372.33
8948.09
8467.28
7929.9
7335.95
6685.44
5978.36
5214.71
4394.49
1695.12
1630.82
1568.61
1508.37
)


20
(
10749.7
10721.2
10635.6
10493.1
10293.6
10037
9723.4
9352.79
8925.17
8440.54
7898.89
7300.22
6644.53
5931.83
5162.11
4335.37
1614.55
1549.73
1487.03
1426.31
)


20
(
10590.2
10561.9
10477.1
10335.6
10137.7
9883.11
9572
9204.32
8780.07
8299.25
7761.87
7167.92
6517.41
5810.32
5046.67
4226.45
1527.07
1462.77
1400.56
1340.32
)


20
(
10282.3
10254.7
10171.9
10033.8
9840.52
9592.01
9288.27
8929.31
8515.13
8045.71
7521.08
6941.22
6306.13
5615.81
4870.27
4069.51
1434.15
1371.37
1310.64
1251.83
)


20
(
9830.96
9804.45
9724.93
9592.4
9406.86
9168.3
8876.74
8532.16
8134.56
7683.96
7180.34
6623.71
6014.07
5351.41
4635.74
3867.05
1337.28
1277.02
1218.72
1162.26
)


20
(
9243.14
9218.16
9143.21
9018.3
8843.43
8618.59
8343.79
8019.03
7644.3
7219.61
6744.95
6220.33
5645.75
5021.2
4346.68
3622.2
1237.91
1181.11
1126.16
1072.95
)


20
(
8527.72
8504.66
8435.47
8320.15
8158.7
7951.13
7697.43
7397.61
7051.65
6659.57
6221.36
5737.02
5206.56
4629.97
4007.24
3338.39
1137.18
1084.75
1034.02
984.895
)


20
(
7694.86
7674.08
7611.74
7507.83
7362.36
7175.32
6946.73
6676.57
6364.85
6011.56
5616.71
5180.3
4702.32
4182.78
3621.68
3019.01
1035.61
988.359
942.652
898.386
)


20
(
6755.49
6737.32
6682.8
6591.94
6464.74
6301.19
6101.3
5865.07
5592.49
5283.57
4938.3
4556.7
4138.74
3684.44
3193.8
2666.81
932.477
891.164
851.196
812.489
)


20
(
5719.92
5704.64
5658.81
5582.44
5475.51
5338.03
5170
4971.42
4742.29
4482.6
4192.37
3871.58
3520.25
3138.36
2725.92
2282.93
825.021
790.292
756.695
724.158
)


20
(
4596.72
4584.58
4548.16
4487.47
4402.5
4293.26
4159.74
4001.94
3819.87
3613.52
3382.89
3127.98
2848.8
2545.34
2217.6
1865.59
707.098
679.502
652.804
626.949
)


20
(
3391.05
3382.24
3355.81
3311.76
3250.1
3170.81
3073.91
2959.39
2827.24
2677.48
2510.1
2325.1
2122.48
1902.25
1664.39
1408.91
568.125
548.096
528.72
509.956
)


20
(
2107.89
2102.55
2086.53
2059.82
2022.43
1974.35
1915.59
1846.15
1766.02
1675.21
1573.72
1461.54
1338.68
1205.13
1060.9
905.99
396.166
384.021
372.272
360.894
)


20
(
766.651
764.861
759.491
750.54
738.009
721.897
702.205
678.933
652.081
621.648
587.635
550.041
508.868
464.114
415.78
363.865
193.013
188.944
185.006
181.193
)


20
(
2460.2
2458.39
2452.96
2443.92
2431.26
2414.98
2395.08
2371.56
2344.43
2313.68
2279.31
2241.31
2199.7
2154.47
2105.62
2053.15
1880.46
1876.35
1872.37
1868.51
)


20
(
3662.41
3657.01
3640.8
3613.79
3575.98
3527.37
3467.95
3397.73
3316.71
3224.88
3122.25
3008.81
2884.57
2749.52
2603.67
2447.01
1931.43
1919.15
1907.27
1895.76
)


20
(
4823.85
4814.94
4788.21
4743.67
4681.31
4601.12
4503.13
4387.31
4253.67
4102.21
3932.94
3745.85
3540.93
3318.2
3077.64
2819.27
1968.94
1948.68
1929.08
1910.11
)


20
(
5926.61
5914.33
5877.5
5816.12
5730.19
5619.71
5484.67
5325.08
5140.94
4932.25
4699
4441.2
4158.85
3851.94
3520.48
3164.46
1992.79
1964.88
1937.88
1911.73
)


20
(
6953.61
6938.16
6891.81
6814.57
6706.42
6567.38
6397.43
6196.59
5964.85
5702.21
5408.67
5084.23
4728.89
4342.65
3925.51
3477.46
2002.93
1967.81
1933.83
1900.92
)


20
(
7888.92
7870.55
7815.41
7723.51
7594.86
7429.45
7227.28
6988.36
6712.67
6400.23
6051.02
5665.06
5242.34
4782.85
4286.61
3753.61
1999.47
1957.69
1917.26
1878.11
)


20
(
8718.02
8697
8633.95
8528.85
8381.72
8192.55
7961.35
7688.1
7372.82
7015.5
6616.14
6174.74
5691.3
5165.83
4598.31
3988.76
1982.68
1934.89
1888.66
1843.89
)


20
(
9427.99
9404.67
9334.69
9218.05
9054.76
8844.82
8588.22
8284.97
7935.06
7538.5
7095.29
6605.41
6068.89
5485.7
4855.86
4179.37
1952.99
1899.95
1848.65
1798.96
)


20
(
10007.8
9982.51
9906.71
9780.37
9603.5
9376.1
9098.15
8769.68
8390.67
7961.12
7481.03
6950.42
6369.26
5737.57
5055.34
4322.57
1911
1853.56
1797.98
1744.16
)


20
(
10448.3
10421.5
10341.1
10207
10019.4
9778.1
9483.2
9134.67
8732.53
8276.77
7767.4
7204.4
6587.78
5917.54
5193.68
4416.2
1857.48
1796.52
1737.56
1680.45
)


20
(
10742.8
10714.8
10631
10491.4
10295.9
10044.5
9737.34
9374.27
8955.34
8480.56
7949.92
7363.42
6721.06
6022.85
5268.77
4458.84
1793.31
1729.82
1668.39
1608.9
)


20
(
10886.5
10857.9
10772
10629
10428.8
10171.3
9856.62
9484.73
9055.62
8569.3
8025.77
7425.02
6767.05
6051.87
5279.48
4449.86
1719.58
1654.54
1591.62
1530.68
)


20
(
10877.2
10848.4
10761.9
10617.7
10415.9
10156.4
9839.2
9464.35
9031.83
8541.65
7993.79
7388.26
6725.07
6004.2
5225.67
4389.46
1637.46
1571.91
1508.49
1447.07
)


20
(
10715.3
10686.6
10600.8
10457.8
10257.5
10000.1
9685.4
9313.51
8884.4
8398.08
7854.54
7253.79
6595.82
5880.64
5108.24
4278.62
1548.32
1483.28
1420.36
1359.43
)


20
(
10403.1
10375.2
10291.4
10151.8
9956.28
9704.93
9397.71
9034.64
8615.71
8140.92
7610.27
7023.77
6381.41
5683.18
4929.1
4119.16
1453.62
1390.12
1328.7
1269.21
)


20
(
9945.87
9919.06
9838.63
9704.58
9516.91
9275.62
8980.72
8632.19
8230.04
7774.28
7264.89
6701.88
6085.26
5415.01
4691.14
3913.65
1354.9
1293.95
1234.98
1177.87
)


20
(
9350.57
9325.31
9249.5
9123.16
8946.29
8718.87
8440.93
8112.44
7733.42
7303.86
6823.77
6293.14
5711.97
5080.27
4398.03
3665.25
1253.64
1196.2
1140.62
1086.8
)


20
(
8626.26
8602.93
8532.95
8416.31
8253.02
8043.07
7786.46
7483.2
7133.28
6736.71
6293.48
5803.6
5267.06
4683.86
4054
3377.49
1151.07
1098.03
1046.72
997.034
)


20
(
7783.26
7762.24
7699.18
7594.09
7446.95
7257.78
7026.56
6753.31
6438.01
6080.68
5681.31
5239.9
4756.45
4230.95
3663.42
3053.85
1047.73
999.939
953.708
908.936
)


20
(
6832.68
6814.3
6759.16
6667.26
6538.6
6373.18
6171
5932.06
5656.36
5343.9
4994.68
4608.7
4185.96
3726.45
3230.19
2697.17
942.965
901.178
860.753
821.603
)


20
(
5784.97
5769.52
5723.17
5645.92
5537.77
5398.71
5228.76
5027.9
4796.14
4533.49
4239.93
3915.47
3560.11
3173.84
2756.68
2308.61
834.006
798.88
764.897
731.987
)


20
(
4648.8
4636.53
4599.69
4538.31
4452.37
4341.87
4206.82
4047.21
3863.05
3654.34
3421.07
3163.24
2880.86
2573.93
2242.44
1886.39
714.63
686.717
659.714
633.563
)


20
(
3429.3
3420.39
3393.66
3349.11
3286.73
3206.54
3108.53
2992.69
2859.03
2707.56
2538.26
2351.14
2146.2
1923.44
1682.86
1424.45
574.038
553.78
534.182
515.203
)


20
(
2131.33
2125.93
2109.72
2082.7
2044.88
1996.26
1936.82
1866.58
1785.54
1693.69
1591.03
1477.57
1353.3
1218.23
1072.34
915.658
399.994
387.71
375.826
364.318
)


20
(
774.515
772.704
767.272
758.219
745.544
729.248
709.331
685.792
658.632
627.851
593.448
555.424
513.779
468.512
419.624
367.115
194.306
190.19
186.208
182.351
)


20
(
2419.44
2417.65
2412.3
2403.37
2390.88
2374.81
2355.17
2331.97
2305.19
2274.84
2240.92
2203.42
2162.36
2117.72
2069.51
2017.73
1847.3
1843.24
1839.32
1835.51
)


20
(
3605.68
3600.35
3584.36
3557.7
3520.39
3472.41
3413.77
3344.48
3264.51
3173.89
3072.61
2960.66
2838.04
2704.77
2560.83
2406.23
1897.42
1885.3
1873.57
1862.22
)


20
(
4751.78
4742.98
4716.61
4672.65
4611.1
4531.98
4435.26
4320.96
4189.08
4039.61
3872.56
3687.92
3485.7
3265.89
3028.49
2773.51
1934.34
1914.35
1895.01
1876.28
)


20
(
5840.05
5827.94
5791.59
5731.02
5646.22
5537.18
5403.92
5246.43
5064.7
4858.75
4628.56
4374.15
4095.5
3792.62
3465.51
3114.16
1957.88
1930.33
1903.68
1877.88
)


20
(
6853.66
6838.41
6792.67
6716.44
6609.72
6472.5
6304.79
6106.58
5877.88
5618.69
5329
5008.82
4658.15
4276.98
3865.31
3423.15
1967.97
1933.31
1899.78
1867.3
)


20
(
7776.88
7758.74
7704.33
7613.64
7486.67
7323.43
7123.92
6888.13
6616.06
6307.72
5963.1
5582.2
5165.03
4711.58
4221.85
3695.85
1964.74
1923.5
1883.61
1844.97
)


20
(
8595.36
8574.61
8512.38
8408.67
8263.47
8076.79
7848.62
7578.96
7267.81
6915.18
6521.07
6085.46
5608.37
5089.8
4529.73
3928.18
1948.43
1901.27
1855.65
1811.47
)


20
(
9296.36
9273.34
9204.28
9089.18
8928.03
8720.84
8467.61
8168.34
7823.03
7431.68
6994.28
6510.84
5981.35
5405.83
4784.25
4116.64
1919.49
1867.15
1816.52
1767.48
)


20
(
9868.97
9844.03
9769.23
9644.55
9470
9245.58
8971.29
8647.12
8273.09
7849.18
7375.4
6851.74
6278.22
5654.82
4981.54
4258.4
1878.49
1821.8
1766.95
1713.84
)


20
(
10304.2
10277.8
10198.4
10066.1
9880.93
9642.81
9351.78
9007.84
8610.97
8161.2
7658.51
7102.9
6494.37
5832.93
5118.58
4351.3
1826.17
1766.02
1707.83
1651.47
)


20
(
10595.4
10567.8
10485.1
10347.3
10154.4
9906.34
9603.16
9244.86
8831.44
8362.89
7839.21
7260.41
6626.49
5937.44
5193.26
4393.96
1763.43
1700.77
1640.15
1581.44
)


20
(
10737.9
10709.6
10624.9
10483.8
10286.2
10032.1
9721.53
9354.52
8931.05
8451.11
7914.71
7321.85
6672.52
5966.73
5204.47
4385.75
1691.31
1627.12
1565.03
1504.9
)


20
(
10729.5
10701
10615.6
10473.4
10274.2
10018.1
9705.04
9335.12
8908.28
8424.53
7883.86
7286.29
6631.8
5920.39
5152.08
4326.85
1610.98
1546.29
1483.7
1423.09
)


20
(
10570.4
10542.1
10457.4
10316.3
10118.7
9864.58
9554.03
9187.02
8763.55
8283.61
7747.21
7154.34
6505.01
5799.22
5036.96
4218.23
1523.78
1459.6
1397.5
1337.37
)


20
(
10263.2
10235.6
10152.9
10015.1
9822.18
9574.12
9270.94
8912.63
8499.2
8030.65
7506.97
6928.16
6294.23
5605.18
4861
4061.69
1431.14
1368.48
1307.86
1249.15
)


20
(
9812.75
9786.29
9706.92
9574.63
9389.43
9151.31
8860.27
8516.32
8119.45
7669.67
7166.97
6611.35
6002.82
5341.37
4627.01
3859.72
1334.57
1274.41
1216.22
1159.87
)


20
(
9226.12
9201.18
9126.37
9001.69
8827.14
8602.71
8328.41
8004.24
7630.2
7206.28
6732.49
6208.83
5635.29
5011.88
4338.59
3615.43
1235.49
1178.8
1123.95
1070.84
)


20
(
8512.11
8489.09
8420.03
8304.92
8143.77
7936.58
7683.34
7384.06
7038.74
6647.37
6209.96
5726.51
5197.01
4621.47
3999.88
3332.25
1135.06
1082.72
1032.08
983.045
)


20
(
7680.86
7660.12
7597.89
7494.17
7348.97
7162.27
6934.09
6664.43
6353.27
6000.63
5606.5
5170.89
4693.78
4175.19
3615.11
3013.54
1033.75
986.593
940.969
896.784
)


20
(
6743.27
6725.13
6670.71
6580.02
6453.05
6289.8
6090.28
5854.47
5582.39
5274.04
4929.4
4548.49
4131.3
3677.83
3188.08
2662.05
930.88
889.642
849.747
811.111
)


20
(
5709.63
5694.38
5648.64
5572.4
5465.67
5328.44
5160.71
4962.5
4733.78
4474.57
4184.87
3864.67
3513.97
3132.78
2721.09
2278.91
823.661
788.996
755.459
722.982
)


20
(
4588.49
4576.38
4540.03
4479.45
4394.63
4285.59
4152.31
3994.8
3813.06
3607.08
3376.88
3122.44
2843.76
2540.86
2213.72
1862.35
705.97
678.423
651.775
625.967
)


20
(
3385.03
3376.23
3349.85
3305.89
3244.33
3165.19
3068.46
2954.15
2822.25
2672.76
2505.69
2321.02
2118.77
1898.94
1661.51
1406.5
567.251
547.259
527.918
509.188
)


20
(
2104.21
2098.88
2082.88
2056.22
2018.9
1970.91
1912.26
1842.94
1762.96
1672.32
1571.01
1459.03
1336.4
1203.1
1059.13
904.499
395.605
383.483
371.755
360.398
)


20
(
765.408
763.621
758.26
749.326
736.817
720.735
701.079
677.849
651.046
620.669
586.718
549.193
508.094
463.422
415.176
363.356
192.816
188.754
184.823
181.017
)


20
(
2452.27
2450.47
2445.06
2436.04
2423.41
2407.17
2387.32
2363.87
2336.81
2306.13
2271.85
2233.96
2192.46
2147.35
2098.62
2046.29
1874.05
1869.94
1865.97
1862.13
)


20
(
3651.29
3645.9
3629.74
3602.81
3565.09
3516.61
3457.34
3387.31
3306.49
3214.9
3112.54
2999.4
2875.48
2740.78
2595.31
2439.06
1924.83
1912.58
1900.73
1889.25
)


20
(
4809.67
4800.78
4774.13
4729.7
4667.5
4587.52
4489.78
4374.26
4240.98
4089.92
3921.08
3734.47
3530.09
3307.94
3068.01
2810.31
1962.2
1941.99
1922.45
1903.52
)


20
(
5909.53
5897.29
5860.56
5799.34
5713.63
5603.43
5468.75
5309.58
5125.92
4917.77
4685.13
4428
4146.38
3840.27
3509.67
3154.58
1985.97
1958.13
1931.2
1905.12
)


20
(
6933.86
6918.45
6872.22
6795.17
6687.31
6548.63
6379.13
6178.81
5947.68
5685.72
5392.95
5069.35
4714.94
4329.7
3913.65
3466.77
1996.08
1961.05
1927.16
1894.34
)


20
(
7866.75
7848.42
7793.43
7701.77
7573.45
7408.48
7206.83
6968.53
6693.56
6381.93
6033.64
5648.68
5227.06
4768.78
4273.83
3742.21
1992.65
1950.97
1910.65
1871.61
)


20
(
8693.72
8672.76
8609.87
8505.05
8358.3
8169.62
7939.02
7666.49
7352.03
6995.64
6597.32
6157.07
5674.9
5150.79
4584.75
3976.79
1975.94
1928.27
1882.17
1837.51
)


20
(
9401.9
9378.63
9308.83
9192.5
9029.64
8820.24
8564.32
8261.85
7912.86
7517.33
7075.27
6586.68
6051.55
5469.89
4841.69
4166.96
1946.38
1893.48
1842.31
1792.75
)


20
(
9980.25
9955.04
9879.44
9753.43
9577.02
9350.21
9072.99
8745.37
8367.35
7938.92
7460.09
6930.85
6351.21
5721.16
5040.71
4309.86
1904.58
1847.28
1791.85
1738.17
)


20
(
10419.7
10393
10312.8
10179.1
9991.9
9751.25
9457.12
9109.5
8708.41
8253.84
7745.79
7184.26
6569.25
5900.75
5178.78
4403.33
1851.28
1790.48
1731.67
1674.72
)


20
(
10713.5
10685.6
10602.1
10462.8
10267.8
10017.1
9710.7
9348.58
8930.74
8457.2
7927.94
7342.97
6702.29
6005.89
5253.78
4445.96
1787.39
1724.06
1662.79
1603.45
)


20
(
10857
10828.4
10742.8
10600.2
10400.4
10143.6
9829.79
9458.87
9030.88
8545.83
8003.71
7404.53
6748.28
6034.96
5264.58
4437.13
1713.96
1649.09
1586.33
1525.56
)


20
(
10847.9
10819.1
10732.8
10589
10387.7
10128.9
9812.54
9438.67
9007.28
8518.38
7971.95
7368
6706.53
5987.55
5211.04
4377.01
1632.19
1566.81
1503.55
1442.29
)


20
(
10686.5
10657.9
10572.3
10429.7
10229.9
9973.15
9659.29
9288.37
8860.38
8375.33
7833.21
7234.02
6577.77
5864.45
5094.06
4266.61
1543.43
1478.56
1415.8
1355.03
)


20
(
10375.3
10347.5
10263.9
10124.6
9929.63
9678.93
9372.51
9010.38
8592.55
8119
7589.73
7004.76
6364.07
5667.67
4915.55
4107.73
1449.13
1385.8
1324.53
1265.2
)


20
(
9919.4
9892.66
9812.45
9678.75
9491.57
9250.91
8956.77
8609.15
8208.05
7753.48
7245.42
6683.88
6068.86
5400.36
4678.38
3902.91
1350.83
1290.04
1231.23
1174.27
)


20
(
9325.83
9300.63
9225.02
9099.01
8922.6
8695.78
8418.56
8090.93
7712.89
7284.46
6805.62
6276.37
5696.72
5066.66
4386.2
3655.33
1250.01
1192.71
1137.28
1083.6
)


20
(
8603.57
8580.3
8510.5
8394.16
8231.3
8021.89
7765.96
7463.49
7114.48
6718.94
6276.87
5788.26
5253.12
4671.44
4043.23
3368.48
1147.86
1094.96
1043.79
994.228
)


20
(
7762.9
7741.94
7679.04
7574.22
7427.47
7238.78
7008.17
6735.63
6421.16
6064.76
5666.43
5226.17
4743.98
4219.85
3653.8
3045.82
1044.93
997.262
951.151
906.496
)


20
(
6814.9
6796.57
6741.57
6649.91
6521.58
6356.6
6154.94
5916.63
5641.65
5330
4981.69
4596.72
4175.08
3716.77
3221.8
2690.17
940.54
898.862
858.542
819.494
)


20
(
5769.99
5754.58
5708.35
5631.29
5523.42
5384.73
5215.22
5014.89
4783.74
4521.76
4228.97
3905.36
3550.92
3165.66
2749.59
2302.69
831.928
796.893
762.999
730.175
)


20
(
4636.8
4624.56
4587.82
4526.6
4440.88
4330.67
4195.97
4036.78
3853.1
3644.93
3412.27
3155.12
2873.47
2567.34
2236.71
1881.59
712.887
685.047
658.114
632.031
)


20
(
3420.49
3411.6
3384.94
3340.5
3278.29
3198.31
3100.55
2985.02
2851.71
2700.63
2531.77
2345.14
2140.73
1918.55
1678.6
1420.87
572.668
552.463
532.916
513.986
)


20
(
2125.93
2120.54
2104.37
2077.43
2039.71
1991.21
1931.93
1861.87
1781.04
1689.43
1587.04
1473.87
1349.93
1215.2
1069.7
913.425
399.106
386.854
375.001
363.523
)


20
(
772.704
770.898
765.48
756.45
743.808
727.555
707.689
684.212
657.123
626.421
592.108
554.184
512.647
467.498
418.738
366.366
194.008
189.902
185.93
182.083
)


20
(
2452.27
2450.47
2445.06
2436.04
2423.41
2407.17
2387.32
2363.87
2336.81
2306.13
2271.85
2233.96
2192.46
2147.35
2098.62
2046.29
1874.05
1869.94
1865.97
1862.13
)


20
(
3651.29
3645.9
3629.74
3602.81
3565.09
3516.61
3457.34
3387.31
3306.49
3214.9
3112.54
2999.4
2875.48
2740.78
2595.31
2439.06
1924.83
1912.58
1900.73
1889.25
)


20
(
4809.67
4800.78
4774.13
4729.7
4667.5
4587.52
4489.78
4374.26
4240.98
4089.92
3921.08
3734.48
3530.09
3307.94
3068.01
2810.31
1962.2
1941.99
1922.45
1903.52
)


20
(
5909.53
5897.29
5860.56
5799.34
5713.63
5603.43
5468.75
5309.58
5125.92
4917.77
4685.13
4428
4146.38
3840.27
3509.67
3154.58
1985.97
1958.13
1931.2
1905.12
)


20
(
6933.85
6918.45
6872.22
6795.17
6687.31
6548.63
6379.13
6178.81
5947.68
5685.72
5392.95
5069.35
4714.94
4329.7
3913.65
3466.77
1996.08
1961.05
1927.16
1894.34
)


20
(
7866.75
7848.42
7793.43
7701.77
7573.45
7408.47
7206.83
6968.53
6693.56
6381.93
6033.64
5648.68
5227.06
4768.78
4273.83
3742.21
1992.65
1950.97
1910.65
1871.61
)


20
(
8693.72
8672.76
8609.87
8505.05
8358.3
8169.62
7939.02
7666.49
7352.03
6995.64
6597.32
6157.07
5674.9
5150.79
4584.75
3976.78
1975.94
1928.27
1882.17
1837.51
)


20
(
9401.9
9378.63
9308.83
9192.5
9029.64
8820.24
8564.32
8261.85
7912.86
7517.33
7075.27
6586.68
6051.55
5469.89
4841.69
4166.95
1946.38
1893.48
1842.31
1792.75
)


20
(
9980.25
9955.04
9879.44
9753.43
9577.02
9350.21
9072.99
8745.37
8367.35
7938.92
7460.09
6930.85
6351.21
5721.16
5040.71
4309.86
1904.58
1847.28
1791.85
1738.17
)


20
(
10419.7
10393
10312.8
10179.1
9991.9
9751.25
9457.12
9109.5
8708.41
8253.84
7745.79
7184.26
6569.25
5900.75
5178.78
4403.33
1851.28
1790.48
1731.67
1674.72
)


20
(
10713.5
10685.6
10602.1
10462.8
10267.8
10017.1
9710.7
9348.58
8930.74
8457.2
7927.94
7342.97
6702.29
6005.89
5253.78
4445.96
1787.39
1724.05
1662.79
1603.45
)


20
(
10857
10828.4
10742.8
10600.2
10400.4
10143.6
9829.79
9458.87
9030.88
8545.83
8003.71
7404.53
6748.28
6034.96
5264.58
4437.13
1713.96
1649.09
1586.33
1525.56
)


20
(
10847.9
10819.1
10732.8
10589
10387.7
10128.9
9812.54
9438.67
9007.28
8518.37
7971.95
7368
6706.53
5987.55
5211.04
4377.01
1632.19
1566.81
1503.55
1442.29
)


20
(
10686.5
10657.9
10572.3
10429.7
10229.9
9973.15
9659.29
9288.37
8860.38
8375.33
7833.2
7234.02
6577.77
5864.45
5094.06
4266.61
1543.43
1478.56
1415.8
1355.03
)


20
(
10375.3
10347.5
10263.9
10124.6
9929.63
9678.92
9372.51
9010.38
8592.55
8119
7589.73
7004.76
6364.07
5667.67
4915.55
4107.73
1449.13
1385.8
1324.53
1265.2
)


20
(
9919.4
9892.66
9812.45
9678.75
9491.57
9250.91
8956.77
8609.15
8208.05
7753.48
7245.42
6683.88
6068.86
5400.36
4678.38
3902.91
1350.83
1290.04
1231.23
1174.27
)


20
(
9325.83
9300.63
9225.02
9099.01
8922.6
8695.78
8418.56
8090.93
7712.89
7284.46
6805.62
6276.37
5696.72
5066.66
4386.2
3655.33
1250.01
1192.71
1137.28
1083.6
)


20
(
8603.56
8580.3
8510.5
8394.16
8231.29
8021.89
7765.96
7463.49
7114.48
6718.94
6276.87
5788.26
5253.12
4671.44
4043.23
3368.48
1147.86
1094.96
1043.79
994.228
)


20
(
7762.9
7741.94
7679.04
7574.22
7427.47
7238.78
7008.17
6735.63
6421.16
6064.76
5666.43
5226.17
4743.97
4219.85
3653.8
3045.82
1044.93
997.262
951.151
906.496
)


20
(
6814.9
6796.56
6741.57
6649.91
6521.58
6356.6
6154.94
5916.63
5641.65
5330
4981.69
4596.72
4175.08
3716.77
3221.8
2690.17
940.54
898.862
858.542
819.494
)


20
(
5769.99
5754.58
5708.34
5631.29
5523.42
5384.73
5215.22
5014.89
4783.74
4521.76
4228.97
3905.35
3550.92
3165.66
2749.59
2302.69
831.928
796.893
762.999
730.175
)


20
(
4636.8
4624.56
4587.82
4526.6
4440.88
4330.67
4195.97
4036.78
3853.1
3644.93
3412.27
3155.12
2873.47
2567.34
2236.71
1881.59
712.887
685.047
658.114
632.031
)


20
(
3420.49
3411.6
3384.94
3340.5
3278.29
3198.31
3100.55
2985.02
2851.71
2700.63
2531.77
2345.14
2140.73
1918.55
1678.6
1420.87
572.668
552.463
532.916
513.986
)


20
(
2125.93
2120.54
2104.37
2077.43
2039.71
1991.21
1931.93
1861.87
1781.04
1689.43
1587.04
1473.87
1349.93
1215.2
1069.7
913.425
399.106
386.854
375.001
363.523
)


20
(
772.704
770.898
765.48
756.45
743.808
727.555
707.689
684.212
657.123
626.421
592.108
554.184
512.647
467.498
418.738
366.366
194.008
189.902
185.93
182.083
)


20
(
2419.44
2417.65
2412.3
2403.37
2390.88
2374.81
2355.17
2331.97
2305.19
2274.84
2240.92
2203.43
2162.36
2117.72
2069.51
2017.73
1847.31
1843.25
1839.32
1835.52
)


20
(
3605.68
3600.35
3584.36
3557.7
3520.39
3472.41
3413.78
3344.48
3264.52
3173.89
3072.61
2960.66
2838.05
2704.77
2560.83
2406.23
1897.42
1885.3
1873.57
1862.22
)


20
(
4751.78
4742.99
4716.61
4672.65
4611.11
4531.98
4435.26
4320.97
4189.08
4039.62
3872.56
3687.93
3485.7
3265.89
3028.49
2773.51
1934.34
1914.35
1895.01
1876.28
)


20
(
5840.05
5827.94
5791.6
5731.02
5646.22
5537.19
5403.92
5246.43
5064.7
4858.75
4628.57
4374.15
4095.5
3792.62
3465.51
3114.17
1957.88
1930.33
1903.69
1877.88
)


20
(
6853.66
6838.41
6792.68
6716.44
6609.72
6472.5
6304.79
6106.58
5877.88
5618.69
5329.01
5008.82
4658.15
4276.98
3865.31
3423.15
1967.97
1933.31
1899.78
1867.3
)


20
(
7776.88
7758.74
7704.33
7613.64
7486.68
7323.44
7123.92
6888.13
6616.06
6307.72
5963.1
5582.21
5165.03
4711.58
4221.85
3695.85
1964.74
1923.5
1883.61
1844.97
)


20
(
8595.36
8574.61
8512.39
8408.67
8263.47
8076.79
7848.62
7578.96
7267.82
6915.19
6521.07
6085.47
5608.38
5089.8
4529.73
3928.18
1948.44
1901.28
1855.65
1811.47
)


20
(
9296.36
9273.34
9204.28
9089.18
8928.03
8720.84
8467.62
8168.34
7823.03
7431.68
6994.28
6510.84
5981.35
5405.83
4784.26
4116.64
1919.49
1867.15
1816.52
1767.48
)


20
(
9868.97
9844.04
9769.23
9644.55
9470
9245.58
8971.29
8647.12
8273.09
7849.18
7375.4
6851.74
6278.22
5654.82
4981.54
4258.4
1878.49
1821.8
1766.95
1713.84
)


20
(
10304.2
10277.8
10198.4
10066.1
9880.93
9642.81
9351.78
9007.84
8610.98
8161.2
7658.51
7102.9
6494.38
5832.94
5118.58
4351.3
1826.17
1766.02
1707.83
1651.48
)


20
(
10595.4
10567.8
10485.1
10347.3
10154.4
9906.34
9603.17
9244.86
8831.44
8362.89
7839.21
7260.41
6626.49
5937.44
5193.26
4393.96
1763.43
1700.77
1640.15
1581.44
)


20
(
10737.9
10709.6
10624.9
10483.8
10286.2
10032.1
9721.53
9354.52
8931.05
8451.11
7914.71
7321.85
6672.52
5966.73
5204.47
4385.75
1691.31
1627.12
1565.03
1504.9
)


20
(
10729.5
10701
10615.6
10473.4
10274.2
10018.1
9705.04
9335.12
8908.28
8424.53
7883.86
7286.29
6631.8
5920.39
5152.08
4326.85
1610.98
1546.29
1483.7
1423.09
)


20
(
10570.4
10542.1
10457.4
10316.3
10118.7
9864.58
9554.03
9187.02
8763.55
8283.61
7747.21
7154.34
6505.01
5799.22
5036.96
4218.23
1523.78
1459.6
1397.5
1337.37
)


20
(
10263.2
10235.6
10152.9
10015.1
9822.18
9574.12
9270.94
8912.63
8499.2
8030.65
7506.97
6928.16
6294.23
5605.18
4861
4061.69
1431.14
1368.48
1307.86
1249.15
)


20
(
9812.75
9786.29
9706.92
9574.63
9389.43
9151.31
8860.27
8516.32
8119.45
7669.67
7166.97
6611.36
6002.82
5341.37
4627.01
3859.73
1334.57
1274.41
1216.22
1159.87
)


20
(
9226.12
9201.18
9126.38
9001.7
8827.14
8602.72
8328.42
8004.24
7630.2
7206.28
6732.49
6208.83
5635.29
5011.88
4338.59
3615.43
1235.49
1178.8
1123.95
1070.84
)


20
(
8512.11
8489.09
8420.03
8304.92
8143.77
7936.58
7683.34
7384.06
7038.74
6647.37
6209.96
5726.51
5197.01
4621.47
3999.88
3332.25
1135.06
1082.72
1032.08
983.045
)


20
(
7680.86
7660.12
7597.89
7494.17
7348.97
7162.27
6934.1
6664.43
6353.27
6000.63
5606.5
5170.89
4693.78
4175.19
3615.11
3013.54
1033.75
986.594
940.97
896.785
)


20
(
6743.27
6725.13
6670.71
6580.02
6453.05
6289.8
6090.28
5854.47
5582.39
5274.04
4929.4
4548.49
4131.3
3677.83
3188.08
2662.05
930.881
889.643
849.748
811.112
)


20
(
5709.63
5694.38
5648.64
5572.4
5465.67
5328.44
5160.71
4962.5
4733.78
4474.57
4184.87
3864.67
3513.97
3132.78
2721.09
2278.91
823.662
788.996
755.46
722.982
)


20
(
4588.49
4576.38
4540.03
4479.45
4394.64
4285.59
4152.31
3994.8
3813.06
3607.09
3376.88
3122.44
2843.77
2540.86
2213.72
1862.35
705.971
678.424
651.776
625.968
)


20
(
3385.03
3376.24
3349.85
3305.89
3244.33
3165.19
3068.47
2954.15
2822.25
2672.76
2505.69
2321.03
2118.78
1898.94
1661.52
1406.5
567.252
547.26
527.919
509.189
)


20
(
2104.21
2098.88
2082.88
2056.22
2018.9
1970.91
1912.26
1842.94
1762.96
1672.32
1571.01
1459.03
1336.4
1203.1
1059.13
904.5
395.606
383.483
371.756
360.398
)


20
(
765.408
763.621
758.26
749.326
736.818
720.735
701.079
677.85
651.046
620.669
586.718
549.193
508.094
463.422
415.176
363.356
192.816
188.754
184.824
181.017
)


20
(
2460.2
2458.39
2452.96
2443.92
2431.26
2414.98
2395.08
2371.56
2344.43
2313.68
2279.31
2241.31
2199.7
2154.47
2105.62
2053.15
1880.46
1876.35
1872.37
1868.51
)


20
(
3662.41
3657.01
3640.8
3613.79
3575.98
3527.37
3467.95
3397.73
3316.71
3224.88
3122.25
3008.81
2884.57
2749.52
2603.66
2447.01
1931.43
1919.15
1907.27
1895.76
)


20
(
4823.85
4814.94
4788.21
4743.67
4681.31
4601.13
4503.13
4387.31
4253.67
4102.22
3932.94
3745.85
3540.93
3318.2
3077.64
2819.27
1968.94
1948.68
1929.08
1910.11
)


20
(
5926.61
5914.33
5877.5
5816.12
5730.19
5619.71
5484.67
5325.08
5140.94
4932.25
4699
4441.2
4158.85
3851.94
3520.48
3164.46
1992.79
1964.88
1937.88
1911.73
)


20
(
6953.61
6938.16
6891.81
6814.56
6706.42
6567.38
6397.43
6196.59
5964.85
5702.21
5408.67
5084.23
4728.89
4342.65
3925.51
3477.46
2002.93
1967.81
1933.83
1900.92
)


20
(
7888.92
7870.55
7815.41
7723.51
7594.86
7429.45
7227.28
6988.36
6712.67
6400.23
6051.02
5665.06
5242.34
4782.85
4286.61
3753.61
1999.47
1957.69
1917.26
1878.11
)


20
(
8718.02
8697
8633.95
8528.85
8381.72
8192.55
7961.35
7688.1
7372.82
7015.5
6616.14
6174.74
5691.3
5165.83
4598.31
3988.75
1982.68
1934.89
1888.66
1843.89
)


20
(
9427.99
9404.67
9334.69
9218.05
9054.76
8844.82
8588.22
8284.97
7935.06
7538.5
7095.29
6605.41
6068.89
5485.7
4855.86
4179.37
1952.99
1899.95
1848.65
1798.96
)


20
(
10007.8
9982.51
9906.71
9780.37
9603.5
9376.1
9098.15
8769.68
8390.67
7961.12
7481.03
6950.42
6369.26
5737.57
5055.34
4322.57
1911
1853.56
1797.98
1744.16
)


20
(
10448.3
10421.5
10341.1
10207
10019.4
9778.1
9483.2
9134.67
8732.53
8276.77
7767.4
7204.4
6587.78
5917.54
5193.68
4416.2
1857.48
1796.52
1737.56
1680.45
)


20
(
10742.8
10714.8
10631
10491.4
10295.9
10044.5
9737.34
9374.27
8955.34
8480.56
7949.92
7363.42
6721.06
6022.85
5268.77
4458.84
1793.31
1729.82
1668.39
1608.9
)


20
(
10886.5
10857.9
10772
10629
10428.8
10171.3
9856.62
9484.73
9055.62
8569.3
8025.77
7425.02
6767.05
6051.87
5279.48
4449.86
1719.58
1654.54
1591.62
1530.68
)


20
(
10877.2
10848.4
10761.9
10617.7
10415.9
10156.4
9839.2
9464.35
9031.83
8541.65
7993.79
7388.26
6725.07
6004.2
5225.66
4389.46
1637.46
1571.91
1508.49
1447.07
)


20
(
10715.3
10686.6
10600.8
10457.8
10257.5
10000.1
9685.4
9313.51
8884.4
8398.08
7854.54
7253.79
6595.82
5880.63
5108.24
4278.62
1548.32
1483.28
1420.36
1359.43
)


20
(
10403.1
10375.2
10291.4
10151.8
9956.28
9704.93
9397.71
9034.64
8615.71
8140.92
7610.27
7023.77
6381.4
5683.18
4929.1
4119.16
1453.62
1390.12
1328.7
1269.21
)


20
(
9945.87
9919.06
9838.63
9704.58
9516.91
9275.62
8980.72
8632.19
8230.04
7774.28
7264.89
6701.88
6085.26
5415.01
4691.14
3913.65
1354.9
1293.95
1234.98
1177.87
)


20
(
9350.57
9325.31
9249.5
9123.16
8946.29
8718.87
8440.93
8112.44
7733.42
7303.86
6823.77
6293.14
5711.97
5080.27
4398.03
3665.25
1253.64
1196.2
1140.62
1086.8
)


20
(
8626.26
8602.93
8532.95
8416.31
8253.02
8043.07
7786.46
7483.2
7133.28
6736.71
6293.48
5803.6
5267.06
4683.86
4054
3377.49
1151.07
1098.03
1046.72
997.034
)


20
(
7783.26
7762.24
7699.18
7594.09
7446.95
7257.78
7026.56
6753.31
6438.01
6080.68
5681.31
5239.9
4756.45
4230.95
3663.42
3053.85
1047.73
999.939
953.708
908.936
)


20
(
6832.68
6814.3
6759.16
6667.26
6538.6
6373.18
6171
5932.06
5656.36
5343.9
4994.68
4608.7
4185.96
3726.45
3230.19
2697.17
942.965
901.178
860.753
821.603
)


20
(
5784.97
5769.52
5723.17
5645.92
5537.76
5398.71
5228.76
5027.9
4796.14
4533.49
4239.93
3915.47
3560.11
3173.84
2756.68
2308.61
834.006
798.879
764.897
731.987
)


20
(
4648.8
4636.53
4599.7
4538.31
4452.37
4341.87
4206.82
4047.22
3863.06
3654.34
3421.07
3163.24
2880.86
2573.93
2242.44
1886.39
714.63
686.717
659.714
633.563
)


20
(
3429.3
3420.39
3393.66
3349.11
3286.73
3206.54
3108.53
2992.69
2859.04
2707.56
2538.26
2351.14
2146.2
1923.44
1682.86
1424.45
574.038
553.78
534.182
515.203
)


20
(
2131.33
2125.93
2109.72
2082.7
2044.88
1996.25
1936.82
1866.58
1785.54
1693.69
1591.03
1477.57
1353.3
1218.23
1072.34
915.658
399.993
387.71