/*--------------------------------*- C++ -*----------------------------------*\
| =========                 |                                                 |
| \\      /  F ield         | OpenFOAM: The Open Source CFD Toolbox           |
|  \\    /   O peration     | Version:  2212                                  |
|   \\  /    A nd           | Website:  www.openfoam.com                      |
|    \\/     M anipulation  |                                                 |
\*---------------------------------------------------------------------------*/
FoamFile
{
    version     2.0;
    format      ascii;
    arch        "LSB;label=32;scalar=64";
    class       surfaceScalarField;
    location    "99/fluidRegion";
    object      alphaPhi;
}
// * * * * * * * * * * * * * * * * * * * * * * * * * * * * * * * * * * * * * //

dimensions      [0 3 -1 0 0 0 0];

oriented        oriented;

internalField   nonuniform List<scalar> 
661
(
-0.000538938
7.79783e-13
-0.000538921
4.36555e-13
-0.000538907
-3.82869e-13
-0.000538887
-1.20425e-12
-0.000538852
-1.66652e-12
-0.0005388
-1.57685e-12
-0.000538735
-9.64962e-13
-0.000538663
-4.37863e-14
-0.000538594
8.78715e-13
-0.000538535
1.5149e-12
-0.000538488
1.67519e-12
-0.000538453
1.33587e-12
-0.000538425
6.29732e-13
-0.000538398
-2.08523e-13
-0.000538364
-9.01926e-13
-0.00053832
-1.24057e-12
-0.000538267
-1.13695e-12
-0.000538206
-6.41732e-13
-0.000538145
7.48244e-14
-0.000538087
7.89744e-13
-0.000538037
1.30943e-12
-0.000537997
1.5119e-12
-0.000537963
1.28068e-12
-0.000537934
1.96906e-13
-1.52079e-12
-0.000538938
-0.000538921
-0.000538907
-0.000538887
-0.000538852
-0.0005388
-0.000538735
-0.000538663
-0.000538594
-0.000538535
-0.000538488
-0.000538453
-0.000538425
-0.000538398
-0.000538364
-0.00053832
-0.000538267
-0.000538206
-0.000538145
-0.000538087
-0.000538037
-0.000537997
-0.000537963
-0.000537934
-0.0202316
1.41433e-06
-0.0198033
6.71672e-07
-0.0192586
7.27708e-07
-0.0186066
6.54902e-07
-0.0178567
5.92882e-07
-0.0170189
5.35431e-07
-0.0161035
4.82224e-07
-0.0151209
4.3064e-07
-0.0140818
3.7493e-07
-0.0129975
3.05646e-07
-0.0118797
2.10909e-07
-0.0107413
7.90644e-08
-0.00959658
-9.34174e-08
-0.00846124
-2.92593e-07
-0.00735214
-4.95978e-07
-0.00628645
-6.694e-07
-0.00528038
-7.86108e-07
-0.00434809
-8.38946e-07
-0.00350116
-8.41617e-07
-0.00274931
-8.18352e-07
-0.00210126
-7.91114e-07
-0.00156638
-7.65017e-07
-0.00115537
-7.29405e-07
-0.00087935
-6.3264e-07
-6.02264e-07
-0.0203616
-3.94165e-08
-3.66853e-08
-0.0199323
-1.74458e-07
-1.76701e-07
-0.0193855
-1.65401e-07
-1.6758e-07
-0.0187304
-1.42837e-07
-1.4539e-07
-0.0179768
-1.23319e-07
-1.26233e-07
-0.0171344
-1.05242e-07
-1.08647e-07
-0.0162138
-8.86067e-08
-9.26322e-08
-0.0152252
-7.27553e-08
-7.7469e-08
-0.0141796
-5.61504e-08
-6.1707e-08
-0.0130882
-3.61308e-08
-4.26873e-08
-0.0119628
-8.96817e-09
-1.67185e-08
-0.0108163
2.87846e-08
1.96554e-08
-0.00966307
7.76838e-08
6.67319e-08
-0.00851894
1.38762e-07
1.25665e-07
-0.00740099
2.01916e-07
1.86296e-07
-0.00632664
2.57216e-07
2.38744e-07
-0.00531238
2.95558e-07
2.73977e-07
-0.00437258
3.1378e-07
2.89032e-07
-0.00351898
3.15699e-07
2.87892e-07
-0.00276143
3.08625e-07
2.7853e-07
-0.0021087
2.99533e-07
2.67902e-07
-0.00157023
2.88355e-07
2.57318e-07
-0.00115682
2.68948e-07
2.39565e-07
-0.000879545
2.13457e-07
1.8967e-07
1.62219e-07
1.49247e-07
-0.0202103
6.94068e-07
-0.0197823
6.5492e-07
-0.0192381
6.30563e-07
-0.0185866
5.61535e-07
-0.0178374
4.99749e-07
-0.0170004
4.4289e-07
-0.0160859
3.90158e-07
-0.0151043
3.38534e-07
-0.0140663
2.81542e-07
-0.0129831
2.0894e-07
-0.0118665
1.07922e-07
-0.0107295
-3.20389e-08
-0.00958612
-2.13855e-07
-0.00845216
-4.23971e-07
-0.00734445
-6.35592e-07
-0.00628011
-8.12672e-07
-0.00527531
-9.27957e-07
-0.00434418
-9.75524e-07
-0.00349826
-9.71358e-07
-0.00274728
-9.41348e-07
-0.00209992
-9.07128e-07
-0.00156557
-8.72254e-07
-0.00115493
-8.13756e-07
-0.000879132
-6.75972e-07
-5.51644e-07
-0.0203326
3.98967e-09
-0.0199035
6.87162e-10
-0.0193571
9.57181e-10
-0.0187027
9.38336e-10
-0.0179498
1.0236e-09
-0.0171084
1.05902e-09
-0.0161889
9.8384e-10
-0.0152017
9.24348e-10
-0.0141575
7.74922e-10
-0.0130676
5.11343e-10
-0.0119439
2.2805e-10
-0.0107993
-1.49921e-10
-0.00964794
-6.47591e-10
-0.00850579
-1.32488e-09
-0.00738984
-2.20471e-09
-0.00631747
-3.27563e-09
-0.00530507
-4.43441e-09
-0.00436698
-5.56588e-09
-0.00351491
-6.66184e-09
-0.00275867
-7.4808e-09
-0.00210701
-7.85289e-09
-0.00156937
-7.71665e-09
-0.00115651
-7.14466e-09
-0.000879527
-5.50399e-09
-3.66569e-09
-0.0203327
-6.85461e-07
-0.0199035
-6.53471e-07
-0.0193571
-6.28269e-07
-0.0187027
-5.59197e-07
-0.0179498
-4.97191e-07
-0.0171085
-4.40212e-07
-0.0161889
-3.87492e-07
-0.0152017
-3.35868e-07
-0.0141575
-2.79016e-07
-0.0130677
-2.06696e-07
-0.0119439
-1.05991e-07
-0.0107993
3.36096e-08
-0.00964795
2.14824e-07
-0.0085058
4.24082e-07
-0.00738985
6.3454e-07
-0.00631747
8.10155e-07
-0.00530508
9.23784e-07
-0.00436699
9.6958e-07
-0.00351492
9.6343e-07
-0.00275867
9.3148e-07
-0.00210701
8.95454e-07
-0.00156937
8.59153e-07
-0.00115652
7.99413e-07
-0.000879528
6.63211e-07
5.41252e-07
-0.0202103
3.5737e-08
-0.0197824
1.75537e-07
-0.0192381
1.66163e-07
-0.0185866
1.43734e-07
-0.0178374
1.24443e-07
-0.0170004
1.06626e-07
-0.0160859
9.02956e-08
-0.0151043
7.48582e-08
-0.0140663
5.87189e-08
-0.0129831
3.92379e-08
-0.0118665
1.2781e-08
-0.0107295
-2.41206e-08
-0.00958613
-7.18659e-08
-0.00845217
-1.31676e-07
-0.00734446
-1.93404e-07
-0.00628012
-2.47181e-07
-0.00527532
-2.83964e-07
-0.00434418
-3.00813e-07
-0.00349826
-3.01868e-07
-0.00274728
-2.94761e-07
-0.00209992
-2.86508e-07
-0.00156557
-2.77297e-07
-0.00115493
-2.60824e-07
-0.00087913
-2.08356e-07
-1.59019e-07
-0.0203616
-1.4141e-06
-4.12256e-08
-0.0199323
-6.71357e-07
-1.76753e-07
-0.0193855
-7.27417e-07
-1.67977e-07
-0.0187304
-6.54603e-07
-1.45696e-07
-0.0179768
-5.9249e-07
-1.2654e-07
-0.0171344
-5.34983e-07
-1.08878e-07
-0.0162138
-4.8175e-07
-9.26747e-08
-0.0152252
-4.30117e-07
-7.72947e-08
-0.0141796
-3.74422e-07
-6.11747e-08
-0.0130882
-3.05187e-07
-4.16452e-08
-0.0119628
-2.10474e-07
-1.50563e-08
-0.0108163
-7.86978e-08
2.20114e-08
-0.00966307
9.36004e-08
7.02522e-08
-0.00851894
2.92412e-07
1.30727e-07
-0.00740099
4.95134e-07
1.93464e-07
-0.00632664
6.67476e-07
2.4873e-07
-0.00531238
7.82572e-07
2.87638e-07
-0.00437258
8.32966e-07
3.07374e-07
-0.00351898
8.31935e-07
3.12251e-07
-0.00276143
8.03398e-07
3.10037e-07
-0.0021087
7.68982e-07
3.07461e-07
-0.00157023
7.34543e-07
3.04161e-07
-0.00115682
6.88714e-07
2.9206e-07
-0.000879545
5.88074e-07
2.4e-07
5.60479e-07
1.89264e-07
-0.0202316
-0.0198033
-0.0192586
-0.0186066
-0.0178567
-0.0170189
-0.0161035
-0.0151209
-0.0140818
-0.0129975
-0.0118797
-0.0107413
-0.00959658
-0.00846124
-0.00735214
-0.00628645
-0.00528038
-0.00434809
-0.00350116
-0.00274931
-0.00210126
-0.00156638
-0.00115537
-0.00087935
-0.0203326
-6.91496e-07
2.30247e-09
-0.0199035
-6.51803e-07
-1.39074e-09
-0.0193571
-6.27158e-07
-1.26384e-09
-0.0187027
-5.57804e-07
-1.42035e-09
-0.0179498
-4.9554e-07
-1.67908e-09
-0.0171084
-4.382e-07
-1.9729e-09
-0.0161889
-3.85011e-07
-2.28972e-09
-0.0152017
-3.32838e-07
-2.72486e-09
-0.0141575
-2.75304e-07
-3.22769e-09
-0.0130676
-2.0216e-07
-3.81074e-09
-0.0119439
-1.00475e-07
-4.61682e-09
-0.0107993
4.03663e-08
-5.4938e-09
-0.00964794
2.23199e-07
-6.91004e-09
-0.00850579
4.3446e-07
-8.5959e-09
-0.00738984
6.47433e-07
-1.07451e-08
-0.00631747
8.26164e-07
-1.35073e-08
-0.00530507
9.4369e-07
-1.71104e-08
-0.00436698
9.94297e-07
-2.17347e-08
-0.00351491
9.94338e-07
-2.74869e-08
-0.00275867
9.69999e-07
-3.42389e-08
-0.00210701
9.43762e-07
-4.1874e-08
-0.00156937
9.1788e-07
-4.83478e-08
-0.00115651
8.6855e-07
-5.26697e-08
-0.000879527
7.34482e-07
-4.98752e-08
6.02609e-07
-3.99898e-08
-0.0202103
-0.0197823
-0.0192381
-0.0185866
-0.0178374
-0.0170004
-0.0160859
-0.0151043
-0.0140663
-0.0129831
-0.0118665
-0.0107295
-0.00958612
-0.00845216
-0.00734445
-0.00628011
-0.00527531
-0.00434418
-0.00349826
-0.00274728
-0.00209992
-0.00156557
-0.00115493
-0.000879132
-0.0202103
6.86612e-07
-0.0197824
6.54765e-07
-0.0192381
6.29571e-07
-0.0185866
5.6055e-07
-0.0178374
4.98765e-07
-0.0170004
4.41944e-07
-0.0160859
3.89316e-07
-0.0151043
3.37883e-07
-0.0140663
2.81161e-07
-0.0129831
2.08911e-07
-0.0118665
1.08379e-07
-0.0107295
-3.11329e-08
-0.00958613
-2.11927e-07
-0.00845217
-4.20931e-07
-0.00734446
-6.31195e-07
-0.00628012
-8.06738e-07
-0.00527532
-9.20417e-07
-0.00434418
-9.66693e-07
-0.00349826
-9.62001e-07
-0.00274728
-9.32998e-07
-0.00209992
-9.0208e-07
-0.00156557
-8.73087e-07
-0.00115493
-8.22888e-07
-0.00087913
-6.93051e-07
-5.70743e-07
-0.0203327
-0.0199035
-0.0193571
-0.0187027
-0.0179498
-0.0171085
-0.0161889
-0.0152017
-0.0141575
-0.0130677
-0.0119439
-0.0107993
-0.00964795
-0.0085058
-0.00738985
-0.00631747
-0.00530508
-0.00436699
-0.00351492
-0.00275867
-0.00210701
-0.00156937
-0.00115652
-0.000879529
)
;

boundaryField
{
    outletCentralUnloaded
    {
        type            calculated;
        value           nonuniform List<scalar> 2(0.000538972 0.000538972);
    }
    inletCentralUnloaded
    {
        type            calculated;
        value           uniform -0.000540134;
    }
    outletFuelElement
    {
        type            calculated;
        value           nonuniform List<scalar> 
12
(
0.0205725
0.0207057
0.0205517
0.0206759
0.0206759
0.0205517
0.0207057
0.0205725
0.0206759
0.0205517
0.0205517
0.0206759
)
;
    }
    inletFuelElement
    {
        type            calculated;
        value           nonuniform List<scalar> 
12
(
-0.000722059
-0.00072206
-0.000722059
-0.000722059
-0.00072206
-0.000722059
-0.00072206
-0.000722059
-0.000722059
-0.000722059
-0.000722059
-0.00072206
)
;
    }
    defaultFaces
    {
        type            calculated;
        value           nonuniform List<scalar> 
450
(
4.15692e-25
-5.5112e-23
0
2.20971e-23
6.14246e-24
0
1.46302e-23
4.00222e-23
0
-4.24514e-23
-1.24058e-23
0
-2.22761e-23
-3.60978e-23
0
-4.6116e-23
8.31692e-25
0
-2.29525e-23
-1.87958e-23
0
-2.47288e-23
-1.6794e-23
0
-2.80205e-23
-3.76467e-25
0
-2.20623e-23
-9.08293e-24
0
-1.46858e-23
-4.39854e-24
0
-4.49176e-24
-9.42189e-25
0
5.63366e-24
3.36079e-24
0
2.00342e-23
5.71734e-24
0
2.99369e-23
1.74966e-23
0
4.85152e-23
1.16873e-23
0
4.98026e-23
-2.22423e-23
0
6.38564e-23
2.14594e-23
0
1.91237e-23
-3.28308e-23
0
-1.98404e-23
-2.33205e-23
0
-3.39749e-23
-2.81721e-23
0
3.13802e-23
-1.51179e-23
0
-9.98882e-24
1.06286e-23
0
-2.18071e-23
-1.91419e-23
0
-2.02669e-23
-3.56095e-23
0
3.20908e-23
0
2.40681e-23
0
0
0
1.60454e-23
0
-1.60454e-23
0
2.00567e-23
0
8.0227e-24
0
1.2034e-23
0
-4.01135e-24
0
8.0227e-24
0
3.50993e-24
0
-1.00284e-24
0
-4.01135e-24
0
-2.00567e-23
0
-2.40681e-23
0
-8.0227e-24
0
4.81362e-23
0
-1.60454e-23
0
0
0
-1.60454e-23
0
-6.41816e-23
0
4.01135e-23
0
0
0
-4.01135e-23
0
-3.20908e-23
0
0
-8.0227e-24
8.0227e-24
-8.0227e-24
1.60454e-23
0
-8.0227e-24
-8.0227e-24
8.0227e-24
0
-4.01135e-24
0
0
0
1.60454e-23
0
-3.20908e-23
3.20908e-23
-1.60454e-23
0
0
-3.20908e-23
-3.20908e-23
1.60454e-23
8.0227e-24
0
0
0
0
0
0
0
0
0
0
0
0
0
0
0
0
0
0
0
0
0
0
0
0
0
-1.70482e-23
2.40681e-23
8.0227e-24
1.60454e-23
2.40681e-23
3.20908e-23
-1.2034e-23
-1.60454e-23
1.60454e-23
-1.2034e-23
-1.2034e-23
-8.0227e-24
-1.2034e-23
-8.0227e-24
-1.2034e-23
-4.01135e-24
2.00567e-23
-8.0227e-24
-6.01702e-24
-6.01702e-24
-2.50709e-24
-2.00567e-24
2.00567e-24
1.88032e-24
8.0227e-24
6.01702e-24
1.2034e-23
1.60454e-23
1.60454e-23
2.00567e-23
1.60454e-23
2.40681e-23
-2.40681e-23
5.61589e-23
3.20908e-23
3.20908e-23
-4.81362e-23
5.61589e-23
-4.81362e-23
-3.20908e-23
8.0227e-24
-2.40681e-23
-3.20908e-23
4.81362e-23
-8.0227e-24
-2.40681e-23
0
-1.60454e-23
-1.60454e-23
-1.60454e-23
3.13937e-23
0
3.20908e-23
7.03572e-24
0
0
8.82537e-24
0
-6.41816e-23
-5.72177e-23
0
8.0227e-24
2.00833e-23
0
-8.0227e-24
-5.54135e-23
0
2.40681e-23
-3.69899e-23
0
8.0227e-24
-3.25512e-23
0
8.0227e-24
-1.63167e-23
0
-8.0227e-24
-3.00488e-23
0
8.0227e-24
-1.66265e-23
0
4.01135e-24
-6.47494e-24
0
2.00567e-24
8.53567e-24
-0
0
2.81994e-23
-0
-8.0227e-24
4.51036e-23
-0
0
6.6091e-23
-0
-8.0227e-24
3.28473e-23
-0
0
6.83943e-23
-0
-1.60454e-23
3.23772e-23
-0
-1.60454e-23
-3.23891e-23
-0
1.60454e-23
-1.56161e-23
-0
1.60454e-23
2.62076e-23
-0
3.20908e-23
-1.22268e-23
-0
0
-1.26002e-23
-0
8.0227e-24
-1.75927e-23
-0
8.0227e-24
0
-8.0227e-24
0
-8.0227e-24
8.0227e-24
-8.0227e-24
0
-8.0227e-24
-4.01135e-24
-4.01135e-24
-2.00567e-24
1.00284e-24
4.01135e-24
8.0227e-24
8.0227e-24
3.20908e-23
-4.81362e-23
3.20908e-23
-4.81362e-23
0
0
-3.20908e-23
-1.60454e-23
-1.60454e-23
-8.0227e-24
2.80794e-23
0
1.60454e-23
0
0
0
2.40681e-23
0
-1.2034e-23
0
1.60454e-23
0
1.2034e-23
0
1.2034e-23
0
0
0
1.00284e-23
0
3.50993e-24
0
-1.00284e-24
-0
-8.0227e-24
-0
-8.0227e-24
-0
-3.20908e-23
-0
-2.40681e-23
-0
4.81362e-23
-0
-3.20908e-23
-0
6.41816e-23
-0
-3.20908e-23
-0
-4.81362e-23
-0
1.60454e-23
-0
1.60454e-23
-0
-3.20908e-23
-0
-1.60454e-23
-0
-3.00851e-23
8.0227e-24
-1.60454e-23
1.60454e-23
-1.60454e-23
2.40681e-23
-8.0227e-24
-4.81362e-23
0
1.2034e-23
-1.2034e-23
-3.20908e-23
-1.2034e-23
-2.80794e-23
-8.0227e-24
-2.40681e-23
2.00567e-24
-2.00567e-23
-4.01135e-24
-1.2034e-23
-3.50993e-24
-7.01986e-24
1.00284e-24
4.51277e-24
2.00567e-24
1.80511e-23
8.0227e-24
3.61021e-23
1.60454e-23
5.61589e-23
1.60454e-23
6.41816e-23
0
4.01135e-23
1.60454e-23
8.82497e-23
-8.0227e-24
6.41816e-23
-8.0227e-24
-2.40681e-23
0
-2.40681e-23
0
4.01135e-23
2.40681e-23
-2.40681e-23
8.0227e-24
-2.40681e-23
-8.0227e-24
-1.60454e-23
-0
-0
-0
-0
-0
-0
-0
-0
-0
-0
-0
0
0
0
0
0
0
0
0
0
0
0
0
0
0
)
;
    }
    baffle_master
    {
        type            calculated;
        value           nonuniform List<scalar> 
150
(
2.71517e-30
0
0
5.27049e-30
0
5.72334e-30
1.57934e-30
0
-1.14467e-29
-1.89169e-29
0
-2.28934e-29
-9.49557e-29
0
-6.86801e-29
-7.37714e-30
0
-2.28934e-29
3.99052e-30
0
0
6.39456e-31
0
-1.43084e-30
6.90699e-30
0
0
-1.45721e-30
0
0
-4.6207e-30
0
0
-6.62216e-30
0
-2.28934e-29
-1.14774e-29
0
-1.14467e-29
5.33802e-31
0
-2.86167e-30
-3.1014e-30
0
0
1.72822e-29
0
2.28934e-29
1.05214e-28
0
4.57867e-29
1.65681e-30
0
0
-5.23589e-30
0
-4.29251e-30
-9.38069e-31
0
-1.14467e-29
-5.11726e-30
0
0
8.30194e-29
0
4.57867e-29
-1.5607e-29
0
0
1.28298e-30
0
-2.86167e-30
1.21163e-29
0
0
-1.14467e-29
4.38839e-29
-0
0
1.25144e-29
-0
5.72334e-30
-1.16002e-29
0
2.28934e-29
-5.69819e-29
0
-2.28934e-29
4.42687e-29
0
2.28934e-29
-5.75398e-29
0
0
-3.71862e-29
0
0
-1.52223e-30
0
3.43401e-29
4.36024e-29
-0
-2.28934e-29
5.68901e-29
-0
-2.28934e-29
6.89962e-29
-0
-2.28934e-29
4.0512e-29
-0
0
2.02334e-29
-0
2.86167e-30
-6.59796e-30
0
1.14467e-29
-3.03396e-29
0
4.57867e-29
-6.25803e-29
0
-2.28934e-29
-2.38607e-29
0
2.28934e-29
-2.17821e-29
0
2.86167e-30
-4.58935e-31
-0
-1.14467e-29
-2.89155e-29
-0
2.28934e-29
-1.95764e-29
-0
2.28934e-29
-8.14947e-29
-0
4.57867e-29
4.59509e-29
-0
0
-6.00273e-30
-0
0
4.99355e-29
0
)
;
    }
    baffle_slave
    {
        type            calculated;
        value           nonuniform List<scalar> 
150
(
-1.25355e-25
-0
0
4.32474e-24
-0
8.0227e-24
-3.07119e-24
-0
0
3.00851e-24
-0
0
-2.99598e-23
-0
-1.60454e-23
4.88883e-24
-0
0
-2.7578e-24
-0
-8.0227e-24
2.25638e-24
-0
0
-2.00567e-24
-0
0
-2.50709e-25
-0
-4.01135e-24
1.00284e-24
-0
2.00567e-24
0
0
0
5.01419e-25
0
0
1.00284e-24
0
0
-4.51277e-24
0
-8.0227e-24
-4.01135e-24
0
-1.60454e-23
-5.01419e-23
0
-3.20908e-23
8.0227e-24
0
0
-4.01135e-23
0
-4.81362e-23
1.00284e-24
0
-1.60454e-23
2.00567e-24
0
0
3.50993e-23
0
1.60454e-23
0
0
-1.60454e-23
-2.00567e-24
0
-1.60454e-23
0
0
-8.0227e-24
8.69233e-24
5.99195e-23
0
4.8464e-24
2.29399e-23
0
8.14824e-25
2.19997e-23
0
-9.43978e-24
2.03701e-23
0
-5.77012e-24
-3.20281e-23
0
-1.20401e-23
1.45411e-23
0
-8.58485e-24
1.47919e-23
0
-5.03925e-24
1.12819e-23
0
7.80677e-24
1.26608e-23
0
-1.24499e-24
7.77199e-24
0
-1.41555e-24
7.27057e-24
0
5.37173e-25
3.63529e-24
0
4.73445e-24
-9.4016e-25
0
-2.26149e-25
-5.73498e-24
0
1.49827e-23
-1.13289e-23
0
1.72224e-23
-1.38517e-23
0
-2.99863e-23
-1.36637e-23
0
1.32209e-23
-1.32876e-23
0
-1.91521e-23
2.00567e-24
0
3.68902e-24
1.00284e-23
0
4.29849e-24
9.02554e-24
0
-4.86688e-23
2.90823e-23
0
-3.14826e-23
-2.00567e-23
0
-1.21089e-23
1.00284e-23
0
-2.57303e-24
1.2034e-23
0
)
;
    }
}


// ************************************************************************* //
