/*--------------------------------*- C++ -*----------------------------------*\
| =========                 |                                                 |
| \\      /  F ield         | OpenFOAM: The Open Source CFD Toolbox           |
|  \\    /   O peration     | Version:  2212                                  |
|   \\  /    A nd           | Website:  www.openfoam.com                      |
|    \\/     M anipulation  |                                                 |
\*---------------------------------------------------------------------------*/
FoamFile
{
    version     2.0;
    format      ascii;
    arch        "LSB;label=32;scalar=64";
    class       volTensorField;
    location    "99/fluidRegion";
    object      Kd;
}
// * * * * * * * * * * * * * * * * * * * * * * * * * * * * * * * * * * * * * //

dimensions      [1 -3 -1 0 0 0 0];

internalField   nonuniform List<tensor> 
350
(
(84.7377 0 0 0 84.7377 0 0 0 84.7377)
(84.7398 0 0 0 84.7398 0 0 0 84.7398)
(84.7432 0 0 0 84.7432 0 0 0 84.7432)
(84.7464 0 0 0 84.7464 0 0 0 84.7464)
(84.7485 0 0 0 84.7485 0 0 0 84.7485)
(84.7486 0 0 0 84.7486 0 0 0 84.7486)
(84.747 0 0 0 84.747 0 0 0 84.747)
(84.7442 0 0 0 84.7442 0 0 0 84.7442)
(84.7412 0 0 0 84.7412 0 0 0 84.7412)
(84.7389 0 0 0 84.7389 0 0 0 84.7389)
(84.738 0 0 0 84.738 0 0 0 84.738)
(84.7385 0 0 0 84.7385 0 0 0 84.7385)
(84.7401 0 0 0 84.7401 0 0 0 84.7401)
(84.7421 0 0 0 84.7421 0 0 0 84.7421)
(84.7437 0 0 0 84.7437 0 0 0 84.7437)
(84.7444 0 0 0 84.7444 0 0 0 84.7444)
(84.7438 0 0 0 84.7438 0 0 0 84.7438)
(84.7423 0 0 0 84.7423 0 0 0 84.7423)
(84.7404 0 0 0 84.7404 0 0 0 84.7404)
(84.7386 0 0 0 84.7386 0 0 0 84.7386)
(84.7375 0 0 0 84.7375 0 0 0 84.7375)
(84.7374 0 0 0 84.7374 0 0 0 84.7374)
(84.7382 0 0 0 84.7382 0 0 0 84.7382)
(84.7396 0 0 0 84.7396 0 0 0 84.7396)
(84.8729 0 0 0 84.8729 0 0 0 84.8729)
(84.7377 0 0 0 84.7377 0 0 0 84.7377)
(84.7398 0 0 0 84.7398 0 0 0 84.7398)
(84.7432 0 0 0 84.7432 0 0 0 84.7432)
(84.7464 0 0 0 84.7464 0 0 0 84.7464)
(84.7485 0 0 0 84.7485 0 0 0 84.7485)
(84.7486 0 0 0 84.7486 0 0 0 84.7486)
(84.747 0 0 0 84.747 0 0 0 84.747)
(84.7442 0 0 0 84.7442 0 0 0 84.7442)
(84.7412 0 0 0 84.7412 0 0 0 84.7412)
(84.7389 0 0 0 84.7389 0 0 0 84.7389)
(84.738 0 0 0 84.738 0 0 0 84.738)
(84.7385 0 0 0 84.7385 0 0 0 84.7385)
(84.7401 0 0 0 84.7401 0 0 0 84.7401)
(84.7421 0 0 0 84.7421 0 0 0 84.7421)
(84.7437 0 0 0 84.7437 0 0 0 84.7437)
(84.7444 0 0 0 84.7444 0 0 0 84.7444)
(84.7438 0 0 0 84.7438 0 0 0 84.7438)
(84.7423 0 0 0 84.7423 0 0 0 84.7423)
(84.7404 0 0 0 84.7404 0 0 0 84.7404)
(84.7386 0 0 0 84.7386 0 0 0 84.7386)
(84.7375 0 0 0 84.7375 0 0 0 84.7375)
(84.7374 0 0 0 84.7374 0 0 0 84.7374)
(84.7382 0 0 0 84.7382 0 0 0 84.7382)
(84.7396 0 0 0 84.7396 0 0 0 84.7396)
(84.8729 0 0 0 84.8729 0 0 0 84.8729)
(682.657 0 0 0 682.657 0 0 0 682.657)
(682.204 0 0 0 682.204 0 0 0 682.204)
(682.216 0 0 0 682.216 0 0 0 682.216)
(682.218 0 0 0 682.218 0 0 0 682.218)
(682.208 0 0 0 682.208 0 0 0 682.208)
(682.186 0 0 0 682.186 0 0 0 682.186)
(682.15 0 0 0 682.15 0 0 0 682.15)
(682.098 0 0 0 682.098 0 0 0 682.098)
(682.029 0 0 0 682.029 0 0 0 682.029)
(681.94 0 0 0 681.94 0 0 0 681.94)
(681.83 0 0 0 681.83 0 0 0 681.83)
(681.698 0 0 0 681.698 0 0 0 681.698)
(681.546 0 0 0 681.546 0 0 0 681.546)
(681.373 0 0 0 681.373 0 0 0 681.373)
(681.176 0 0 0 681.176 0 0 0 681.176)
(680.947 0 0 0 680.947 0 0 0 680.947)
(680.667 0 0 0 680.667 0 0 0 680.667)
(680.32 0 0 0 680.32 0 0 0 680.32)
(679.898 0 0 0 679.898 0 0 0 679.898)
(679.455 0 0 0 679.455 0 0 0 679.455)
(679.171 0 0 0 679.171 0 0 0 679.171)
(679.597 0 0 0 679.597 0 0 0 679.597)
(682.066 0 0 0 682.066 0 0 0 682.066)
(688.949 0 0 0 688.949 0 0 0 688.949)
(693.469 0 0 0 693.469 0 0 0 693.469)
(678.116 0 0 0 678.116 0 0 0 678.116)
(677.592 0 0 0 677.592 0 0 0 677.592)
(677.565 0 0 0 677.565 0 0 0 677.565)
(677.528 0 0 0 677.528 0 0 0 677.528)
(677.483 0 0 0 677.483 0 0 0 677.483)
(677.428 0 0 0 677.428 0 0 0 677.428)
(677.361 0 0 0 677.361 0 0 0 677.361)
(677.281 0 0 0 677.281 0 0 0 677.281)
(677.184 0 0 0 677.184 0 0 0 677.184)
(677.071 0 0 0 677.071 0 0 0 677.071)
(676.941 0 0 0 676.941 0 0 0 676.941)
(676.798 0 0 0 676.798 0 0 0 676.798)
(676.648 0 0 0 676.648 0 0 0 676.648)
(676.501 0 0 0 676.501 0 0 0 676.501)
(676.364 0 0 0 676.364 0 0 0 676.364)
(676.237 0 0 0 676.237 0 0 0 676.237)
(676.108 0 0 0 676.108 0 0 0 676.108)
(675.962 0 0 0 675.962 0 0 0 675.962)
(675.79 0 0 0 675.79 0 0 0 675.79)
(675.652 0 0 0 675.652 0 0 0 675.652)
(675.74 0 0 0 675.74 0 0 0 675.74)
(676.638 0 0 0 676.638 0 0 0 676.638)
(679.735 0 0 0 679.735 0 0 0 679.735)
(687.459 0 0 0 687.459 0 0 0 687.459)
(692.984 0 0 0 692.984 0 0 0 692.984)
(683.416 0 0 0 683.416 0 0 0 683.416)
(682.959 0 0 0 682.959 0 0 0 682.959)
(682.975 0 0 0 682.975 0 0 0 682.975)
(682.979 0 0 0 682.979 0 0 0 682.979)
(682.972 0 0 0 682.972 0 0 0 682.972)
(682.952 0 0 0 682.952 0 0 0 682.952)
(682.917 0 0 0 682.917 0 0 0 682.917)
(682.866 0 0 0 682.866 0 0 0 682.866)
(682.797 0 0 0 682.797 0 0 0 682.797)
(682.708 0 0 0 682.708 0 0 0 682.708)
(682.596 0 0 0 682.596 0 0 0 682.596)
(682.461 0 0 0 682.461 0 0 0 682.461)
(682.303 0 0 0 682.303 0 0 0 682.303)
(682.12 0 0 0 682.12 0 0 0 682.12)
(681.907 0 0 0 681.907 0 0 0 681.907)
(681.653 0 0 0 681.653 0 0 0 681.653)
(681.342 0 0 0 681.342 0 0 0 681.342)
(680.954 0 0 0 680.954 0 0 0 680.954)
(680.483 0 0 0 680.483 0 0 0 680.483)
(679.98 0 0 0 679.98 0 0 0 679.98)
(679.624 0 0 0 679.624 0 0 0 679.624)
(679.959 0 0 0 679.959 0 0 0 679.959)
(682.313 0 0 0 682.313 0 0 0 682.313)
(689.061 0 0 0 689.061 0 0 0 689.061)
(693.486 0 0 0 693.486 0 0 0 693.486)
(679.132 0 0 0 679.132 0 0 0 679.132)
(678.628 0 0 0 678.628 0 0 0 678.628)
(678.612 0 0 0 678.612 0 0 0 678.612)
(678.586 0 0 0 678.586 0 0 0 678.586)
(678.551 0 0 0 678.551 0 0 0 678.551)
(678.505 0 0 0 678.505 0 0 0 678.505)
(678.447 0 0 0 678.447 0 0 0 678.447)
(678.375 0 0 0 678.375 0 0 0 678.375)
(678.287 0 0 0 678.287 0 0 0 678.287)
(678.181 0 0 0 678.181 0 0 0 678.181)
(678.057 0 0 0 678.057 0 0 0 678.057)
(677.918 0 0 0 677.918 0 0 0 677.918)
(677.77 0 0 0 677.77 0 0 0 677.77)
(677.619 0 0 0 677.619 0 0 0 677.619)
(677.47 0 0 0 677.47 0 0 0 677.47)
(677.321 0 0 0 677.321 0 0 0 677.321)
(677.16 0 0 0 677.16 0 0 0 677.16)
(676.969 0 0 0 676.969 0 0 0 676.969)
(676.741 0 0 0 676.741 0 0 0 676.741)
(676.535 0 0 0 676.535 0 0 0 676.535)
(676.539 0 0 0 676.539 0 0 0 676.539)
(677.331 0 0 0 677.331 0 0 0 677.331)
(680.286 0 0 0 680.286 0 0 0 680.286)
(687.818 0 0 0 687.818 0 0 0 687.818)
(693.104 0 0 0 693.104 0 0 0 693.104)
(679.132 0 0 0 679.132 0 0 0 679.132)
(678.628 0 0 0 678.628 0 0 0 678.628)
(678.612 0 0 0 678.612 0 0 0 678.612)
(678.586 0 0 0 678.586 0 0 0 678.586)
(678.551 0 0 0 678.551 0 0 0 678.551)
(678.505 0 0 0 678.505 0 0 0 678.505)
(678.447 0 0 0 678.447 0 0 0 678.447)
(678.375 0 0 0 678.375 0 0 0 678.375)
(678.287 0 0 0 678.287 0 0 0 678.287)
(678.181 0 0 0 678.181 0 0 0 678.181)
(678.057 0 0 0 678.057 0 0 0 678.057)
(677.918 0 0 0 677.918 0 0 0 677.918)
(677.77 0 0 0 677.77 0 0 0 677.77)
(677.619 0 0 0 677.619 0 0 0 677.619)
(677.47 0 0 0 677.47 0 0 0 677.47)
(677.321 0 0 0 677.321 0 0 0 677.321)
(677.16 0 0 0 677.16 0 0 0 677.16)
(676.969 0 0 0 676.969 0 0 0 676.969)
(676.741 0 0 0 676.741 0 0 0 676.741)
(676.535 0 0 0 676.535 0 0 0 676.535)
(676.539 0 0 0 676.539 0 0 0 676.539)
(677.331 0 0 0 677.331 0 0 0 677.331)
(680.286 0 0 0 680.286 0 0 0 680.286)
(687.818 0 0 0 687.818 0 0 0 687.818)
(693.104 0 0 0 693.104 0 0 0 693.104)
(683.416 0 0 0 683.416 0 0 0 683.416)
(682.959 0 0 0 682.959 0 0 0 682.959)
(682.974 0 0 0 682.974 0 0 0 682.974)
(682.979 0 0 0 682.979 0 0 0 682.979)
(682.972 0 0 0 682.972 0 0 0 682.972)
(682.951 0 0 0 682.951 0 0 0 682.951)
(682.917 0 0 0 682.917 0 0 0 682.917)
(682.866 0 0 0 682.866 0 0 0 682.866)
(682.797 0 0 0 682.797 0 0 0 682.797)
(682.707 0 0 0 682.707 0 0 0 682.707)
(682.596 0 0 0 682.596 0 0 0 682.596)
(682.461 0 0 0 682.461 0 0 0 682.461)
(682.303 0 0 0 682.303 0 0 0 682.303)
(682.119 0 0 0 682.119 0 0 0 682.119)
(681.906 0 0 0 681.906 0 0 0 681.906)
(681.653 0 0 0 681.653 0 0 0 681.653)
(681.341 0 0 0 681.341 0 0 0 681.341)
(680.954 0 0 0 680.954 0 0 0 680.954)
(680.482 0 0 0 680.482 0 0 0 680.482)
(679.98 0 0 0 679.98 0 0 0 679.98)
(679.623 0 0 0 679.623 0 0 0 679.623)
(679.958 0 0 0 679.958 0 0 0 679.958)
(682.312 0 0 0 682.312 0 0 0 682.312)
(689.06 0 0 0 689.06 0 0 0 689.06)
(693.485 0 0 0 693.485 0 0 0 693.485)
(678.116 0 0 0 678.116 0 0 0 678.116)
(677.592 0 0 0 677.592 0 0 0 677.592)
(677.565 0 0 0 677.565 0 0 0 677.565)
(677.528 0 0 0 677.528 0 0 0 677.528)
(677.483 0 0 0 677.483 0 0 0 677.483)
(677.428 0 0 0 677.428 0 0 0 677.428)
(677.361 0 0 0 677.361 0 0 0 677.361)
(677.281 0 0 0 677.281 0 0 0 677.281)
(677.184 0 0 0 677.184 0 0 0 677.184)
(677.071 0 0 0 677.071 0 0 0 677.071)
(676.941 0 0 0 676.941 0 0 0 676.941)
(676.798 0 0 0 676.798 0 0 0 676.798)
(676.648 0 0 0 676.648 0 0 0 676.648)
(676.501 0 0 0 676.501 0 0 0 676.501)
(676.364 0 0 0 676.364 0 0 0 676.364)
(676.237 0 0 0 676.237 0 0 0 676.237)
(676.108 0 0 0 676.108 0 0 0 676.108)
(675.962 0 0 0 675.962 0 0 0 675.962)
(675.79 0 0 0 675.79 0 0 0 675.79)
(675.652 0 0 0 675.652 0 0 0 675.652)
(675.74 0 0 0 675.74 0 0 0 675.74)
(676.638 0 0 0 676.638 0 0 0 676.638)
(679.735 0 0 0 679.735 0 0 0 679.735)
(687.459 0 0 0 687.459 0 0 0 687.459)
(692.984 0 0 0 692.984 0 0 0 692.984)
(682.657 0 0 0 682.657 0 0 0 682.657)
(682.204 0 0 0 682.204 0 0 0 682.204)
(682.216 0 0 0 682.216 0 0 0 682.216)
(682.218 0 0 0 682.218 0 0 0 682.218)
(682.208 0 0 0 682.208 0 0 0 682.208)
(682.186 0 0 0 682.186 0 0 0 682.186)
(682.15 0 0 0 682.15 0 0 0 682.15)
(682.098 0 0 0 682.098 0 0 0 682.098)
(682.029 0 0 0 682.029 0 0 0 682.029)
(681.94 0 0 0 681.94 0 0 0 681.94)
(681.83 0 0 0 681.83 0 0 0 681.83)
(681.698 0 0 0 681.698 0 0 0 681.698)
(681.546 0 0 0 681.546 0 0 0 681.546)
(681.373 0 0 0 681.373 0 0 0 681.373)
(681.176 0 0 0 681.176 0 0 0 681.176)
(680.947 0 0 0 680.947 0 0 0 680.947)
(680.668 0 0 0 680.668 0 0 0 680.668)
(680.32 0 0 0 680.32 0 0 0 680.32)
(679.898 0 0 0 679.898 0 0 0 679.898)
(679.455 0 0 0 679.455 0 0 0 679.455)
(679.171 0 0 0 679.171 0 0 0 679.171)
(679.597 0 0 0 679.597 0 0 0 679.597)
(682.066 0 0 0 682.066 0 0 0 682.066)
(688.949 0 0 0 688.949 0 0 0 688.949)
(693.469 0 0 0 693.469 0 0 0 693.469)
(679.132 0 0 0 679.132 0 0 0 679.132)
(678.628 0 0 0 678.628 0 0 0 678.628)
(678.612 0 0 0 678.612 0 0 0 678.612)
(678.586 0 0 0 678.586 0 0 0 678.586)
(678.551 0 0 0 678.551 0 0 0 678.551)
(678.505 0 0 0 678.505 0 0 0 678.505)
(678.447 0 0 0 678.447 0 0 0 678.447)
(678.375 0 0 0 678.375 0 0 0 678.375)
(678.287 0 0 0 678.287 0 0 0 678.287)
(678.181 0 0 0 678.181 0 0 0 678.181)
(678.057 0 0 0 678.057 0 0 0 678.057)
(677.918 0 0 0 677.918 0 0 0 677.918)
(677.769 0 0 0 677.769 0 0 0 677.769)
(677.619 0 0 0 677.619 0 0 0 677.619)
(677.47 0 0 0 677.47 0 0 0 677.47)
(677.321 0 0 0 677.321 0 0 0 677.321)
(677.16 0 0 0 677.16 0 0 0 677.16)
(676.969 0 0 0 676.969 0 0 0 676.969)
(676.741 0 0 0 676.741 0 0 0 676.741)
(676.534 0 0 0 676.534 0 0 0 676.534)
(676.539 0 0 0 676.539 0 0 0 676.539)
(677.331 0 0 0 677.331 0 0 0 677.331)
(680.285 0 0 0 680.285 0 0 0 680.285)
(687.818 0 0 0 687.818 0 0 0 687.818)
(693.104 0 0 0 693.104 0 0 0 693.104)
(683.416 0 0 0 683.416 0 0 0 683.416)
(682.959 0 0 0 682.959 0 0 0 682.959)
(682.975 0 0 0 682.975 0 0 0 682.975)
(682.979 0 0 0 682.979 0 0 0 682.979)
(682.972 0 0 0 682.972 0 0 0 682.972)
(682.952 0 0 0 682.952 0 0 0 682.952)
(682.917 0 0 0 682.917 0 0 0 682.917)
(682.866 0 0 0 682.866 0 0 0 682.866)
(682.797 0 0 0 682.797 0 0 0 682.797)
(682.708 0 0 0 682.708 0 0 0 682.708)
(682.596 0 0 0 682.596 0 0 0 682.596)
(682.461 0 0 0 682.461 0 0 0 682.461)
(682.303 0 0 0 682.303 0 0 0 682.303)
(682.12 0 0 0 682.12 0 0 0 682.12)
(681.907 0 0 0 681.907 0 0 0 681.907)
(681.653 0 0 0 681.653 0 0 0 681.653)
(681.342 0 0 0 681.342 0 0 0 681.342)
(680.954 0 0 0 680.954 0 0 0 680.954)
(680.483 0 0 0 680.483 0 0 0 680.483)
(679.98 0 0 0 679.98 0 0 0 679.98)
(679.624 0 0 0 679.624 0 0 0 679.624)
(679.959 0 0 0 679.959 0 0 0 679.959)
(682.313 0 0 0 682.313 0 0 0 682.313)
(689.061 0 0 0 689.061 0 0 0 689.061)
(693.486 0 0 0 693.486 0 0 0 693.486)
(683.416 0 0 0 683.416 0 0 0 683.416)
(682.959 0 0 0 682.959 0 0 0 682.959)
(682.974 0 0 0 682.974 0 0 0 682.974)
(682.979 0 0 0 682.979 0 0 0 682.979)
(682.972 0 0 0 682.972 0 0 0 682.972)
(682.951 0 0 0 682.951 0 0 0 682.951)
(682.917 0 0 0 682.917 0 0 0 682.917)
(682.866 0 0 0 682.866 0 0 0 682.866)
(682.797 0 0 0 682.797 0 0 0 682.797)
(682.707 0 0 0 682.707 0 0 0 682.707)
(682.596 0 0 0 682.596 0 0 0 682.596)
(682.461 0 0 0 682.461 0 0 0 682.461)
(682.303 0 0 0 682.303 0 0 0 682.303)
(682.119 0 0 0 682.119 0 0 0 682.119)
(681.906 0 0 0 681.906 0 0 0 681.906)
(681.653 0 0 0 681.653 0 0 0 681.653)
(681.342 0 0 0 681.342 0 0 0 681.342)
(680.954 0 0 0 680.954 0 0 0 680.954)
(680.482 0 0 0 680.482 0 0 0 680.482)
(679.98 0 0 0 679.98 0 0 0 679.98)
(679.623 0 0 0 679.623 0 0 0 679.623)
(679.958 0 0 0 679.958 0 0 0 679.958)
(682.312 0 0 0 682.312 0 0 0 682.312)
(689.059 0 0 0 689.059 0 0 0 689.059)
(693.485 0 0 0 693.485 0 0 0 693.485)
(679.132 0 0 0 679.132 0 0 0 679.132)
(678.629 0 0 0 678.629 0 0 0 678.629)
(678.612 0 0 0 678.612 0 0 0 678.612)
(678.586 0 0 0 678.586 0 0 0 678.586)
(678.551 0 0 0 678.551 0 0 0 678.551)
(678.505 0 0 0 678.505 0 0 0 678.505)
(678.447 0 0 0 678.447 0 0 0 678.447)
(678.375 0 0 0 678.375 0 0 0 678.375)
(678.287 0 0 0 678.287 0 0 0 678.287)
(678.181 0 0 0 678.181 0 0 0 678.181)
(678.057 0 0 0 678.057 0 0 0 678.057)
(677.918 0 0 0 677.918 0 0 0 677.918)
(677.77 0 0 0 677.77 0 0 0 677.77)
(677.619 0 0 0 677.619 0 0 0 677.619)
(677.47 0 0 0 677.47 0 0 0 677.47)
(677.321 0 0 0 677.321 0 0 0 677.321)
(677.16 0 0 0 677.16 0 0 0 677.16)
(676.969 0 0 0 676.969 0 0 0 676.969)
(676.741 0 0 0 676.741 0 0 0 676.741)
(676.535 0 0 0 676.535 0 0 0 676.535)
(676.539 0 0 0 676.539 0 0 0 676.539)
(677.331 0 0 0 677.331 0 0 0 677.331)
(680.286 0 0 0 680.286 0 0 0 680.286)
(687.818 0 0 0 687.818 0 0 0 687.818)
(693.104 0 0 0 693.104 0 0 0 693.104)
)
;

boundaryField
{
    outletCentralUnloaded
    {
        type            zeroGradient;
    }
    inletCentralUnloaded
    {
        type            zeroGradient;
    }
    outletFuelElement
    {
        type            zeroGradient;
    }
    inletFuelElement
    {
        type            zeroGradient;
    }
    defaultFaces
    {
        type            zeroGradient;
    }
    baffle_master
    {
        type            zeroGradient;
    }
    baffle_slave
    {
        type            zeroGradient;
    }
}


// ************************************************************************* //
