/*--------------------------------*- C++ -*----------------------------------*\
| =========                 |                                                 |
| \\      /  F ield         | OpenFOAM: The Open Source CFD Toolbox           |
|  \\    /   O peration     | Version:  2212                                  |
|   \\  /    A nd           | Website:  www.openfoam.com                      |
|    \\/     M anipulation  |                                                 |
\*---------------------------------------------------------------------------*/
FoamFile
{
    version     2.0;
    format      ascii;
    arch        "LSB;label=32;scalar=64";
    class       volTensorField;
    location    "110/fluidRegion";
    object      KdTotU;
}
// * * * * * * * * * * * * * * * * * * * * * * * * * * * * * * * * * * * * * //

dimensions      [1 -2 -2 0 0 0 0];

internalField   nonuniform List<tensor> 
17
(
(5252.12 0 0 0 5252.12 0 0 0 5252.12)
(5252.12 0 0 0 5252.12 0 0 0 5252.12)
(9041.49 0 0 0 9041.49 0 0 0 9041.49)
(12959.2 0 0 0 12959.2 0 0 0 12959.2)
(15003.9 0 0 0 15003.9 0 0 0 15003.9)
(17116.1 0 0 0 17116.1 0 0 0 17116.1)
(19567.7 0 0 0 19567.7 0 0 0 19567.7)
(22637.8 0 0 0 22637.8 0 0 0 22637.8)
(26582.1 0 0 0 26582.1 0 0 0 26582.1)
(31670.8 0 0 0 31670.8 0 0 0 31670.8)
(38137.6 0 0 0 38137.6 0 0 0 38137.6)
(46094.3 0 0 0 46094.3 0 0 0 46094.3)
(55447.9 0 0 0 55447.9 0 0 0 55447.9)
(65884.7 0 0 0 65884.7 0 0 0 65884.7)
(76959 0 0 0 76959 0 0 0 76959)
(88209.1 0 0 0 88209.1 0 0 0 88209.1)
(99457.9 0 0 0 99457.9 0 0 0 99457.9)
)
;

boundaryField
{
    inlet
    {
        type            zeroGradient;
    }
    outlet
    {
        type            zeroGradient;
    }
    fixedWalls
    {
        type            zeroGradient;
    }
}


// ************************************************************************* //
