/*--------------------------------*- C++ -*----------------------------------*\
| =========                 |                                                 |
| \\      /  F ield         | OpenFOAM: The Open Source CFD Toolbox           |
|  \\    /   O peration     | Version:  2212                                  |
|   \\  /    A nd           | Website:  www.openfoam.com                      |
|    \\/     M anipulation  |                                                 |
\*---------------------------------------------------------------------------*/
FoamFile
{
    version     2.0;
    format      ascii;
    arch        "LSB;label=32;scalar=64";
    class       volScalarField;
    location    "110/fluidRegion";
    object      p;
}
// * * * * * * * * * * * * * * * * * * * * * * * * * * * * * * * * * * * * * //

dimensions      [1 -1 -2 0 0 0 0];

internalField   nonuniform List<scalar> 
17
(
1.49028e+07
1.49019e+07
1.49003e+07
1.48965e+07
1.48921e+07
1.48873e+07
1.4882e+07
1.4876e+07
1.48691e+07
1.48611e+07
1.48516e+07
1.48403e+07
1.48267e+07
1.48107e+07
1.4792e+07
1.47705e+07
1.47464e+07
)
;

boundaryField
{
    inlet
    {
        type            calculated;
        value           uniform 1.49033e+07;
    }
    outlet
    {
        type            calculated;
        value           uniform 1.47332e+07;
    }
    fixedWalls
    {
        type            calculated;
        value           nonuniform List<scalar> 
68
(
1.49028e+07
1.49019e+07
1.49003e+07
1.48965e+07
1.48921e+07
1.48873e+07
1.4882e+07
1.4876e+07
1.48691e+07
1.48611e+07
1.48516e+07
1.48403e+07
1.48267e+07
1.48107e+07
1.4792e+07
1.47705e+07
1.47464e+07
1.49028e+07
1.49019e+07
1.49003e+07
1.48965e+07
1.48921e+07
1.48873e+07
1.4882e+07
1.4876e+07
1.48691e+07
1.48611e+07
1.48516e+07
1.48403e+07
1.48267e+07
1.48107e+07
1.4792e+07
1.47705e+07
1.47464e+07
1.49028e+07
1.49019e+07
1.49003e+07
1.48965e+07
1.48921e+07
1.48873e+07
1.4882e+07
1.4876e+07
1.48691e+07
1.48611e+07
1.48516e+07
1.48403e+07
1.48267e+07
1.48107e+07
1.4792e+07
1.47705e+07
1.47464e+07
1.49028e+07
1.49019e+07
1.49003e+07
1.48965e+07
1.48921e+07
1.48873e+07
1.4882e+07
1.4876e+07
1.48691e+07
1.48611e+07
1.48516e+07
1.48403e+07
1.48267e+07
1.48107e+07
1.4792e+07
1.47705e+07
1.47464e+07
)
;
    }
}


// ************************************************************************* //
