/*--------------------------------*- C++ -*----------------------------------*\
| =========                 |                                                 |
| \\      /  F ield         | OpenFOAM: The Open Source CFD Toolbox           |
|  \\    /   O peration     | Version:  2212                                  |
|   \\  /    A nd           | Website:  www.openfoam.com                      |
|    \\/     M anipulation  |                                                 |
\*---------------------------------------------------------------------------*/
FoamFile
{
    version     2.0;
    format      ascii;
    arch        "LSB;label=32;scalar=64";
    class       volScalarField;
    location    "110/fluidRegion";
    object      p_rgh;
}
// * * * * * * * * * * * * * * * * * * * * * * * * * * * * * * * * * * * * * //

dimensions      [1 -1 -2 0 0 0 0];

internalField   nonuniform List<scalar> 
17
(
1.4903e+07
1.49024e+07
1.49012e+07
1.4898e+07
1.48941e+07
1.48899e+07
1.48851e+07
1.48796e+07
1.48731e+07
1.48655e+07
1.48563e+07
1.48453e+07
1.4832e+07
1.48161e+07
1.47976e+07
1.47764e+07
1.47524e+07
)
;

boundaryField
{
    inlet
    {
        type            fixedFluxPressure;
        gradient        uniform 12087.9;
        value           uniform 1.49033e+07;
    }
    outlet
    {
        type            fixedValue;
        value           uniform 1.47394e+07;
    }
    fixedWalls
    {
        type            fixedFluxPressure;
        gradient        uniform 0;
        value           nonuniform List<scalar> 
68
(
1.4903e+07
1.49024e+07
1.49012e+07
1.4898e+07
1.48941e+07
1.48899e+07
1.48851e+07
1.48796e+07
1.48731e+07
1.48655e+07
1.48563e+07
1.48453e+07
1.4832e+07
1.48161e+07
1.47976e+07
1.47764e+07
1.47524e+07
1.4903e+07
1.49024e+07
1.49012e+07
1.4898e+07
1.48941e+07
1.48899e+07
1.48851e+07
1.48796e+07
1.48731e+07
1.48655e+07
1.48563e+07
1.48453e+07
1.4832e+07
1.48161e+07
1.47976e+07
1.47764e+07
1.47524e+07
1.4903e+07
1.49024e+07
1.49012e+07
1.4898e+07
1.48941e+07
1.48899e+07
1.48851e+07
1.48796e+07
1.48731e+07
1.48655e+07
1.48563e+07
1.48453e+07
1.4832e+07
1.48161e+07
1.47976e+07
1.47764e+07
1.47524e+07
1.4903e+07
1.49024e+07
1.49012e+07
1.4898e+07
1.48941e+07
1.48899e+07
1.48851e+07
1.48796e+07
1.48731e+07
1.48655e+07
1.48563e+07
1.48453e+07
1.4832e+07
1.48161e+07
1.47976e+07
1.47764e+07
1.47524e+07
)
;
    }
}


// ************************************************************************* //
