/*--------------------------------*- C++ -*----------------------------------*\
| =========                 |                                                 |
| \\      /  F ield         | OpenFOAM: The Open Source CFD Toolbox           |
|  \\    /   O peration     | Version:  2212                                  |
|   \\  /    A nd           | Website:  www.openfoam.com                      |
|    \\/     M anipulation  |                                                 |
\*---------------------------------------------------------------------------*/
FoamFile
{
    version     2.0;
    format      ascii;
    arch        "LSB;label=32;scalar=64";
    class       volScalarField;
    location    "63/fluidRegion";
    object      alphat;
}
// * * * * * * * * * * * * * * * * * * * * * * * * * * * * * * * * * * * * * //

dimensions      [1 -1 -1 0 0 0 0];

internalField   nonuniform List<scalar> 
350
(
0.00258566
0.00258562
0.00258559
0.00258557
0.00258555
0.00258555
0.00258554
0.00258555
0.00258558
0.00258563
0.0025857
0.0025858
0.0025859
0.00258602
0.00258617
0.00258636
0.00258665
0.00258709
0.00258777
0.00258882
0.00259041
0.00259284
0.00259656
0.00260226
0.00261099
0.00258566
0.00258562
0.00258559
0.00258557
0.00258555
0.00258555
0.00258554
0.00258555
0.00258558
0.00258563
0.0025857
0.0025858
0.0025859
0.00258602
0.00258617
0.00258636
0.00258665
0.00258709
0.00258777
0.00258882
0.00259041
0.00259284
0.00259656
0.00260226
0.00261099
0.000895876
0.000884271
0.00087286
0.000861288
0.00084945
0.000837239
0.000824552
0.000811289
0.000797366
0.000782717
0.000767311
0.000751155
0.000734292
0.000716792
0.000698736
0.000680218
0.000661414
0.000642781
0.000625498
0.000612399
0.000609881
0.000631329
0.000699562
0.000832303
0.00100221
0.000888018
0.000876427
0.000865051
0.000853522
0.000841735
0.000829583
0.000816961
0.00080377
0.000789922
0.000775354
0.000760035
0.000743975
0.000727229
0.000709876
0.000692012
0.000673738
0.000655231
0.000636933
0.000620001
0.000607244
0.00060504
0.000626815
0.000695611
0.000829603
0.00100146
0.00089713
0.000885511
0.00087409
0.000862507
0.000850655
0.000838431
0.000825728
0.00081245
0.000798509
0.000783843
0.000768419
0.000752241
0.000735354
0.000717824
0.00069973
0.000681166
0.000662308
0.000643614
0.000626266
0.000613102
0.000610521
0.000631907
0.000700056
0.000832639
0.00100232
0.000889822
0.000878232
0.000866851
0.000855315
0.000843518
0.000831355
0.00081872
0.000805513
0.000791649
0.000777063
0.000761724
0.000745642
0.000728868
0.000711481
0.000693571
0.000675241
0.000656666
0.00063829
0.000621277
0.000608441
0.000606165
0.000627865
0.000696532
0.000830236
0.00100164
0.000889822
0.000878232
0.000866851
0.000855315
0.000843518
0.000831355
0.00081872
0.000805514
0.000791649
0.000777063
0.000761724
0.000745642
0.000728868
0.000711481
0.000693572
0.000675242
0.000656666
0.000638291
0.000621278
0.000608442
0.000606166
0.000627866
0.000696532
0.000830235
0.00100164
0.000897129
0.000885511
0.00087409
0.000862506
0.000850655
0.00083843
0.000825728
0.00081245
0.000798509
0.000783843
0.000768419
0.000752242
0.000735354
0.000717825
0.000699731
0.000681168
0.000662311
0.000643617
0.000626269
0.000613106
0.000610526
0.000631912
0.00070006
0.000832643
0.00100232
0.000888018
0.000876426
0.000865051
0.000853522
0.000841734
0.000829583
0.000816961
0.000803769
0.000789922
0.000775354
0.000760034
0.000743975
0.000727228
0.000709876
0.000692011
0.000673738
0.000655231
0.000636933
0.000620001
0.000607245
0.000605041
0.000626816
0.000695612
0.000829604
0.00100146
0.000895876
0.000884271
0.000872859
0.000861288
0.00084945
0.000837239
0.000824552
0.000811289
0.000797366
0.000782717
0.000767311
0.000751155
0.000734293
0.000716793
0.000698736
0.000680218
0.000661415
0.000642782
0.0006255
0.000612403
0.000609886
0.000631336
0.000699571
0.00083231
0.00100221
0.000889822
0.000878232
0.000866851
0.000855315
0.000843518
0.000831355
0.00081872
0.000805514
0.000791649
0.000777063
0.000761724
0.000745642
0.000728868
0.000711481
0.000693572
0.000675242
0.000656666
0.000638291
0.000621278
0.000608442
0.000606166
0.000627867
0.000696535
0.000830239
0.00100164
0.00089713
0.000885511
0.00087409
0.000862506
0.000850655
0.000838431
0.000825728
0.00081245
0.000798509
0.000783843
0.000768418
0.000752241
0.000735353
0.000717823
0.000699729
0.000681165
0.000662307
0.000643611
0.000626261
0.000613095
0.000610511
0.000631893
0.000700038
0.000832623
0.00100232
0.00089713
0.000885512
0.00087409
0.000862507
0.000850656
0.000838431
0.000825729
0.000812451
0.00079851
0.000783844
0.00076842
0.000752243
0.000735356
0.000717826
0.000699733
0.00068117
0.000662313
0.00064362
0.000626272
0.00061311
0.000610529
0.000631914
0.000700061
0.000832642
0.00100232
0.000889822
0.000878232
0.000866851
0.000855315
0.000843519
0.000831355
0.00081872
0.000805514
0.00079165
0.000777063
0.000761724
0.000745643
0.000728869
0.000711482
0.000693573
0.000675243
0.000656668
0.000638294
0.000621282
0.000608448
0.000606174
0.000627878
0.000696547
0.000830249
0.00100164
)
;

boundaryField
{
    outletCentralUnloaded
    {
        type            zeroGradient;
    }
    inletCentralUnloaded
    {
        type            zeroGradient;
    }
    outletFuelElement
    {
        type            zeroGradient;
    }
    inletFuelElement
    {
        type            zeroGradient;
    }
    defaultFaces
    {
        type            zeroGradient;
    }
    baffle_master
    {
        type            calculated;
        value           nonuniform List<scalar> 
150
(
0.00258566
0.00258566
0.00258566
0.00258562
0.00258562
0.00258562
0.00258559
0.00258559
0.00258559
0.00258557
0.00258557
0.00258557
0.00258555
0.00258555
0.00258555
0.00258555
0.00258555
0.00258555
0.00258554
0.00258554
0.00258554
0.00258555
0.00258555
0.00258555
0.00258558
0.00258558
0.00258558
0.00258563
0.00258563
0.00258563
0.0025857
0.0025857
0.0025857
0.0025858
0.0025858
0.0025858
0.0025859
0.0025859
0.0025859
0.00258602
0.00258602
0.00258602
0.00258617
0.00258617
0.00258617
0.00258636
0.00258636
0.00258636
0.00258665
0.00258665
0.00258665
0.00258709
0.00258709
0.00258709
0.00258777
0.00258777
0.00258777
0.00258882
0.00258882
0.00258882
0.00259041
0.00259041
0.00259041
0.00259284
0.00259284
0.00259284
0.00259656
0.00259656
0.00259656
0.00260226
0.00260226
0.00260226
0.00261099
0.00261099
0.00261099
0.00258566
0.00258566
0.00258566
0.00258562
0.00258562
0.00258562
0.00258559
0.00258559
0.00258559
0.00258557
0.00258557
0.00258557
0.00258555
0.00258555
0.00258555
0.00258555
0.00258555
0.00258555
0.00258554
0.00258554
0.00258554
0.00258555
0.00258555
0.00258555
0.00258558
0.00258558
0.00258558
0.00258563
0.00258563
0.00258563
0.0025857
0.0025857
0.0025857
0.0025858
0.0025858
0.0025858
0.0025859
0.0025859
0.0025859
0.00258602
0.00258602
0.00258602
0.00258617
0.00258617
0.00258617
0.00258636
0.00258636
0.00258636
0.00258665
0.00258665
0.00258665
0.00258709
0.00258709
0.00258709
0.00258777
0.00258777
0.00258777
0.00258882
0.00258882
0.00258882
0.00259041
0.00259041
0.00259041
0.00259284
0.00259284
0.00259284
0.00259656
0.00259656
0.00259656
0.00260226
0.00260226
0.00260226
0.00261099
0.00261099
0.00261099
)
;
    }
    baffle_slave
    {
        type            calculated;
        value           nonuniform List<scalar> 
150
(
0.000888018
0.000889822
0.000889822
0.000876427
0.000878232
0.000878232
0.000865051
0.000866851
0.000866851
0.000853522
0.000855315
0.000855315
0.000841735
0.000843518
0.000843519
0.000829583
0.000831355
0.000831355
0.000816961
0.00081872
0.00081872
0.00080377
0.000805513
0.000805514
0.000789922
0.000791649
0.00079165
0.000775354
0.000777063
0.000777063
0.000760035
0.000761724
0.000761724
0.000743975
0.000745642
0.000745643
0.000727229
0.000728868
0.000728869
0.000709876
0.000711481
0.000711482
0.000692012
0.000693571
0.000693573
0.000673738
0.000675241
0.000675243
0.000655231
0.000656666
0.000656668
0.000636933
0.00063829
0.000638294
0.000620001
0.000621277
0.000621282
0.000607244
0.000608441
0.000608448
0.00060504
0.000606165
0.000606174
0.000626815
0.000627865
0.000627878
0.000695611
0.000696532
0.000696547
0.000829603
0.000830236
0.000830249
0.00100146
0.00100164
0.00100164
0.000889822
0.000888018
0.000889822
0.000878232
0.000876426
0.000878232
0.000866851
0.000865051
0.000866851
0.000855315
0.000853522
0.000855315
0.000843518
0.000841734
0.000843518
0.000831355
0.000829583
0.000831355
0.00081872
0.000816961
0.00081872
0.000805514
0.000803769
0.000805514
0.000791649
0.000789922
0.000791649
0.000777063
0.000775354
0.000777063
0.000761724
0.000760034
0.000761724
0.000745642
0.000743975
0.000745642
0.000728868
0.000727228
0.000728868
0.000711481
0.000709876
0.000711481
0.000693572
0.000692011
0.000693572
0.000675242
0.000673738
0.000675242
0.000656666
0.000655231
0.000656666
0.000638291
0.000636933
0.000638291
0.000621278
0.000620001
0.000621278
0.000608442
0.000607245
0.000608442
0.000606166
0.000605041
0.000606166
0.000627866
0.000626816
0.000627867
0.000696532
0.000695612
0.000696535
0.000830235
0.000829604
0.000830239
0.00100164
0.00100146
0.00100164
)
;
    }
}


// ************************************************************************* //
