/*--------------------------------*- C++ -*----------------------------------*\
| =========                 |                                                 |
| \\      /  F ield         | OpenFOAM: The Open Source CFD Toolbox           |
|  \\    /   O peration     | Version:  2212                                  |
|   \\  /    A nd           | Website:  www.openfoam.com                      |
|    \\/     M anipulation  |                                                 |
\*---------------------------------------------------------------------------*/
FoamFile
{
    version     2.0;
    format      ascii;
    arch        "LSB;label=32;scalar=64";
    class       volScalarField;
    location    "63/fluidRegion";
    object      epsilon;
}
// * * * * * * * * * * * * * * * * * * * * * * * * * * * * * * * * * * * * * //

dimensions      [0 2 -3 0 0 0 0];

internalField   nonuniform List<scalar> 
350
(
66.983
66.967
66.9511
66.9352
66.9192
66.9032
66.8871
66.871
66.8549
66.8388
66.8228
66.8073
66.7925
66.7788
66.7667
66.7571
66.7511
66.7506
66.7585
66.7796
66.8209
66.8932
67.0129
67.2047
67.5063
66.983
66.967
66.9511
66.9352
66.9192
66.9032
66.8871
66.871
66.8549
66.8388
66.8228
66.8073
66.7925
66.7788
66.7667
66.7571
66.7511
66.7506
66.7585
66.7796
66.8209
66.8932
67.0129
67.2047
67.5063
7.65389e+06
7.04344e+06
6.36779e+06
5.64812e+06
4.91231e+06
4.1859e+06
3.49106e+06
2.84581e+06
2.26367e+06
1.75347e+06
1.31955e+06
962045
677406
459081
298317
185101
109157
60853.8
31883.7
15617.9
7151.9
3117.46
1385.78
735.661
547.115
7.81961e+06
7.1974e+06
6.50863e+06
5.77441e+06
5.02328e+06
4.28137e+06
3.57139e+06
2.91181e+06
2.31651e+06
1.79459e+06
1.35054e+06
984582
693147
469585
304976
189086
111392
62017.6
32439.1
15856.4
7241.53
3145.82
1392.97
737.105
547.538
7.62678e+06
7.01819e+06
6.34479e+06
5.62758e+06
4.89433e+06
4.17049e+06
3.47814e+06
2.83524e+06
2.25523e+06
1.74693e+06
1.31464e+06
958484
674925
457429
297270
184475
108805
60669.8
31795
15579.1
7136.67
3112.19
1384.15
735.17
546.939
7.7829e+06
7.16324e+06
6.47729e+06
5.74624e+06
4.99847e+06
4.25998e+06
3.55335e+06
2.89696e+06
2.30459e+06
1.7853e+06
1.34352e+06
979467
689567
467192
303456
188175
110881
61751.3
32312
15801.9
7221.08
3139.4
1391.37
736.805
547.459
7.7829e+06
7.16324e+06
6.47729e+06
5.74624e+06
4.99847e+06
4.25998e+06
3.55335e+06
2.89696e+06
2.30459e+06
1.7853e+06
1.34352e+06
979467
689567
467192
303456
188175
110881
61751.3
32311.9
15801.9
7221.08
3139.4
1391.37
736.805
547.459
7.62679e+06
7.0182e+06
6.3448e+06
5.62759e+06
4.89433e+06
4.1705e+06
3.47814e+06
2.83524e+06
2.25524e+06
1.74694e+06
1.31464e+06
958485
674926
457430
297271
184475
108805
60669.8
31794.9
15579.1
7136.65
3112.18
1384.14
735.166
546.938
7.81961e+06
7.1974e+06
6.50863e+06
5.77441e+06
5.02328e+06
4.28137e+06
3.57139e+06
2.91181e+06
2.31651e+06
1.79459e+06
1.35054e+06
984582
693147
469585
304976
189086
111392
62017.6
32439.1
15856.4
7241.53
3145.82
1392.97
737.105
547.539
7.65389e+06
7.04344e+06
6.36779e+06
5.64812e+06
4.91231e+06
4.1859e+06
3.49106e+06
2.84581e+06
2.26367e+06
1.75347e+06
1.31955e+06
962045
677406
459081
298316
185101
109157
60853.8
31883.6
15617.9
7151.88
3117.45
1385.78
735.659
547.114
7.7829e+06
7.16324e+06
6.47729e+06
5.74624e+06
4.99847e+06
4.25998e+06
3.55335e+06
2.89696e+06
2.30459e+06
1.7853e+06
1.34352e+06
979467
689567
467192
303456
188175
110881
61751.3
32311.9
15801.9
7221.08
3139.4
1391.37
736.805
547.458
7.62678e+06
7.01819e+06
6.34479e+06
5.62758e+06
4.89433e+06
4.17049e+06
3.47814e+06
2.83524e+06
2.25523e+06
1.74694e+06
1.31464e+06
958484
674926
457429
297271
184475
108805
60669.9
31795
15579.1
7136.7
3112.21
1384.16
735.176
546.942
7.62679e+06
7.0182e+06
6.3448e+06
5.62759e+06
4.89433e+06
4.1705e+06
3.47814e+06
2.83524e+06
2.25524e+06
1.74694e+06
1.31464e+06
958485
674926
457429
297271
184474
108805
60669.7
31794.9
15579
7136.64
3112.17
1384.14
735.167
546.938
7.7829e+06
7.16324e+06
6.47729e+06
5.74624e+06
4.99847e+06
4.25998e+06
3.55335e+06
2.89696e+06
2.30459e+06
1.7853e+06
1.34352e+06
979467
689567
467192
303456
188175
110881
61751.2
32311.9
15801.8
7221.06
3139.38
1391.37
736.803
547.458
)
;

boundaryField
{
    outletCentralUnloaded
    {
        type            zeroGradient;
    }
    inletCentralUnloaded
    {
        type            zeroGradient;
    }
    outletFuelElement
    {
        type            zeroGradient;
    }
    inletFuelElement
    {
        type            zeroGradient;
    }
    defaultFaces
    {
        type            zeroGradient;
    }
    baffle_master
    {
        type            zeroGradient;
    }
    baffle_slave
    {
        type            zeroGradient;
    }
}


// ************************************************************************* //
