/*--------------------------------*- C++ -*----------------------------------*\
| =========                 |                                                 |
| \\      /  F ield         | OpenFOAM: The Open Source CFD Toolbox           |
|  \\    /   O peration     | Version:  2212                                  |
|   \\  /    A nd           | Website:  www.openfoam.com                      |
|    \\/     M anipulation  |                                                 |
\*---------------------------------------------------------------------------*/
FoamFile
{
    version     2.0;
    format      ascii;
    arch        "LSB;label=32;scalar=64";
    class       volScalarField;
    location    "63/fluidRegion";
    object      heatFlux.structure;
}
// * * * * * * * * * * * * * * * * * * * * * * * * * * * * * * * * * * * * * //

dimensions      [1 0 -3 0 0 0 0];

internalField   nonuniform List<scalar> 
350
(
-258322
-258325
-258328
-258329
-258327
-258324
-258321
-258318
-258318
-258320
-258323
-258329
-258335
-258343
-258351
-258359
-258366
-258372
-258376
-258377
-258377
-258376
-258376
-258376
-258807
-258322
-258325
-258328
-258329
-258327
-258324
-258321
-258318
-258318
-258320
-258323
-258329
-258335
-258343
-258351
-258359
-258366
-258372
-258376
-258377
-258377
-258376
-258376
-258376
-258807
449524
1.34332e+06
2.21592e+06
3.05356e+06
3.84303e+06
4.57189e+06
5.22862e+06
5.80289e+06
6.28563e+06
6.66924e+06
6.94766e+06
7.1165e+06
7.17311e+06
7.11658e+06
6.94782e+06
6.66948e+06
6.28595e+06
5.80328e+06
5.22906e+06
4.57241e+06
3.84362e+06
3.05424e+06
2.21663e+06
1.3441e+06
450483
454660
1.3587e+06
2.24129e+06
3.08853e+06
3.88704e+06
4.62425e+06
5.28851e+06
5.86935e+06
6.35763e+06
6.74563e+06
7.02724e+06
7.19802e+06
7.25527e+06
7.1981e+06
7.0274e+06
6.74587e+06
6.35795e+06
5.86975e+06
5.28895e+06
4.62478e+06
3.88765e+06
3.08922e+06
2.24202e+06
1.3595e+06
455642
448706
1.34087e+06
2.21188e+06
3.04799e+06
3.83603e+06
4.56355e+06
5.21909e+06
5.79231e+06
6.27417e+06
6.65707e+06
6.93499e+06
7.10352e+06
7.16002e+06
7.1036e+06
6.93514e+06
6.65731e+06
6.27448e+06
5.79269e+06
5.21952e+06
4.56407e+06
3.83661e+06
3.04867e+06
2.21259e+06
1.34165e+06
449661
453477
1.35516e+06
2.23545e+06
3.08048e+06
3.87691e+06
4.61219e+06
5.27472e+06
5.85405e+06
6.34105e+06
6.72804e+06
7.00892e+06
7.17925e+06
7.23636e+06
7.17933e+06
7.00908e+06
6.72829e+06
6.34137e+06
5.85445e+06
5.27516e+06
4.61273e+06
3.87751e+06
3.08117e+06
2.23618e+06
1.35595e+06
454454
453477
1.35516e+06
2.23545e+06
3.08048e+06
3.87691e+06
4.61219e+06
5.27472e+06
5.85405e+06
6.34105e+06
6.72804e+06
7.00892e+06
7.17925e+06
7.23636e+06
7.17933e+06
7.00908e+06
6.72828e+06
6.34137e+06
5.85445e+06
5.27516e+06
4.61273e+06
3.87751e+06
3.08117e+06
2.23618e+06
1.35595e+06
454454
448706
1.34087e+06
2.21188e+06
3.04799e+06
3.83602e+06
4.56355e+06
5.21909e+06
5.79231e+06
6.27417e+06
6.65707e+06
6.93499e+06
7.10352e+06
7.16002e+06
7.1036e+06
6.93514e+06
6.65731e+06
6.27448e+06
5.79269e+06
5.21952e+06
4.56407e+06
3.83661e+06
3.04867e+06
2.21259e+06
1.34165e+06
449661
454660
1.3587e+06
2.2413e+06
3.08853e+06
3.88704e+06
4.62425e+06
5.28851e+06
5.86935e+06
6.35763e+06
6.74563e+06
7.02724e+06
7.19801e+06
7.25527e+06
7.1981e+06
7.0274e+06
6.74587e+06
6.35795e+06
5.86975e+06
5.28895e+06
4.62478e+06
3.88765e+06
3.08922e+06
2.24202e+06
1.3595e+06
455642
449524
1.34332e+06
2.21592e+06
3.05356e+06
3.84303e+06
4.57189e+06
5.22862e+06
5.80289e+06
6.28563e+06
6.66924e+06
6.94766e+06
7.1165e+06
7.17311e+06
7.11658e+06
6.94782e+06
6.66948e+06
6.28595e+06
5.80328e+06
5.22906e+06
4.57241e+06
3.84362e+06
3.05424e+06
2.21663e+06
1.3441e+06
450483
453477
1.35516e+06
2.23545e+06
3.08048e+06
3.87691e+06
4.61219e+06
5.27472e+06
5.85405e+06
6.34105e+06
6.72804e+06
7.00892e+06
7.17925e+06
7.23636e+06
7.17933e+06
7.00908e+06
6.72829e+06
6.34137e+06
5.85445e+06
5.27517e+06
4.61273e+06
3.87751e+06
3.08117e+06
2.23618e+06
1.35596e+06
454454
448706
1.34087e+06
2.21188e+06
3.04799e+06
3.83602e+06
4.56355e+06
5.21909e+06
5.79231e+06
6.27417e+06
6.65707e+06
6.93499e+06
7.10352e+06
7.16002e+06
7.1036e+06
6.93514e+06
6.65731e+06
6.27448e+06
5.79269e+06
5.21952e+06
4.56407e+06
3.83661e+06
3.04867e+06
2.21259e+06
1.34165e+06
449661
448706
1.34087e+06
2.21188e+06
3.04799e+06
3.83602e+06
4.56355e+06
5.21909e+06
5.79231e+06
6.27417e+06
6.65707e+06
6.93499e+06
7.10352e+06
7.16002e+06
7.1036e+06
6.93514e+06
6.65731e+06
6.27448e+06
5.79269e+06
5.21952e+06
4.56407e+06
3.83661e+06
3.04867e+06
2.21259e+06
1.34165e+06
449661
453477
1.35516e+06
2.23545e+06
3.08048e+06
3.87691e+06
4.61219e+06
5.27472e+06
5.85405e+06
6.34105e+06
6.72804e+06
7.00892e+06
7.17925e+06
7.23636e+06
7.17933e+06
7.00908e+06
6.72828e+06
6.34137e+06
5.85445e+06
5.27516e+06
4.61273e+06
3.87751e+06
3.08117e+06
2.23618e+06
1.35595e+06
454454
)
;

boundaryField
{
    outletCentralUnloaded
    {
        type            zeroGradient;
    }
    inletCentralUnloaded
    {
        type            zeroGradient;
    }
    outletFuelElement
    {
        type            zeroGradient;
    }
    inletFuelElement
    {
        type            zeroGradient;
    }
    defaultFaces
    {
        type            zeroGradient;
    }
    baffle_master
    {
        type            zeroGradient;
    }
    baffle_slave
    {
        type            zeroGradient;
    }
}


// ************************************************************************* //
