/*--------------------------------*- C++ -*----------------------------------*\
| =========                 |                                                 |
| \\      /  F ield         | OpenFOAM: The Open Source CFD Toolbox           |
|  \\    /   O peration     | Version:  2212                                  |
|   \\  /    A nd           | Website:  www.openfoam.com                      |
|    \\/     M anipulation  |                                                 |
\*---------------------------------------------------------------------------*/
FoamFile
{
    version     2.0;
    format      ascii;
    arch        "LSB;label=32;scalar=64";
    class       volScalarField;
    location    "63/fluidRegion";
    object      htc;
}
// * * * * * * * * * * * * * * * * * * * * * * * * * * * * * * * * * * * * * //

dimensions      [1 0 -3 -1 0 0 0];

internalField   nonuniform List<scalar> 
350
(
3101.52
3101.54
3101.55
3101.54
3101.51
3101.45
3101.4
3101.35
3101.32
3101.32
3101.35
3101.4
3101.46
3101.53
3101.61
3101.69
3101.76
3101.82
3101.84
3101.85
3101.83
3101.81
3101.79
3101.78
3106.93
3101.52
3101.54
3101.55
3101.54
3101.51
3101.45
3101.4
3101.35
3101.32
3101.32
3101.35
3101.4
3101.46
3101.53
3101.61
3101.69
3101.76
3101.82
3101.84
3101.85
3101.83
3101.81
3101.79
3101.78
3106.93
27256.5
27175
26987.6
26675.3
26239.3
25681.9
25005.8
24215.1
23314.8
22312.1
21216.5
20040.5
18799.3
17509.6
16188.1
14848.5
13501.3
12154.4
10817.2
9505.59
8247.75
7090.2
6104.13
5383.38
4944.13
27345.5
27263.6
27076.9
26764.5
26328.1
25769.6
25092
24298.9
23395.4
22388.3
21287
20104
18854.7
17556.4
16226.3
14879
13525.3
12173.1
10831.2
9515.16
8252.74
7090.71
6101.09
5379.14
4942.16
27242.4
27160.5
26973.2
26660.8
26225
25667.7
24992
24201.7
23301.9
22300
21205.3
20030.4
18790.5
17502.2
16181.9
14843.5
13497.2
12151.1
10814.5
9503.57
8246.35
7089.37
6103.71
5383.12
4943.98
27325.7
27244
27057.1
26744.7
26308.3
25750
25072.7
24280.1
23377.2
22371.1
21271.1
20089.7
18842.2
17545.8
16217.6
14872.1
13519.9
12168.9
10828.1
9513.06
8251.69
7090.69
6101.9
5380.23
4942.68
27325.7
27244
27057.1
26744.7
26308.3
25750
25072.7
24280.1
23377.2
22371.1
21271.1
20089.7
18842.2
17545.8
16217.6
14872.1
13519.9
12168.9
10828.1
9513.06
8251.69
7090.69
6101.9
5380.24
4942.68
27242.4
27160.5
26973.2
26660.8
26225
25667.7
24992
24201.7
23302
22300
21205.3
20030.5
18790.5
17502.2
16181.9
14843.5
13497.2
12151.1
10814.5
9503.57
8246.34
7089.36
6103.7
5383.11
4943.97
27345.5
27263.6
27076.9
26764.5
26328.1
25769.6
25092
24298.9
23395.4
22388.3
21287
20104
18854.7
17556.4
16226.3
14879
13525.3
12173.1
10831.2
9515.16
8252.74
7090.71
6101.09
5379.13
4942.16
27256.5
27175
26987.6
26675.3
26239.3
25681.9
25005.8
24215.1
23314.8
22312.1
21216.5
20040.5
18799.3
17509.6
16188.1
14848.5
13501.3
12154.4
10817.2
9505.59
8247.75
7090.2
6104.13
5383.38
4944.13
27325.7
27244
27057.1
26744.7
26308.3
25750
25072.7
24280.1
23377.2
22371.1
21271.1
20089.7
18842.2
17545.8
16217.6
14872.1
13519.9
12168.9
10828.1
9513.06
8251.69
7090.7
6101.9
5380.24
4942.68
27242.4
27160.5
26973.2
26660.8
26225
25667.7
24992
24201.7
23301.9
22300
21205.3
20030.4
18790.5
17502.2
16181.9
14843.5
13497.2
12151.1
10814.5
9503.57
8246.35
7089.37
6103.72
5383.12
4943.98
27242.4
27160.5
26973.2
26660.8
26225
25667.7
24992
24201.7
23302
22300
21205.3
20030.4
18790.5
17502.2
16181.9
14843.5
13497.2
12151.1
10814.5
9503.57
8246.34
7089.36
6103.7
5383.11
4943.98
27325.7
27244
27057.1
26744.7
26308.3
25750
25072.7
24280.1
23377.2
22371.1
21271.1
20089.7
18842.2
17545.8
16217.6
14872.1
13519.9
12168.9
10828.1
9513.06
8251.69
7090.69
6101.9
5380.24
4942.68
)
;

boundaryField
{
    outletCentralUnloaded
    {
        type            zeroGradient;
    }
    inletCentralUnloaded
    {
        type            zeroGradient;
    }
    outletFuelElement
    {
        type            zeroGradient;
    }
    inletFuelElement
    {
        type            zeroGradient;
    }
    defaultFaces
    {
        type            zeroGradient;
    }
    baffle_master
    {
        type            zeroGradient;
    }
    baffle_slave
    {
        type            zeroGradient;
    }
}


// ************************************************************************* //
