/*--------------------------------*- C++ -*----------------------------------*\
| =========                 |                                                 |
| \\      /  F ield         | OpenFOAM: The Open Source CFD Toolbox           |
|  \\    /   O peration     | Version:  2212                                  |
|   \\  /    A nd           | Website:  www.openfoam.com                      |
|    \\/     M anipulation  |                                                 |
\*---------------------------------------------------------------------------*/
FoamFile
{
    version     2.0;
    format      ascii;
    arch        "LSB;label=32;scalar=64";
    class       volTensorField;
    location    "63/fluidRegion";
    object      Kd;
}
// * * * * * * * * * * * * * * * * * * * * * * * * * * * * * * * * * * * * * //

dimensions      [1 -3 -1 0 0 0 0];

internalField   nonuniform List<tensor> 
350
(
(84.7456 0 0 0 84.7456 0 0 0 84.7456)
(84.7457 0 0 0 84.7457 0 0 0 84.7457)
(84.7455 0 0 0 84.7455 0 0 0 84.7455)
(84.7449 0 0 0 84.7449 0 0 0 84.7449)
(84.7436 0 0 0 84.7436 0 0 0 84.7436)
(84.7418 0 0 0 84.7418 0 0 0 84.7418)
(84.7399 0 0 0 84.7399 0 0 0 84.7399)
(84.7383 0 0 0 84.7383 0 0 0 84.7383)
(84.7372 0 0 0 84.7372 0 0 0 84.7372)
(84.7368 0 0 0 84.7368 0 0 0 84.7368)
(84.737 0 0 0 84.737 0 0 0 84.737)
(84.7378 0 0 0 84.7378 0 0 0 84.7378)
(84.7389 0 0 0 84.7389 0 0 0 84.7389)
(84.7404 0 0 0 84.7404 0 0 0 84.7404)
(84.7419 0 0 0 84.7419 0 0 0 84.7419)
(84.7435 0 0 0 84.7435 0 0 0 84.7435)
(84.7449 0 0 0 84.7449 0 0 0 84.7449)
(84.7459 0 0 0 84.7459 0 0 0 84.7459)
(84.7462 0 0 0 84.7462 0 0 0 84.7462)
(84.746 0 0 0 84.746 0 0 0 84.746)
(84.7452 0 0 0 84.7452 0 0 0 84.7452)
(84.7442 0 0 0 84.7442 0 0 0 84.7442)
(84.7433 0 0 0 84.7433 0 0 0 84.7433)
(84.7427 0 0 0 84.7427 0 0 0 84.7427)
(84.8741 0 0 0 84.8741 0 0 0 84.8741)
(84.7456 0 0 0 84.7456 0 0 0 84.7456)
(84.7457 0 0 0 84.7457 0 0 0 84.7457)
(84.7455 0 0 0 84.7455 0 0 0 84.7455)
(84.7449 0 0 0 84.7449 0 0 0 84.7449)
(84.7436 0 0 0 84.7436 0 0 0 84.7436)
(84.7418 0 0 0 84.7418 0 0 0 84.7418)
(84.7399 0 0 0 84.7399 0 0 0 84.7399)
(84.7383 0 0 0 84.7383 0 0 0 84.7383)
(84.7372 0 0 0 84.7372 0 0 0 84.7372)
(84.7368 0 0 0 84.7368 0 0 0 84.7368)
(84.737 0 0 0 84.737 0 0 0 84.737)
(84.7378 0 0 0 84.7378 0 0 0 84.7378)
(84.7389 0 0 0 84.7389 0 0 0 84.7389)
(84.7404 0 0 0 84.7404 0 0 0 84.7404)
(84.7419 0 0 0 84.7419 0 0 0 84.7419)
(84.7435 0 0 0 84.7435 0 0 0 84.7435)
(84.7449 0 0 0 84.7449 0 0 0 84.7449)
(84.7459 0 0 0 84.7459 0 0 0 84.7459)
(84.7462 0 0 0 84.7462 0 0 0 84.7462)
(84.746 0 0 0 84.746 0 0 0 84.746)
(84.7452 0 0 0 84.7452 0 0 0 84.7452)
(84.7442 0 0 0 84.7442 0 0 0 84.7442)
(84.7433 0 0 0 84.7433 0 0 0 84.7433)
(84.7427 0 0 0 84.7427 0 0 0 84.7427)
(84.8741 0 0 0 84.8741 0 0 0 84.8741)
(682.648 0 0 0 682.648 0 0 0 682.648)
(682.194 0 0 0 682.194 0 0 0 682.194)
(682.206 0 0 0 682.206 0 0 0 682.206)
(682.208 0 0 0 682.208 0 0 0 682.208)
(682.198 0 0 0 682.198 0 0 0 682.198)
(682.176 0 0 0 682.176 0 0 0 682.176)
(682.14 0 0 0 682.14 0 0 0 682.14)
(682.089 0 0 0 682.089 0 0 0 682.089)
(682.019 0 0 0 682.019 0 0 0 682.019)
(681.93 0 0 0 681.93 0 0 0 681.93)
(681.82 0 0 0 681.82 0 0 0 681.82)
(681.688 0 0 0 681.688 0 0 0 681.688)
(681.536 0 0 0 681.536 0 0 0 681.536)
(681.363 0 0 0 681.363 0 0 0 681.363)
(681.167 0 0 0 681.167 0 0 0 681.167)
(680.937 0 0 0 680.937 0 0 0 680.937)
(680.658 0 0 0 680.658 0 0 0 680.658)
(680.31 0 0 0 680.31 0 0 0 680.31)
(679.888 0 0 0 679.888 0 0 0 679.888)
(679.445 0 0 0 679.445 0 0 0 679.445)
(679.161 0 0 0 679.161 0 0 0 679.161)
(679.588 0 0 0 679.588 0 0 0 679.588)
(682.057 0 0 0 682.057 0 0 0 682.057)
(688.939 0 0 0 688.939 0 0 0 688.939)
(693.456 0 0 0 693.456 0 0 0 693.456)
(678.108 0 0 0 678.108 0 0 0 678.108)
(677.582 0 0 0 677.582 0 0 0 677.582)
(677.555 0 0 0 677.555 0 0 0 677.555)
(677.519 0 0 0 677.519 0 0 0 677.519)
(677.473 0 0 0 677.473 0 0 0 677.473)
(677.418 0 0 0 677.418 0 0 0 677.418)
(677.352 0 0 0 677.352 0 0 0 677.352)
(677.271 0 0 0 677.271 0 0 0 677.271)
(677.175 0 0 0 677.175 0 0 0 677.175)
(677.061 0 0 0 677.061 0 0 0 677.061)
(676.931 0 0 0 676.931 0 0 0 676.931)
(676.788 0 0 0 676.788 0 0 0 676.788)
(676.638 0 0 0 676.638 0 0 0 676.638)
(676.492 0 0 0 676.492 0 0 0 676.492)
(676.355 0 0 0 676.355 0 0 0 676.355)
(676.228 0 0 0 676.228 0 0 0 676.228)
(676.099 0 0 0 676.099 0 0 0 676.099)
(675.952 0 0 0 675.952 0 0 0 675.952)
(675.781 0 0 0 675.781 0 0 0 675.781)
(675.642 0 0 0 675.642 0 0 0 675.642)
(675.731 0 0 0 675.731 0 0 0 675.731)
(676.629 0 0 0 676.629 0 0 0 676.629)
(679.726 0 0 0 679.726 0 0 0 679.726)
(687.449 0 0 0 687.449 0 0 0 687.449)
(692.971 0 0 0 692.971 0 0 0 692.971)
(683.406 0 0 0 683.406 0 0 0 683.406)
(682.949 0 0 0 682.949 0 0 0 682.949)
(682.964 0 0 0 682.964 0 0 0 682.964)
(682.969 0 0 0 682.969 0 0 0 682.969)
(682.962 0 0 0 682.962 0 0 0 682.962)
(682.942 0 0 0 682.942 0 0 0 682.942)
(682.907 0 0 0 682.907 0 0 0 682.907)
(682.856 0 0 0 682.856 0 0 0 682.856)
(682.787 0 0 0 682.787 0 0 0 682.787)
(682.698 0 0 0 682.698 0 0 0 682.698)
(682.586 0 0 0 682.586 0 0 0 682.586)
(682.452 0 0 0 682.452 0 0 0 682.452)
(682.293 0 0 0 682.293 0 0 0 682.293)
(682.11 0 0 0 682.11 0 0 0 682.11)
(681.897 0 0 0 681.897 0 0 0 681.897)
(681.644 0 0 0 681.644 0 0 0 681.644)
(681.332 0 0 0 681.332 0 0 0 681.332)
(680.944 0 0 0 680.944 0 0 0 680.944)
(680.473 0 0 0 680.473 0 0 0 680.473)
(679.971 0 0 0 679.971 0 0 0 679.971)
(679.614 0 0 0 679.614 0 0 0 679.614)
(679.95 0 0 0 679.95 0 0 0 679.95)
(682.304 0 0 0 682.304 0 0 0 682.304)
(689.051 0 0 0 689.051 0 0 0 689.051)
(693.473 0 0 0 693.473 0 0 0 693.473)
(679.124 0 0 0 679.124 0 0 0 679.124)
(678.619 0 0 0 678.619 0 0 0 678.619)
(678.602 0 0 0 678.602 0 0 0 678.602)
(678.576 0 0 0 678.576 0 0 0 678.576)
(678.541 0 0 0 678.541 0 0 0 678.541)
(678.496 0 0 0 678.496 0 0 0 678.496)
(678.438 0 0 0 678.438 0 0 0 678.438)
(678.366 0 0 0 678.366 0 0 0 678.366)
(678.277 0 0 0 678.277 0 0 0 678.277)
(678.171 0 0 0 678.171 0 0 0 678.171)
(678.047 0 0 0 678.047 0 0 0 678.047)
(677.908 0 0 0 677.908 0 0 0 677.908)
(677.76 0 0 0 677.76 0 0 0 677.76)
(677.609 0 0 0 677.609 0 0 0 677.609)
(677.46 0 0 0 677.46 0 0 0 677.46)
(677.312 0 0 0 677.312 0 0 0 677.312)
(677.15 0 0 0 677.15 0 0 0 677.15)
(676.959 0 0 0 676.959 0 0 0 676.959)
(676.732 0 0 0 676.732 0 0 0 676.732)
(676.525 0 0 0 676.525 0 0 0 676.525)
(676.53 0 0 0 676.53 0 0 0 676.53)
(677.322 0 0 0 677.322 0 0 0 677.322)
(680.277 0 0 0 680.277 0 0 0 680.277)
(687.808 0 0 0 687.808 0 0 0 687.808)
(693.091 0 0 0 693.091 0 0 0 693.091)
(679.124 0 0 0 679.124 0 0 0 679.124)
(678.619 0 0 0 678.619 0 0 0 678.619)
(678.602 0 0 0 678.602 0 0 0 678.602)
(678.576 0 0 0 678.576 0 0 0 678.576)
(678.541 0 0 0 678.541 0 0 0 678.541)
(678.496 0 0 0 678.496 0 0 0 678.496)
(678.438 0 0 0 678.438 0 0 0 678.438)
(678.366 0 0 0 678.366 0 0 0 678.366)
(678.277 0 0 0 678.277 0 0 0 678.277)
(678.171 0 0 0 678.171 0 0 0 678.171)
(678.047 0 0 0 678.047 0 0 0 678.047)
(677.908 0 0 0 677.908 0 0 0 677.908)
(677.76 0 0 0 677.76 0 0 0 677.76)
(677.609 0 0 0 677.609 0 0 0 677.609)
(677.46 0 0 0 677.46 0 0 0 677.46)
(677.312 0 0 0 677.312 0 0 0 677.312)
(677.15 0 0 0 677.15 0 0 0 677.15)
(676.959 0 0 0 676.959 0 0 0 676.959)
(676.732 0 0 0 676.732 0 0 0 676.732)
(676.525 0 0 0 676.525 0 0 0 676.525)
(676.53 0 0 0 676.53 0 0 0 676.53)
(677.322 0 0 0 677.322 0 0 0 677.322)
(680.277 0 0 0 680.277 0 0 0 680.277)
(687.808 0 0 0 687.808 0 0 0 687.808)
(693.091 0 0 0 693.091 0 0 0 693.091)
(683.406 0 0 0 683.406 0 0 0 683.406)
(682.949 0 0 0 682.949 0 0 0 682.949)
(682.964 0 0 0 682.964 0 0 0 682.964)
(682.969 0 0 0 682.969 0 0 0 682.969)
(682.962 0 0 0 682.962 0 0 0 682.962)
(682.941 0 0 0 682.941 0 0 0 682.941)
(682.907 0 0 0 682.907 0 0 0 682.907)
(682.856 0 0 0 682.856 0 0 0 682.856)
(682.787 0 0 0 682.787 0 0 0 682.787)
(682.697 0 0 0 682.697 0 0 0 682.697)
(682.586 0 0 0 682.586 0 0 0 682.586)
(682.451 0 0 0 682.451 0 0 0 682.451)
(682.293 0 0 0 682.293 0 0 0 682.293)
(682.109 0 0 0 682.109 0 0 0 682.109)
(681.896 0 0 0 681.896 0 0 0 681.896)
(681.643 0 0 0 681.643 0 0 0 681.643)
(681.332 0 0 0 681.332 0 0 0 681.332)
(680.944 0 0 0 680.944 0 0 0 680.944)
(680.472 0 0 0 680.472 0 0 0 680.472)
(679.97 0 0 0 679.97 0 0 0 679.97)
(679.613 0 0 0 679.613 0 0 0 679.613)
(679.949 0 0 0 679.949 0 0 0 679.949)
(682.303 0 0 0 682.303 0 0 0 682.303)
(689.05 0 0 0 689.05 0 0 0 689.05)
(693.472 0 0 0 693.472 0 0 0 693.472)
(678.108 0 0 0 678.108 0 0 0 678.108)
(677.582 0 0 0 677.582 0 0 0 677.582)
(677.555 0 0 0 677.555 0 0 0 677.555)
(677.519 0 0 0 677.519 0 0 0 677.519)
(677.473 0 0 0 677.473 0 0 0 677.473)
(677.418 0 0 0 677.418 0 0 0 677.418)
(677.352 0 0 0 677.352 0 0 0 677.352)
(677.271 0 0 0 677.271 0 0 0 677.271)
(677.175 0 0 0 677.175 0 0 0 677.175)
(677.061 0 0 0 677.061 0 0 0 677.061)
(676.931 0 0 0 676.931 0 0 0 676.931)
(676.788 0 0 0 676.788 0 0 0 676.788)
(676.638 0 0 0 676.638 0 0 0 676.638)
(676.492 0 0 0 676.492 0 0 0 676.492)
(676.355 0 0 0 676.355 0 0 0 676.355)
(676.228 0 0 0 676.228 0 0 0 676.228)
(676.099 0 0 0 676.099 0 0 0 676.099)
(675.952 0 0 0 675.952 0 0 0 675.952)
(675.781 0 0 0 675.781 0 0 0 675.781)
(675.642 0 0 0 675.642 0 0 0 675.642)
(675.731 0 0 0 675.731 0 0 0 675.731)
(676.629 0 0 0 676.629 0 0 0 676.629)
(679.726 0 0 0 679.726 0 0 0 679.726)
(687.449 0 0 0 687.449 0 0 0 687.449)
(692.971 0 0 0 692.971 0 0 0 692.971)
(682.648 0 0 0 682.648 0 0 0 682.648)
(682.194 0 0 0 682.194 0 0 0 682.194)
(682.206 0 0 0 682.206 0 0 0 682.206)
(682.208 0 0 0 682.208 0 0 0 682.208)
(682.198 0 0 0 682.198 0 0 0 682.198)
(682.176 0 0 0 682.176 0 0 0 682.176)
(682.14 0 0 0 682.14 0 0 0 682.14)
(682.089 0 0 0 682.089 0 0 0 682.089)
(682.019 0 0 0 682.019 0 0 0 682.019)
(681.93 0 0 0 681.93 0 0 0 681.93)
(681.82 0 0 0 681.82 0 0 0 681.82)
(681.688 0 0 0 681.688 0 0 0 681.688)
(681.536 0 0 0 681.536 0 0 0 681.536)
(681.363 0 0 0 681.363 0 0 0 681.363)
(681.167 0 0 0 681.167 0 0 0 681.167)
(680.937 0 0 0 680.937 0 0 0 680.937)
(680.658 0 0 0 680.658 0 0 0 680.658)
(680.31 0 0 0 680.31 0 0 0 680.31)
(679.888 0 0 0 679.888 0 0 0 679.888)
(679.445 0 0 0 679.445 0 0 0 679.445)
(679.161 0 0 0 679.161 0 0 0 679.161)
(679.588 0 0 0 679.588 0 0 0 679.588)
(682.057 0 0 0 682.057 0 0 0 682.057)
(688.939 0 0 0 688.939 0 0 0 688.939)
(693.456 0 0 0 693.456 0 0 0 693.456)
(679.124 0 0 0 679.124 0 0 0 679.124)
(678.619 0 0 0 678.619 0 0 0 678.619)
(678.602 0 0 0 678.602 0 0 0 678.602)
(678.576 0 0 0 678.576 0 0 0 678.576)
(678.541 0 0 0 678.541 0 0 0 678.541)
(678.496 0 0 0 678.496 0 0 0 678.496)
(678.438 0 0 0 678.438 0 0 0 678.438)
(678.366 0 0 0 678.366 0 0 0 678.366)
(678.277 0 0 0 678.277 0 0 0 678.277)
(678.171 0 0 0 678.171 0 0 0 678.171)
(678.047 0 0 0 678.047 0 0 0 678.047)
(677.908 0 0 0 677.908 0 0 0 677.908)
(677.76 0 0 0 677.76 0 0 0 677.76)
(677.609 0 0 0 677.609 0 0 0 677.609)
(677.46 0 0 0 677.46 0 0 0 677.46)
(677.312 0 0 0 677.312 0 0 0 677.312)
(677.15 0 0 0 677.15 0 0 0 677.15)
(676.959 0 0 0 676.959 0 0 0 676.959)
(676.732 0 0 0 676.732 0 0 0 676.732)
(676.525 0 0 0 676.525 0 0 0 676.525)
(676.53 0 0 0 676.53 0 0 0 676.53)
(677.322 0 0 0 677.322 0 0 0 677.322)
(680.277 0 0 0 680.277 0 0 0 680.277)
(687.808 0 0 0 687.808 0 0 0 687.808)
(693.091 0 0 0 693.091 0 0 0 693.091)
(683.406 0 0 0 683.406 0 0 0 683.406)
(682.949 0 0 0 682.949 0 0 0 682.949)
(682.964 0 0 0 682.964 0 0 0 682.964)
(682.969 0 0 0 682.969 0 0 0 682.969)
(682.962 0 0 0 682.962 0 0 0 682.962)
(682.942 0 0 0 682.942 0 0 0 682.942)
(682.907 0 0 0 682.907 0 0 0 682.907)
(682.856 0 0 0 682.856 0 0 0 682.856)
(682.787 0 0 0 682.787 0 0 0 682.787)
(682.698 0 0 0 682.698 0 0 0 682.698)
(682.586 0 0 0 682.586 0 0 0 682.586)
(682.452 0 0 0 682.452 0 0 0 682.452)
(682.293 0 0 0 682.293 0 0 0 682.293)
(682.11 0 0 0 682.11 0 0 0 682.11)
(681.897 0 0 0 681.897 0 0 0 681.897)
(681.643 0 0 0 681.643 0 0 0 681.643)
(681.332 0 0 0 681.332 0 0 0 681.332)
(680.944 0 0 0 680.944 0 0 0 680.944)
(680.473 0 0 0 680.473 0 0 0 680.473)
(679.971 0 0 0 679.971 0 0 0 679.971)
(679.614 0 0 0 679.614 0 0 0 679.614)
(679.95 0 0 0 679.95 0 0 0 679.95)
(682.304 0 0 0 682.304 0 0 0 682.304)
(689.051 0 0 0 689.051 0 0 0 689.051)
(693.473 0 0 0 693.473 0 0 0 693.473)
(683.406 0 0 0 683.406 0 0 0 683.406)
(682.949 0 0 0 682.949 0 0 0 682.949)
(682.964 0 0 0 682.964 0 0 0 682.964)
(682.969 0 0 0 682.969 0 0 0 682.969)
(682.962 0 0 0 682.962 0 0 0 682.962)
(682.942 0 0 0 682.942 0 0 0 682.942)
(682.907 0 0 0 682.907 0 0 0 682.907)
(682.856 0 0 0 682.856 0 0 0 682.856)
(682.787 0 0 0 682.787 0 0 0 682.787)
(682.697 0 0 0 682.697 0 0 0 682.697)
(682.586 0 0 0 682.586 0 0 0 682.586)
(682.451 0 0 0 682.451 0 0 0 682.451)
(682.293 0 0 0 682.293 0 0 0 682.293)
(682.109 0 0 0 682.109 0 0 0 682.109)
(681.896 0 0 0 681.896 0 0 0 681.896)
(681.643 0 0 0 681.643 0 0 0 681.643)
(681.332 0 0 0 681.332 0 0 0 681.332)
(680.944 0 0 0 680.944 0 0 0 680.944)
(680.472 0 0 0 680.472 0 0 0 680.472)
(679.97 0 0 0 679.97 0 0 0 679.97)
(679.613 0 0 0 679.613 0 0 0 679.613)
(679.949 0 0 0 679.949 0 0 0 679.949)
(682.303 0 0 0 682.303 0 0 0 682.303)
(689.05 0 0 0 689.05 0 0 0 689.05)
(693.472 0 0 0 693.472 0 0 0 693.472)
(679.124 0 0 0 679.124 0 0 0 679.124)
(678.619 0 0 0 678.619 0 0 0 678.619)
(678.602 0 0 0 678.602 0 0 0 678.602)
(678.576 0 0 0 678.576 0 0 0 678.576)
(678.541 0 0 0 678.541 0 0 0 678.541)
(678.496 0 0 0 678.496 0 0 0 678.496)
(678.438 0 0 0 678.438 0 0 0 678.438)
(678.366 0 0 0 678.366 0 0 0 678.366)
(678.277 0 0 0 678.277 0 0 0 678.277)
(678.171 0 0 0 678.171 0 0 0 678.171)
(678.047 0 0 0 678.047 0 0 0 678.047)
(677.908 0 0 0 677.908 0 0 0 677.908)
(677.76 0 0 0 677.76 0 0 0 677.76)
(677.609 0 0 0 677.609 0 0 0 677.609)
(677.46 0 0 0 677.46 0 0 0 677.46)
(677.312 0 0 0 677.312 0 0 0 677.312)
(677.15 0 0 0 677.15 0 0 0 677.15)
(676.959 0 0 0 676.959 0 0 0 676.959)
(676.732 0 0 0 676.732 0 0 0 676.732)
(676.525 0 0 0 676.525 0 0 0 676.525)
(676.53 0 0 0 676.53 0 0 0 676.53)
(677.322 0 0 0 677.322 0 0 0 677.322)
(680.277 0 0 0 680.277 0 0 0 680.277)
(687.808 0 0 0 687.808 0 0 0 687.808)
(693.091 0 0 0 693.091 0 0 0 693.091)
)
;

boundaryField
{
    outletCentralUnloaded
    {
        type            zeroGradient;
    }
    inletCentralUnloaded
    {
        type            zeroGradient;
    }
    outletFuelElement
    {
        type            zeroGradient;
    }
    inletFuelElement
    {
        type            zeroGradient;
    }
    defaultFaces
    {
        type            zeroGradient;
    }
    baffle_master
    {
        type            zeroGradient;
    }
    baffle_slave
    {
        type            zeroGradient;
    }
}


// ************************************************************************* //
