/*--------------------------------*- C++ -*----------------------------------*\
| =========                 |                                                 |
| \\      /  F ield         | OpenFOAM: The Open Source CFD Toolbox           |
|  \\    /   O peration     | Version:  2212                                  |
|   \\  /    A nd           | Website:  www.openfoam.com                      |
|    \\/     M anipulation  |                                                 |
\*---------------------------------------------------------------------------*/
FoamFile
{
    version     2.0;
    format      ascii;
    arch        "LSB;label=32;scalar=64";
    class       volScalarField;
    location    "63/fluidRegion";
    object      Re;
}
// * * * * * * * * * * * * * * * * * * * * * * * * * * * * * * * * * * * * * //

dimensions      [0 0 0 0 0 0 0];

internalField   nonuniform List<scalar> 
350
(
174042
174042
174042
174040
174037
174032
174027
174022
174019
174018
174019
174021
174024
174028
174032
174036
174040
174043
174044
174043
174041
174038
174036
174034
174394
174042
174042
174042
174040
174037
174032
174027
174022
174019
174018
174019
174021
174024
174028
174032
174036
174040
174043
174044
174043
174041
174038
174036
174034
174394
55431.4
55382.3
55383.5
55383.7
55382.7
55380.3
55376.4
55370.8
55363.3
55353.7
55341.8
55327.5
55311.1
55292.3
55271.1
55246.2
55216
55178.5
55132.8
55084.9
55054.3
55100.3
55367.4
56113.6
56604.6
54940.4
54883.6
54880.7
54876.8
54871.9
54865.9
54858.7
54850
54839.6
54827.4
54813.3
54797.9
54781.7
54765.9
54751.1
54737.4
54723.5
54707.7
54689.2
54674.2
54683.8
54780.7
55115.3
55951.8
56551.8
55513.5
55464
55465.7
55466.2
55465.4
55463.2
55459.5
55453.9
55446.5
55436.8
55424.7
55410.1
55393
55373.1
55350.1
55322.7
55289
55247
55196
55141.7
55103.2
55139.5
55394.2
56125.7
56606.4
55050.2
54995.6
54993.8
54991
54987.2
54982.3
54976.1
54968.3
54958.7
54947.2
54933.8
54918.8
54902.8
54886.5
54870.5
54854.4
54837
54816.3
54791.8
54769.5
54770
54855.5
55174.8
55990.8
56564.9
55050.2
54995.6
54993.8
54991
54987.2
54982.3
54976.1
54968.3
54958.7
54947.2
54933.8
54918.8
54902.8
54886.5
54870.5
54854.4
54837
54816.3
54791.8
54769.5
54770
54855.5
55174.8
55990.8
56564.9
55513.5
55464
55465.7
55466.2
55465.4
55463.2
55459.4
55453.9
55446.4
55436.8
55424.7
55410.1
55392.9
55373.1
55350
55322.6
55288.9
55247
55196
55141.6
55103.1
55139.3
55394
56125.6
56606.4
54940.4
54883.6
54880.7
54876.8
54871.9
54865.9
54858.7
54850
54839.6
54827.4
54813.3
54797.9
54781.7
54765.9
54751.1
54737.4
54723.5
54707.7
54689.2
54674.2
54683.8
54780.7
55115.3
55951.8
56551.8
55431.4
55382.3
55383.5
55383.7
55382.7
55380.3
55376.4
55370.8
55363.3
55353.7
55341.8
55327.5
55311.1
55292.3
55271.1
55246.2
55216
55178.5
55132.8
55084.9
55054.2
55100.3
55367.4
56113.6
56604.6
55050.2
54995.6
54993.8
54991
54987.2
54982.3
54976.1
54968.3
54958.7
54947.2
54933.8
54918.8
54902.8
54886.5
54870.5
54854.4
54837
54816.3
54791.8
54769.5
54770
54855.5
55174.8
55990.8
56564.9
55513.5
55464
55465.7
55466.2
55465.4
55463.2
55459.4
55453.9
55446.5
55436.8
55424.7
55410.1
55393
55373.1
55350.1
55322.7
55289
55247
55196
55141.7
55103.2
55139.5
55394.2
56125.7
56606.5
55513.5
55464
55465.7
55466.2
55465.4
55463.2
55459.4
55453.9
55446.4
55436.8
55424.7
55410.1
55393
55373.1
55350
55322.6
55288.9
55247
55196
55141.6
55103.1
55139.3
55394
56125.6
56606.4
55050.2
54995.6
54993.8
54991
54987.2
54982.3
54976.1
54968.3
54958.7
54947.2
54933.8
54918.8
54902.8
54886.5
54870.5
54854.4
54837
54816.3
54791.8
54769.5
54770
54855.5
55174.8
55990.8
56564.9
)
;

boundaryField
{
    outletCentralUnloaded
    {
        type            zeroGradient;
    }
    inletCentralUnloaded
    {
        type            zeroGradient;
    }
    outletFuelElement
    {
        type            zeroGradient;
    }
    inletFuelElement
    {
        type            zeroGradient;
    }
    defaultFaces
    {
        type            zeroGradient;
    }
    baffle_master
    {
        type            zeroGradient;
    }
    baffle_slave
    {
        type            zeroGradient;
    }
}


// ************************************************************************* //
