/*--------------------------------*- C++ -*----------------------------------*\
| =========                 |                                                 |
| \\      /  F ield         | OpenFOAM: The Open Source CFD Toolbox           |
|  \\    /   O peration     | Version:  2212                                  |
|   \\  /    A nd           | Website:  www.openfoam.com                      |
|    \\/     M anipulation  |                                                 |
\*---------------------------------------------------------------------------*/
FoamFile
{
    version     2.0;
    format      ascii;
    arch        "LSB;label=32;scalar=64";
    class       volScalarField;
    location    "63/fluidRegion";
    object      T.cladAvForNeutronics;
}
// * * * * * * * * * * * * * * * * * * * * * * * * * * * * * * * * * * * * * //

dimensions      [0 0 0 1 0 0 0];

internalField   nonuniform List<scalar> 
350
(
0
0
0
0
0
0
0
0
0
0
0
0
0
0
0
0
0
0
0
0
0
0
0
0
0
0
0
0
0
0
0
0
0
0
0
0
0
0
0
0
0
0
0
0
0
0
0
0
0
0
1845.68
1883.78
1908.93
1921.13
1920.52
1907.35
1882.06
1845.21
1797.52
1739.83
1673.11
1598.47
1517.14
1430.44
1339.81
1246.72
1152.56
1058.39
964.611
870.397
772.834
665.626
538.022
377.914
186.907
1874.13
1912.84
1938.38
1950.74
1950.06
1936.6
1910.8
1873.24
1824.63
1765.85
1697.87
1621.82
1538.94
1450.58
1358.2
1263.3
1167.32
1071.37
975.918
880.174
781.221
672.682
543.59
381.532
188.13
1841.06
1879.08
1904.19
1916.38
1915.8
1902.7
1877.5
1840.79
1793.25
1735.75
1669.24
1594.84
1513.75
1427.32
1336.97
1244.17
1150.3
1056.41
962.888
868.914
771.569
664.573
537.203
377.386
186.721
1867.74
1906.29
1931.72
1944.03
1943.35
1929.94
1904.25
1866.84
1818.43
1759.89
1692.19
1616.46
1533.92
1445.94
1353.96
1259.48
1163.91
1068.37
973.304
877.913
779.281
671.048
542.3
380.692
187.847
1867.74
1906.29
1931.72
1944.03
1943.35
1929.94
1904.25
1866.84
1818.43
1759.89
1692.19
1616.46
1533.92
1445.94
1353.96
1259.48
1163.91
1068.37
973.304
877.913
779.281
671.048
542.3
380.692
187.847
1841.06
1879.08
1904.19
1916.39
1915.8
1902.7
1877.5
1840.79
1793.25
1735.75
1669.24
1594.84
1513.75
1427.32
1336.97
1244.17
1150.3
1056.41
962.889
868.914
771.57
664.574
537.204
377.387
186.721
1874.13
1912.84
1938.38
1950.74
1950.06
1936.6
1910.8
1873.24
1824.63
1765.85
1697.87
1621.82
1538.94
1450.58
1358.2
1263.3
1167.32
1071.37
975.918
880.174
781.221
672.682
543.59
381.532
188.13
1845.68
1883.78
1908.93
1921.13
1920.52
1907.35
1882.06
1845.21
1797.52
1739.83
1673.11
1598.47
1517.14
1430.44
1339.81
1246.72
1152.56
1058.39
964.611
870.397
772.834
665.626
538.023
377.914
186.907
1867.74
1906.29
1931.72
1944.03
1943.35
1929.94
1904.25
1866.84
1818.43
1759.89
1692.19
1616.46
1533.92
1445.94
1353.96
1259.48
1163.91
1068.37
973.304
877.913
779.281
671.048
542.3
380.692
187.847
1841.06
1879.08
1904.19
1916.38
1915.8
1902.7
1877.5
1840.79
1793.25
1735.75
1669.24
1594.84
1513.75
1427.32
1336.97
1244.17
1150.3
1056.41
962.888
868.914
771.569
664.573
537.204
377.386
186.721
1841.06
1879.08
1904.19
1916.39
1915.8
1902.7
1877.5
1840.79
1793.25
1735.75
1669.24
1594.84
1513.75
1427.32
1336.97
1244.17
1150.3
1056.41
962.889
868.914
771.57
664.574
537.204
377.387
186.721
1867.74
1906.29
1931.72
1944.03
1943.35
1929.94
1904.25
1866.84
1818.43
1759.89
1692.19
1616.46
1533.92
1445.94
1353.96
1259.48
1163.91
1068.37
973.304
877.913
779.281
671.048
542.3
380.692
187.847
)
;

boundaryField
{
    outletCentralUnloaded
    {
        type            zeroGradient;
    }
    inletCentralUnloaded
    {
        type            zeroGradient;
    }
    outletFuelElement
    {
        type            zeroGradient;
    }
    inletFuelElement
    {
        type            zeroGradient;
    }
    defaultFaces
    {
        type            zeroGradient;
    }
    baffle_master
    {
        type            zeroGradient;
    }
    baffle_slave
    {
        type            zeroGradient;
    }
}


// ************************************************************************* //
