/*--------------------------------*- C++ -*----------------------------------*\
| =========                 |                                                 |
| \\      /  F ield         | OpenFOAM: The Open Source CFD Toolbox           |
|  \\    /   O peration     | Version:  2212                                  |
|   \\  /    A nd           | Website:  www.openfoam.com                      |
|    \\/     M anipulation  |                                                 |
\*---------------------------------------------------------------------------*/
FoamFile
{
    version     2.0;
    format      ascii;
    arch        "LSB;label=32;scalar=64";
    class       volScalarField;
    location    "63/fluidRegion";
    object      Tci.nuclearFuelPin;
}
// * * * * * * * * * * * * * * * * * * * * * * * * * * * * * * * * * * * * * //

dimensions      [0 0 0 1 0 0 0];

internalField   nonuniform List<scalar> 
350
(
0
0
0
0
0
0
0
0
0
0
0
0
0
0
0
0
0
0
0
0
0
0
0
0
0
0
0
0
0
0
0
0
0
0
0
0
0
0
0
0
0
0
0
0
0
0
0
0
0
0
1851.78
1902.01
1939
1962.57
1972.67
1969.4
1953.02
1923.97
1882.83
1830.34
1767.4
1695.06
1614.49
1527.02
1434.1
1337.24
1237.87
1137.15
1035.58
932.452
824.998
707.077
568.106
396.155
193.021
1880.3
1931.28
1968.8
1992.66
2002.81
1999.36
1982.57
1952.89
1910.92
1857.39
1793.24
1719.51
1637.4
1548.27
1453.57
1354.85
1253.6
1151.03
1047.7
942.939
833.983
714.608
574.018
399.983
194.314
1847.15
1897.28
1934.2
1957.75
1967.86
1964.63
1948.33
1919.4
1878.4
1826.09
1763.36
1691.24
1610.92
1523.73
1431.09
1334.52
1235.45
1135.02
1033.73
930.855
823.638
705.948
567.232
395.595
192.823
1873.89
1924.68
1962.06
1985.84
1995.96
1992.54
1975.83
1946.29
1904.49
1851.2
1787.31
1713.89
1632.13
1543.37
1449.08
1350.79
1249.97
1147.83
1044.9
940.515
831.904
712.865
572.648
399.095
194.015
1873.89
1924.68
1962.06
1985.84
1995.96
1992.54
1975.83
1946.29
1904.49
1851.2
1787.31
1713.89
1632.13
1543.37
1449.08
1350.79
1249.97
1147.83
1044.9
940.514
831.904
712.865
572.648
399.095
194.015
1847.15
1897.28
1934.21
1957.75
1967.86
1964.63
1948.34
1919.4
1878.4
1826.1
1763.36
1691.24
1610.93
1523.73
1431.09
1334.52
1235.45
1135.02
1033.73
930.856
823.639
705.949
567.233
395.595
192.823
1880.3
1931.28
1968.8
1992.66
2002.81
1999.36
1982.57
1952.89
1910.92
1857.39
1793.24
1719.51
1637.4
1548.27
1453.57
1354.85
1253.6
1151.03
1047.7
942.939
833.982
714.608
574.018
399.982
194.314
1851.78
1902.01
1939
1962.57
1972.67
1969.4
1953.02
1923.97
1882.83
1830.34
1767.4
1695.06
1614.49
1527.02
1434.1
1337.24
1237.87
1137.15
1035.58
932.452
824.998
707.077
568.106
396.155
193.021
1873.89
1924.68
1962.06
1985.84
1995.96
1992.54
1975.83
1946.29
1904.49
1851.2
1787.31
1713.89
1632.13
1543.37
1449.08
1350.79
1249.97
1147.83
1044.9
940.515
831.904
712.865
572.648
399.095
194.015
1847.15
1897.28
1934.2
1957.75
1967.86
1964.63
1948.33
1919.4
1878.4
1826.09
1763.36
1691.24
1610.92
1523.73
1431.09
1334.52
1235.45
1135.02
1033.73
930.855
823.638
705.948
567.232
395.595
192.823
1847.15
1897.28
1934.21
1957.75
1967.86
1964.63
1948.34
1919.4
1878.4
1826.1
1763.36
1691.24
1610.92
1523.73
1431.09
1334.52
1235.45
1135.02
1033.73
930.856
823.639
705.949
567.233
395.595
192.823
1873.89
1924.68
1962.06
1985.84
1995.96
1992.54
1975.83
1946.29
1904.49
1851.2
1787.31
1713.89
1632.13
1543.37
1449.08
1350.79
1249.97
1147.83
1044.9
940.515
831.904
712.865
572.648
399.094
194.015
)
;

boundaryField
{
    outletCentralUnloaded
    {
        type            zeroGradient;
    }
    inletCentralUnloaded
    {
        type            zeroGradient;
    }
    outletFuelElement
    {
        type            zeroGradient;
    }
    inletFuelElement
    {
        type            zeroGradient;
    }
    defaultFaces
    {
        type            zeroGradient;
    }
    baffle_master
    {
        type            zeroGradient;
    }
    baffle_slave
    {
        type            zeroGradient;
    }
}


// ************************************************************************* //
