/*--------------------------------*- C++ -*----------------------------------*\
| =========                 |                                                 |
| \\      /  F ield         | OpenFOAM: The Open Source CFD Toolbox           |
|  \\    /   O peration     | Version:  2212                                  |
|   \\  /    A nd           | Website:  www.openfoam.com                      |
|    \\/     M anipulation  |                                                 |
\*---------------------------------------------------------------------------*/
FoamFile
{
    version     2.0;
    format      ascii;
    arch        "LSB;label=32;scalar=64";
    class       volScalarField;
    location    "63/fluidRegion";
    object      Tco.nuclearFuelPin;
}
// * * * * * * * * * * * * * * * * * * * * * * * * * * * * * * * * * * * * * //

dimensions      [0 0 0 1 0 0 0];

internalField   nonuniform List<scalar> 
350
(
0
0
0
0
0
0
0
0
0
0
0
0
0
0
0
0
0
0
0
0
0
0
0
0
0
0
0
0
0
0
0
0
0
0
0
0
0
0
0
0
0
0
0
0
0
0
0
0
0
0
1839.99
1866.76
1880.85
1882.45
1871.83
1849.43
1815.82
1771.7
1717.89
1655.34
1585.09
1508.32
1426.26
1340.28
1251.79
1162.23
1072.92
984.87
898.365
812.47
724.139
626.932
509.94
360.885
181.2
1868.37
1895.63
1909.99
1911.62
1900.81
1878.02
1843.8
1798.88
1744.09
1680.39
1608.84
1530.63
1447.02
1359.39
1269.17
1177.84
1086.77
997.008
908.913
821.583
731.969
633.545
515.186
364.309
182.357
1835.38
1862.09
1876.16
1877.77
1867.2
1844.88
1811.38
1767.4
1713.77
1651.41
1581.38
1504.84
1423.04
1337.33
1249.11
1159.83
1070.81
983.02
896.762
811.092
722.964
625.95
509.172
360.389
181.024
1861.99
1889.12
1903.4
1905.01
1894.23
1871.51
1837.42
1792.67
1738.1
1674.65
1603.39
1525.5
1442.25
1354.98
1265.16
1174.24
1083.57
994.202
906.473
819.474
730.157
632.013
513.97
363.514
182.09
1861.99
1889.12
1903.4
1905.01
1894.23
1871.51
1837.42
1792.67
1738.1
1674.65
1603.39
1525.5
1442.25
1354.98
1265.16
1174.24
1083.57
994.202
906.473
819.474
730.157
632.013
513.97
363.514
182.09
1835.38
1862.09
1876.17
1877.77
1867.2
1844.88
1811.38
1767.4
1713.77
1651.41
1581.38
1504.84
1423.04
1337.33
1249.11
1159.83
1070.81
983.02
896.763
811.092
722.964
625.95
509.173
360.39
181.024
1868.37
1895.63
1909.99
1911.62
1900.81
1878.02
1843.8
1798.88
1744.09
1680.39
1608.84
1530.63
1447.02
1359.39
1269.17
1177.84
1086.77
997.008
908.913
821.583
731.969
633.545
515.186
364.309
182.357
1839.99
1866.76
1880.85
1882.45
1871.83
1849.43
1815.82
1771.7
1717.89
1655.34
1585.09
1508.32
1426.26
1340.28
1251.79
1162.23
1072.92
984.869
898.365
812.47
724.139
626.932
509.94
360.885
181.2
1861.99
1889.12
1903.4
1905.01
1894.23
1871.51
1837.42
1792.67
1738.1
1674.65
1603.39
1525.5
1442.25
1354.98
1265.16
1174.24
1083.57
994.202
906.473
819.474
730.157
632.013
513.97
363.514
182.09
1835.38
1862.09
1876.16
1877.77
1867.2
1844.88
1811.38
1767.4
1713.77
1651.41
1581.38
1504.84
1423.04
1337.33
1249.11
1159.83
1070.81
983.02
896.763
811.092
722.964
625.95
509.172
360.389
181.024
1835.38
1862.09
1876.17
1877.77
1867.2
1844.88
1811.38
1767.4
1713.77
1651.41
1581.38
1504.84
1423.04
1337.33
1249.11
1159.83
1070.81
983.02
896.763
811.092
722.964
625.95
509.173
360.39
181.024
1861.99
1889.12
1903.4
1905.01
1894.23
1871.51
1837.42
1792.67
1738.1
1674.65
1603.39
1525.5
1442.25
1354.98
1265.16
1174.24
1083.57
994.202
906.473
819.474
730.157
632.013
513.97
363.514
182.09
)
;

boundaryField
{
    outletCentralUnloaded
    {
        type            zeroGradient;
    }
    inletCentralUnloaded
    {
        type            zeroGradient;
    }
    outletFuelElement
    {
        type            zeroGradient;
    }
    inletFuelElement
    {
        type            zeroGradient;
    }
    defaultFaces
    {
        type            zeroGradient;
    }
    baffle_master
    {
        type            zeroGradient;
    }
    baffle_slave
    {
        type            zeroGradient;
    }
}


// ************************************************************************* //
