/*--------------------------------*- C++ -*----------------------------------*\
| =========                 |                                                 |
| \\      /  F ield         | OpenFOAM: The Open Source CFD Toolbox           |
|  \\    /   O peration     | Version:  2212                                  |
|   \\  /    A nd           | Website:  www.openfoam.com                      |
|    \\/     M anipulation  |                                                 |
\*---------------------------------------------------------------------------*/
FoamFile
{
    version     2.0;
    format      ascii;
    arch        "LSB;label=32;scalar=64";
    class       volScalarField;
    location    "63/fluidRegion";
    object      Tfi.nuclearFuelPin;
}
// * * * * * * * * * * * * * * * * * * * * * * * * * * * * * * * * * * * * * //

dimensions      [0 0 0 1 0 0 0];

internalField   nonuniform List<scalar> 
350
(
0
0
0
0
0
0
0
0
0
0
0
0
0
0
0
0
0
0
0
0
0
0
0
0
0
0
0
0
0
0
0
0
0
0
0
0
0
0
0
0
0
0
0
0
0
0
0
0
0
0
2424.04
3612.48
4760.69
5850.95
6866.41
7791.29
8611.24
9313.5
9887.11
10323.1
10614.8
10757.4
10749
10589.5
10281.7
9830.38
9242.62
8527.26
7694.45
6755.13
5719.6
4596.45
3390.85
2107.79
766.695
2459.1
3661.33
4822.79
5925.57
6952.59
7887.93
8717.05
9427.06
10006.9
10447.5
10741.9
10885.7
10876.5
10714.6
10402.5
9945.28
9350.05
8625.79
7782.85
6832.31
5784.65
4648.54
3429.09
2131.22
774.557
2418.37
3604.63
4750.75
5839.04
6852.67
7775.91
8594.41
9295.45
9868.09
10303.4
10594.6
10737.1
10728.7
10569.7
10262.5
9812.18
9225.6
8511.65
7680.45
6742.91
5709.32
4588.23
3384.82
2104.11
765.451
2451.18
3650.22
4808.61
5908.5
6932.84
7865.76
8692.76
9400.97
9979.35
10418.9
10712.7
10856.2
10847.1
10685.8
10374.7
9918.82
9325.31
8603.1
7762.49
6814.53
5769.67
4636.54
3420.28
2125.82
772.746
2451.18
3650.22
4808.61
5908.5
6932.84
7865.76
8692.76
9400.97
9979.35
10418.9
10712.7
10856.2
10847.1
10685.8
10374.7
9918.82
9325.31
8603.1
7762.49
6814.53
5769.67
4636.54
3420.28
2125.82
772.746
2418.37
3604.63
4750.75
5839.04
6852.67
7775.91
8594.42
9295.45
9868.09
10303.4
10594.6
10737.1
10728.7
10569.7
10262.5
9812.18
9225.61
8511.65
7680.45
6742.91
5709.32
4588.23
3384.83
2104.11
765.452
2459.1
3661.33
4822.79
5925.57
6952.59
7887.93
8717.05
9427.06
10006.9
10447.5
10741.9
10885.7
10876.5
10714.6
10402.5
9945.28
9350.05
8625.79
7782.85
6832.31
5784.65
4648.54
3429.09
2131.22
774.558
2424.04
3612.48
4760.69
5850.96
6866.41
7791.29
8611.24
9313.49
9887.11
10323.1
10614.8
10757.4
10749
10589.5
10281.7
9830.39
9242.62
8527.26
7694.45
6755.13
5719.6
4596.45
3390.85
2107.79
766.695
2451.18
3650.22
4808.61
5908.5
6932.84
7865.76
8692.76
9400.97
9979.35
10418.9
10712.7
10856.2
10847.1
10685.8
10374.7
9918.82
9325.31
8603.1
7762.49
6814.53
5769.67
4636.54
3420.28
2125.82
772.746
2418.37
3604.63
4750.75
5839.04
6852.67
7775.91
8594.41
9295.45
9868.09
10303.4
10594.6
10737.1
10728.7
10569.7
10262.5
9812.18
9225.6
8511.65
7680.45
6742.91
5709.32
4588.23
3384.82
2104.11
765.452
2418.37
3604.63
4750.75
5839.04
6852.67
7775.91
8594.41
9295.45
9868.09
10303.4
10594.6
10737.1
10728.7
10569.7
10262.5
9812.18
9225.61
8511.65
7680.45
6742.91
5709.32
4588.23
3384.83
2104.11
765.452
2451.18
3650.22
4808.61
5908.5
6932.84
7865.76
8692.76
9400.97
9979.35
10418.9
10712.7
10856.2
10847.1
10685.8
10374.7
9918.82
9325.31
8603.1
7762.49
6814.53
5769.67
4636.54
3420.28
2125.82
772.746
)
;

boundaryField
{
    outletCentralUnloaded
    {
        type            zeroGradient;
    }
    inletCentralUnloaded
    {
        type            zeroGradient;
    }
    outletFuelElement
    {
        type            zeroGradient;
    }
    inletFuelElement
    {
        type            zeroGradient;
    }
    defaultFaces
    {
        type            zeroGradient;
    }
    baffle_master
    {
        type            zeroGradient;
    }
    baffle_slave
    {
        type            zeroGradient;
    }
}


// ************************************************************************* //
