/*--------------------------------*- C++ -*----------------------------------*\
| =========                 |                                                 |
| \\      /  F ield         | OpenFOAM: The Open Source CFD Toolbox           |
|  \\    /   O peration     | Version:  2212                                  |
|   \\  /    A nd           | Website:  www.openfoam.com                      |
|    \\/     M anipulation  |                                                 |
\*---------------------------------------------------------------------------*/
FoamFile
{
    version     2.0;
    format      ascii;
    arch        "LSB;label=32;scalar=64";
    class       volScalarField;
    location    "63/fluidRegion";
    object      Tfo.nuclearFuelPin;
}
// * * * * * * * * * * * * * * * * * * * * * * * * * * * * * * * * * * * * * //

dimensions      [0 0 0 1 0 0 0];

internalField   nonuniform List<scalar> 
350
(
0
0
0
0
0
0
0
0
0
0
0
0
0
0
0
0
0
0
0
0
0
0
0
0
0
0
0
0
0
0
0
0
0
0
0
0
0
0
0
0
0
0
0
0
0
0
0
0
0
0
2022.29
2411.52
2779.47
3120.75
3430.28
3703.45
3936.17
4124.93
4266.88
4359.89
4402.56
4394.25
4335.15
4226.24
4069.31
3866.88
3622.04
3338.25
3018.89
2666.71
2282.83
1865.51
1408.85
905.956
363.882
2052.75
2446.62
2818.89
3164.1
3477.12
3753.27
3988.43
4179.06
4322.28
4415.92
4458.58
4449.62
4389.23
4278.41
4118.97
3913.47
3665.09
3377.35
3053.73
2697.06
2308.51
1886.31
1424.39
915.622
367.132
2017.34
2405.85
2773.14
3113.82
3422.81
3695.52
3927.86
4116.34
4258.11
4351.03
4393.71
4385.51
4326.62
4218.03
4061.5
3859.55
3615.28
3332.11
3013.42
2661.94
2278.81
1862.27
1406.44
904.465
363.373
2045.89
2438.68
2809.94
3154.23
3466.43
3741.88
3976.47
4166.65
4309.57
4403.05
4445.7
4436.88
4376.78
4266.4
4107.53
3902.74
3655.17
3368.34
3045.69
2690.06
2302.59
1881.51
1420.8
913.39
366.382
2045.89
2438.68
2809.94
3154.23
3466.43
3741.88
3976.47
4166.65
4309.57
4403.05
4445.7
4436.88
4376.78
4266.4
4107.53
3902.74
3655.17
3368.34
3045.69
2690.06
2302.59
1881.51
1420.8
913.39
366.382
2017.35
2405.86
2773.15
3113.82
3422.81
3695.52
3927.87
4116.34
4258.11
4351.03
4393.71
4385.51
4326.62
4218.03
4061.5
3859.55
3615.28
3332.11
3013.42
2661.95
2278.81
1862.27
1406.44
904.466
363.373
2052.75
2446.62
2818.89
3164.1
3477.12
3753.27
3988.43
4179.06
4322.28
4415.92
4458.58
4449.62
4389.23
4278.41
4118.97
3913.47
3665.09
3377.35
3053.73
2697.06
2308.51
1886.31
1424.39
915.622
367.132
2022.29
2411.52
2779.47
3120.75
3430.28
3703.45
3936.17
4124.93
4266.88
4359.89
4402.56
4394.25
4335.15
4226.24
4069.31
3866.88
3622.04
3338.25
3018.89
2666.71
2282.83
1865.51
1408.85
905.956
363.882
2045.89
2438.68
2809.94
3154.23
3466.43
3741.88
3976.47
4166.65
4309.57
4403.05
4445.7
4436.88
4376.78
4266.4
4107.53
3902.74
3655.17
3368.34
3045.69
2690.06
2302.59
1881.51
1420.8
913.39
366.382
2017.34
2405.85
2773.15
3113.82
3422.81
3695.52
3927.86
4116.34
4258.11
4351.03
4393.71
4385.51
4326.62
4218.03
4061.5
3859.55
3615.28
3332.11
3013.42
2661.94
2278.81
1862.27
1406.44
904.465
363.373
2017.35
2405.86
2773.15
3113.82
3422.81
3695.52
3927.87
4116.34
4258.11
4351.03
4393.71
4385.51
4326.62
4218.03
4061.5
3859.55
3615.28
3332.11
3013.42
2661.95
2278.81
1862.27
1406.44
904.466
363.373
2045.89
2438.68
2809.94
3154.23
3466.43
3741.88
3976.47
4166.65
4309.57
4403.05
4445.7
4436.88
4376.78
4266.4
4107.53
3902.74
3655.17
3368.34
3045.69
2690.06
2302.59
1881.51
1420.8
913.39
366.382
)
;

boundaryField
{
    outletCentralUnloaded
    {
        type            zeroGradient;
    }
    inletCentralUnloaded
    {
        type            zeroGradient;
    }
    outletFuelElement
    {
        type            zeroGradient;
    }
    inletFuelElement
    {
        type            zeroGradient;
    }
    defaultFaces
    {
        type            zeroGradient;
    }
    baffle_master
    {
        type            zeroGradient;
    }
    baffle_slave
    {
        type            zeroGradient;
    }
}


// ************************************************************************* //
