/*--------------------------------*- C++ -*----------------------------------*\
| =========                 |                                                 |
| \\      /  F ield         | OpenFOAM: The Open Source CFD Toolbox           |
|  \\    /   O peration     | Version:  2212                                  |
|   \\  /    A nd           | Website:  www.openfoam.com                      |
|    \\/     M anipulation  |                                                 |
\*---------------------------------------------------------------------------*/
FoamFile
{
    version     2.0;
    format      ascii;
    arch        "LSB;label=32;scalar=64";
    class       scalarFieldField;
    location    "63/fluidRegion";
    object      Trad.nuclearFuelPin;
}
// * * * * * * * * * * * * * * * * * * * * * * * * * * * * * * * * * * * * * //


350
(
0()
0()
0()
0()
0()
0()
0()
0()
0()
0()
0()
0()
0()
0()
0()
0()
0()
0()
0()
0()
0()
0()
0()
0()
0()
0()
0()
0()
0()
0()
0()
0()
0()
0()
0()
0()
0()
0()
0()
0()
0()
0()
0()
0()
0()
0()
0()
0()
0()
0()

20
(
2424.04
2422.26
2416.91
2407.98
2395.49
2379.43
2359.79
2336.59
2309.81
2279.46
2245.54
2208.04
2166.97
2122.32
2074.09
2022.29
1851.78
1847.72
1843.79
1839.99
)


20
(
3612.48
3607.14
3591.13
3564.45
3527.09
3479.06
3420.35
3350.97
3270.91
3180.18
3078.77
2966.68
2843.91
2710.46
2566.33
2411.52
1902.01
1889.87
1878.13
1866.76
)


20
(
4760.69
4751.88
4725.47
4681.45
4619.81
4540.57
4443.72
4329.26
4197.18
4047.5
3880.2
3695.29
3492.76
3272.61
3034.85
2779.47
1939
1918.98
1899.61
1880.85
)


20
(
5850.95
5838.82
5802.42
5741.75
5656.82
5547.62
5414.15
5256.41
5074.41
4868.13
4637.58
4382.76
4103.67
3800.31
3472.67
3120.75
1962.57
1934.99
1908.3
1882.45
)


20
(
6866.41
6851.14
6805.32
6728.97
6622.07
6484.64
6316.66
6118.13
5889.06
5629.45
5339.29
5018.59
4667.33
4285.53
3873.18
3430.28
1972.67
1937.95
1904.36
1871.83
)


20
(
7791.29
7773.13
7718.62
7627.79
7500.62
7337.11
7137.27
6901.09
6628.57
6319.72
5974.53
5592.99
5175.12
4720.91
4230.35
3703.45
1969.4
1928.09
1888.13
1849.43
)


20
(
8611.24
8590.47
8528.13
8424.25
8278.81
8091.81
7863.26
7593.15
7281.48
6928.26
6533.48
6097.14
5619.24
5099.78
4538.75
3936.17
1953.02
1905.78
1860.08
1815.82
)


20
(
9313.5
9290.44
9221.26
9105.96
8944.54
8737.01
8483.35
8183.57
7837.68
7445.66
7007.51
6523.25
5992.86
5416.34
4793.7
4124.93
1923.97
1871.54
1820.82
1771.7
)


20
(
9887.11
9862.13
9787.2
9662.31
9487.46
9262.66
8987.9
8663.18
8288.51
7863.87
7389.28
6864.72
6290.21
5665.73
4991.29
4266.88
1882.83
1826.04
1771.1
1717.89
)


20
(
10323.1
10296.6
10217.1
10084.6
9899.09
9660.57
9369.04
9024.5
8626.96
8176.41
7672.85
7116.28
6506.7
5844.11
5128.51
4359.89
1830.34
1770.08
1711.79
1655.34
)


20
(
10614.8
10587.1
10504.3
10366.3
10173
9924.53
9620.83
9261.91
8847.77
8378.41
7853.82
7274.02
6638.99
5948.74
5203.26
4402.56
1767.4
1704.63
1643.9
1585.09
)


20
(
10757.4
10729.2
10644.3
10502.9
10305
10050.4
9739.35
9371.7
8947.5
8466.73
7929.39
7335.5
6685.03
5978.01
5214.41
4394.25
1695.06
1630.76
1568.56
1508.32
)


20
(
10749
10720.4
10634.9
10492.4
10292.9
10036.3
9722.77
9352.2
8924.62
8440.02
7898.41
7299.79
6644.16
5931.5
5161.83
4335.15
1614.49
1549.68
1486.98
1426.26
)


20
(
10589.5
10561.2
10476.4
10335
10137
9882.5
9571.41
9203.76
8779.55
8298.77
7761.43
7167.53
6517.06
5810.02
5046.41
4226.24
1527.02
1462.72
1400.52
1340.28
)


20
(
10281.7
10254.1
10171.3
10033.2
9839.93
9591.44
9287.73
8928.8
8514.65
8045.27
7520.67
6940.85
6305.8
5615.53
4870.04
4069.31
1434.1
1371.33
1310.6
1251.79
)


20
(
9830.38
9803.88
9724.37
9591.85
9406.32
9167.79
8876.24
8531.69
8134.13
7683.55
7179.97
6623.38
6013.77
5351.15
4635.52
3866.88
1337.24
1276.98
1218.68
1162.23
)


20
(
9242.62
9217.64
9142.7
9017.8
8842.95
8618.13
8343.35
8018.61
7643.9
7219.24
6744.62
6220.03
5645.48
5020.97
4346.49
3622.04
1237.87
1181.08
1126.13
1072.92
)


20
(
8527.26
8504.2
8435.01
8319.7
8158.27
7950.71
7697.03
7397.23
7051.3
6659.24
6221.06
5736.75
5206.32
4629.76
4007.07
3338.25
1137.15
1084.72
1033.99
984.87
)


20
(
7694.45
7673.67
7611.33
7507.43
7361.97
7174.95
6946.37
6676.23
6364.53
6011.27
5616.45
5180.06
4702.11
4182.6
3621.53
3018.89
1035.58
988.333
942.628
898.365
)


20
(
6755.13
6736.96
6682.45
6591.59
6464.4
6300.87
6100.99
5864.77
5592.22
5283.31
4938.07
4556.49
4138.56
3684.28
3193.67
2666.71
932.452
891.14
851.174
812.47
)


20
(
5719.6
5704.33
5658.51
5582.14
5475.22
5337.75
5169.73
4971.16
4742.05
4482.38
4192.17
3871.4
3520.09
3138.22
2725.8
2282.83
824.998
790.271
756.675
724.139
)


20
(
4596.45
4584.32
4547.9
4487.22
4402.26
4293.02
4159.51
4001.72
3819.66
3613.33
3382.71
3127.83
2848.66
2545.22
2217.5
1865.51
707.077
679.481
652.785
626.932
)


20
(
3390.85
3382.04
3355.61
3311.57
3249.91
3170.63
3073.73
2959.22
2827.09
2677.34
2509.97
2324.98
2122.38
1902.15
1664.31
1408.85
568.106
548.078
528.703
509.94
)


20
(
2107.79
2102.45
2086.42
2059.72
2022.33
1974.25
1915.5
1846.06
1765.94
1675.13
1573.65
1461.48
1338.62
1205.08
1060.86
905.956
396.155
384.011
372.263
360.885
)


20
(
766.695
764.905
759.534
750.582
738.05
721.937
702.244
678.97
652.115
621.68
587.665
550.069
508.893
464.136
415.799
363.882
193.021
188.951
185.013
181.2
)


20
(
2459.1
2457.3
2451.88
2442.86
2430.22
2413.97
2394.11
2370.64
2343.56
2312.87
2278.55
2240.63
2199.09
2153.93
2105.15
2052.75
1880.3
1876.2
1872.22
1868.37
)


20
(
3661.33
3655.93
3639.74
3612.75
3574.96
3526.38
3467
3396.83
3315.86
3224.08
3121.51
3008.14
2883.96
2748.99
2603.21
2446.62
1931.28
1919.01
1907.13
1895.63
)


20
(
4822.79
4813.88
4787.17
4742.64
4680.3
4600.16
4502.19
4386.42
4252.84
4101.44
3932.22
3745.19
3540.34
3317.68
3077.2
2818.89
1968.8
1948.55
1928.96
1909.99
)


20
(
5925.57
5913.29
5876.48
5815.12
5729.21
5618.76
5483.76
5324.22
5140.13
4931.49
4698.3
4440.56
4158.28
3851.44
3520.05
3164.1
1992.66
1964.76
1937.76
1911.62
)


20
(
6952.59
6937.14
6890.81
6813.58
6705.46
6566.45
6396.54
6195.75
5964.05
5701.47
5407.99
5083.61
4728.33
4342.16
3925.09
3477.12
2002.81
1967.69
1933.72
1900.81
)


20
(
7887.93
7869.55
7814.43
7722.55
7593.92
7428.55
7226.41
6987.53
6711.89
6399.5
6050.36
5664.46
5241.8
4782.38
4286.21
3753.27
1999.36
1957.58
1917.16
1878.02
)


20
(
8717.05
8696.04
8632.99
8527.92
8380.81
8191.67
7960.5
7687.3
7372.07
7014.8
6615.5
6174.16
5690.78
5165.37
4597.92
3988.43
1982.57
1934.79
1888.57
1843.8
)


20
(
9427.06
9403.73
9333.76
9217.14
9053.88
8843.97
8587.4
8284.19
7934.33
7537.82
7094.66
6604.85
6068.38
5485.26
4855.49
4179.06
1952.89
1899.86
1848.56
1798.88
)


20
(
10006.9
9981.61
9905.82
9779.5
9602.65
9375.27
9097.37
8768.93
8389.96
7960.47
7480.44
6949.87
6368.78
5737.15
5054.98
4322.28
1910.92
1853.47
1797.9
1744.09
)


20
(
10447.5
10420.7
10340.2
10206.2
10018.6
9777.31
9482.44
9133.96
8731.86
8276.15
7766.82
7203.88
6587.32
5917.14
5193.34
4415.92
1857.39
1796.45
1737.49
1680.39
)


20
(
10741.9
10714
10630.2
10490.6
10295.1
10043.8
9736.62
9373.59
8954.7
8479.96
7949.37
7362.93
6720.62
6022.47
5268.45
4458.58
1793.24
1729.75
1668.33
1608.84
)


20
(
10885.7
10857.1
10771.3
10628.2
10428
10170.6
9855.94
9484.08
9055.02
8568.74
8025.25
7424.55
6766.64
6051.51
5279.17
4449.62
1719.51
1654.47
1591.56
1530.63
)


20
(
10876.5
10847.7
10761.2
10617
10415.2
10155.7
9838.56
9463.74
9031.26
8541.12
7993.31
7387.83
6724.68
6003.87
5225.38
4389.23
1637.4
1571.85
1508.44
1447.02
)


20
(
10714.6
10686
10600.1
10457.1
10256.9
9999.45
9684.8
9312.94
8883.87
8397.58
7854.09
7253.38
6595.46
5880.32
5107.97
4278.41
1548.27
1483.23
1420.32
1359.39
)


20
(
10402.5
10374.6
10290.8
10151.2
9955.69
9704.35
9397.16
9034.12
8615.22
8140.47
7609.86
7023.39
6381.07
5682.9
4928.86
4118.97
1453.57
1390.08
1328.65
1269.17
)


20
(
9945.28
9918.48
9838.05
9704.02
9516.36
9275.1
8980.21
8631.71
8229.6
7773.86
7264.51
6701.54
6084.95
5414.75
4690.92
3913.47
1354.85
1293.9
1234.94
1177.84
)


20
(
9350.05
9324.78
9248.98
9122.65
8945.79
8718.4
8440.47
8112.01
7733.02
7303.49
6823.43
6292.83
5711.7
5080.03
4397.83
3665.09
1253.6
1196.16
1140.59
1086.77
)


20
(
8625.79
8602.46
8532.49
8415.86
8252.58
8042.64
7786.05
7482.82
7132.92
6736.38
6293.18
5803.32
5266.81
4683.65
4053.83
3377.35
1151.03
1098
1046.69
997.008
)


20
(
7782.85
7761.83
7698.77
7593.68
7446.56
7257.4
7026.2
6752.96
6437.69
6080.38
5681.04
5239.65
4756.23
4230.77
3663.27
3053.73
1047.7
999.912
953.683
908.913
)


20
(
6832.31
6813.93
6758.8
6666.9
6538.25
6372.85
6170.68
5931.76
5656.08
5343.64
4994.44
4608.48
4185.77
3726.29
3230.06
2697.06
942.939
901.154
860.731
821.583
)


20
(
5784.65
5769.21
5722.86
5645.61
5537.47
5398.42
5228.48
5027.64
4795.9
4533.26
4239.72
3915.28
3559.94
3173.7
2756.56
2308.51
833.983
798.858
764.877
731.969
)


20
(
4648.54
4636.26
4599.43
4538.05
4452.11
4341.63
4206.59
4046.99
3862.85
3654.15
3420.89
3163.09
2880.72
2573.81
2242.34
1886.31
714.608
686.696
659.695
633.545
)


20
(
3429.09
3420.18
3393.45
3348.91
3286.54
3206.35
3108.35
2992.52
2858.87
2707.41
2538.12
2351.02
2146.09
1923.34
1682.78
1424.39
574.018
553.761
534.164
515.186
)


20
(
2131.22
2125.82
2109.61
2082.6
2044.78
1996.16
1936.73
1866.49
1785.46
1693.61
1590.96
1477.5
1353.24
1218.18
1072.3
915.622
399.983
387.699
375.816
364.309
)


20
(
774.557
772.747
767.314
758.26
745.584
729.287
709.368
685.828
658.666
627.882
593.477
555.451
513.803
468.534
419.643
367.132
194.314
190.197
186.214
182.357
)


20
(
2418.37
2416.59
2411.25
2402.34
2389.87
2373.83
2354.24
2331.07
2304.34
2274.05
2240.19
2202.76
2161.76
2117.19
2069.05
2017.34
1847.15
1843.1
1839.18
1835.38
)


20
(
3604.63
3599.3
3583.32
3556.69
3519.4
3471.45
3412.85
3343.6
3263.69
3173.12
3071.89
2960.01
2837.46
2704.25
2560.39
2405.85
1897.28
1885.16
1873.44
1862.09
)


20
(
4750.75
4741.96
4715.59
4671.65
4610.13
4531.03
4434.36
4320.1
4188.27
4038.86
3871.86
3687.29
3485.13
3265.39
3028.06
2773.14
1934.2
1914.22
1894.89
1876.16
)


20
(
5839.04
5826.93
5790.6
5730.04
5645.26
5536.26
5403.03
5245.58
5063.91
4858.01
4627.88
4373.53
4094.94
3792.13
3465.09
3113.82
1957.75
1930.21
1903.57
1877.77
)


20
(
6852.67
6837.43
6791.7
6715.48
6608.78
6471.59
6303.92
6105.76
5877.11
5617.97
5328.34
5008.22
4657.61
4276.5
3864.9
3422.81
1967.86
1933.2
1899.67
1867.2
)


20
(
7775.91
7757.77
7703.37
7612.7
7485.76
7322.55
7123.07
6887.33
6615.31
6307.02
5962.45
5581.62
5164.51
4711.12
4221.46
3695.52
1964.63
1923.4
1883.51
1844.88
)


20
(
8594.41
8573.67
8511.46
8407.76
8262.58
8075.93
7847.79
7578.18
7267.08
6914.5
6520.44
6084.9
5607.87
5089.35
4529.35
3927.86
1948.33
1901.18
1855.56
1811.38
)


20
(
9295.45
9272.43
9203.38
9088.29
8927.17
8720.01
8466.82
8167.59
7822.32
7431.02
6993.67
6510.29
5980.86
5405.4
4783.89
4116.34
1919.4
1867.06
1816.43
1767.4
)


20
(
9868.09
9843.16
9768.36
9643.7
9469.17
9244.78
8970.52
8646.39
8272.4
7848.54
7374.81
6851.21
6277.75
5654.41
4981.2
4258.11
1878.4
1821.72
1766.88
1713.77
)


20
(
10303.4
10276.9
10197.6
10065.3
9880.13
9642.04
9351.04
9007.14
8610.32
8160.59
7657.95
7102.39
6493.93
5832.54
5118.25
4351.03
1826.09
1765.95
1707.76
1651.41
)


20
(
10594.6
10567
10484.3
10346.5
10153.6
9905.61
9602.46
9244.2
8830.81
8362.31
7838.68
7259.93
6626.06
5937.07
5192.95
4393.71
1763.36
1700.7
1640.09
1581.38
)


20
(
10737.1
10708.9
10624.2
10483
10285.4
10031.4
9720.86
9353.89
8930.45
8450.56
7914.21
7321.39
6672.12
5966.38
5204.18
4385.51
1691.24
1627.06
1564.97
1504.84
)


20
(
10728.7
10700.3
10614.9
10472.7
10273.5
10017.4
9704.42
9334.52
8907.72
8424.01
7883.39
7285.86
6631.42
5920.07
5151.8
4326.62
1610.92
1546.23
1483.65
1423.04
)


20
(
10569.7
10541.5
10456.8
10315.6
10118
9863.97
9553.45
9186.47
8763.03
8283.13
7746.77
7153.95
6504.66
5798.91
5036.7
4218.03
1523.73
1459.55
1397.46
1337.33
)


20
(
10262.5
10235
10152.3
10014.5
9821.59
9573.56
9270.4
8912.12
8498.72
8030.2
7506.56
6927.8
6293.91
5604.9
4860.76
4061.5
1431.09
1368.43
1307.82
1249.11
)


20
(
9812.18
9785.72
9706.36
9574.08
9388.89
9150.79
8859.78
8515.85
8119.01
7669.26
7166.6
6611.02
6002.53
5341.12
4626.79
3859.55
1334.52
1274.37
1216.19
1159.83
)


20
(
9225.6
9200.67
9125.87
9001.2
8826.66
8602.25
8327.97
8003.82
7629.8
7205.91
6732.16
6208.52
5635.02
5011.65
4338.4
3615.28
1235.45
1178.76
1123.92
1070.81
)


20
(
8511.65
8488.63
8419.57
8304.47
8143.34
7936.16
7682.94
7383.68
7038.38
6647.04
6209.66
5726.24
5196.77
4621.26
3999.71
3332.11
1135.02
1082.69
1032.05
983.02
)


20
(
7680.45
7659.71
7597.49
7493.78
7348.58
7161.9
6933.74
6664.09
6352.96
6000.34
5606.24
5170.65
4693.57
4175.01
3614.96
3013.42
1033.73
986.567
940.945
896.762
)


20
(
6742.91
6724.77
6670.36
6579.67
6452.71
6289.48
6089.97
5854.18
5582.12
5273.78
4929.17
4548.28
4131.11
3677.67
3187.94
2661.94
930.855
889.619
849.726
811.092
)


20
(
5709.32
5694.07
5648.33
5572.1
5465.37
5328.16
5160.45
4962.24
4733.54
4474.35
4184.67
3864.48
3513.81
3132.64
2720.97
2278.81
823.638
788.974
755.44
722.964
)


20
(
4588.23
4576.11
4539.77
4479.19
4394.39
4285.35
4152.08
3994.59
3812.86
3606.9
3376.71
3122.28
2843.63
2540.74
2213.62
1862.27
705.948
678.403
651.756
625.95
)


20
(
3384.82
3376.03
3349.65
3305.69
3244.14
3165.01
3068.29
2953.98
2822.09
2672.62
2505.55
2320.9
2118.67
1898.84
1661.43
1406.44
567.232
547.241
527.901
509.172
)


20
(
2104.11
2098.78
2082.78
2056.12
2018.8
1970.82
1912.17
1842.86
1762.88
1672.24
1570.94
1458.97
1336.34
1203.05
1059.09
904.465
395.595
383.473
371.746
360.389
)


20
(
765.451
763.664
758.303
749.368
736.859
720.775
701.118
677.886
651.081
620.701
586.748
549.221
508.119
463.444
415.196
363.373
192.823
188.761
184.83
181.024
)


20
(
2451.18
2449.38
2443.98
2434.98
2422.38
2406.17
2386.36
2362.96
2335.94
2305.33
2271.11
2233.28
2191.84
2146.8
2098.15
2045.89
1873.89
1869.79
1865.83
1861.99
)


20
(
3650.22
3644.84
3628.68
3601.77
3564.08
3515.62
3456.4
3386.41
3305.65
3214.11
3111.81
2998.73
2874.88
2740.25
2594.85
2438.68
1924.68
1912.43
1900.59
1889.12
)


20
(
4808.61
4799.73
4773.09
4728.68
4666.5
4586.56
4488.86
4373.38
4240.15
4089.14
3920.37
3733.82
3529.51
3307.43
3067.57
2809.94
1962.06
1941.86
1922.32
1903.4
)


20
(
5908.5
5896.26
5859.53
5798.33
5712.65
5602.49
5467.84
5308.71
5125.1
4917.01
4684.43
4427.36
4145.81
3839.77
3509.24
3154.23
1985.84
1958.01
1931.08
1905.01
)


20
(
6932.84
6917.44
6871.22
6794.19
6686.36
6547.71
6378.24
6177.97
5946.88
5684.98
5392.26
5068.73
4714.38
4329.22
3913.23
3466.43
1995.96
1960.94
1927.05
1894.23
)


20
(
7865.76
7847.43
7792.45
7700.81
7572.52
7407.57
7205.97
6967.71
6692.79
6381.21
6032.98
5648.08
5226.53
4768.31
4273.43
3741.88
1992.54
1950.87
1910.55
1871.51
)


20
(
8692.76
8671.8
8608.92
8504.12
8357.39
8168.75
7938.18
7665.69
7351.28
6994.94
6596.68
6156.49
5674.38
5150.34
4584.37
3976.47
1975.83
1928.18
1882.07
1837.42
)


20
(
9400.97
9377.7
9307.92
9191.6
9028.76
8819.4
8563.5
8261.08
7912.14
7516.66
7074.65
6586.12
6051.05
5469.45
4841.32
4166.65
1946.29
1893.39
1842.23
1792.67
)


20
(
9979.35
9954.15
9878.55
9752.56
9576.17
9349.39
9072.21
8744.63
8366.65
7938.27
7459.49
6930.31
6350.73
5720.75
5040.36
4309.57
1904.49
1847.2
1791.77
1738.1
)


20
(
10418.9
10392.1
10311.9
10178.2
9991.09
9750.47
9456.37
9108.79
8707.74
8253.22
7745.22
7183.74
6568.79
5900.36
5178.44
4403.05
1851.2
1790.41
1731.6
1674.65
)


20
(
10712.7
10684.8
10601.3
10462
10267
10016.4
9709.98
9347.9
8930.1
8456.6
7927.4
7342.48
6701.85
6005.51
5253.46
4445.7
1787.31
1723.99
1662.72
1603.39
)


20
(
10856.2
10827.6
10742.1
10599.4
10399.7
10142.9
9829.11
9458.22
9030.28
8545.27
8003.2
7404.06
6747.87
6034.6
5264.28
4436.88
1713.89
1649.03
1586.27
1525.5
)


20
(
10847.1
10818.4
10732.1
10588.3
10387
10128.2
9811.91
9438.07
9006.72
8517.85
7971.47
7367.57
6706.15
5987.21
5210.76
4376.78
1632.13
1566.75
1503.5
1442.25
)


20
(
10685.8
10657.2
10571.7
10429
10229.3
9972.53
9658.7
9287.81
8859.85
8374.84
7832.76
7233.62
6577.41
5864.14
5093.8
4266.4
1543.37
1478.51
1415.76
1354.98
)


20
(
10374.7
10346.8
10263.3
10124
9929.03
9678.35
9371.96
9009.86
8592.06
8118.54
7589.32
7004.39
6363.74
5667.38
4915.31
4107.53
1449.08
1385.76
1324.49
1265.16
)


20
(
9918.82
9892.09
9811.87
9678.19
9491.02
9250.38
8956.27
8608.68
8207.61
7753.06
7245.04
6683.54
6068.56
5400.1
4678.16
3902.74
1350.79
1290
1231.19
1174.24
)


20
(
9325.31
9300.11
9224.51
9098.51
8922.1
8695.3
8418.1
8090.5
7712.49
7284.08
6805.27
6276.06
5696.45
5066.42
4386
3655.17
1249.97
1192.68
1137.25
1083.57
)


20
(
8603.1
8579.83
8510.04
8393.71
8230.85
8021.47
7765.55
7463.1
7114.12
6718.61
6276.56
5787.99
5252.88
4671.23
4043.05
3368.34
1147.83
1094.93
1043.76
994.202
)


20
(
7762.49
7741.52
7678.63
7573.82
7427.08
7238.41
7007.81
6735.29
6420.84
6064.46
5666.16
5225.92
4743.76
4219.67
3653.65
3045.69
1044.9
997.235
951.126
906.473
)


20
(
6814.53
6796.2
6741.21
6649.56
6521.24
6356.27
6154.63
5916.33
5641.37
5329.74
4981.45
4596.5
4174.89
3716.61
3221.67
2690.06
940.515
898.838
858.52
819.474
)


20
(
5769.67
5754.26
5708.03
5630.99
5523.13
5384.45
5214.95
5014.63
4783.49
4521.54
4228.76
3905.17
3550.76
3165.52
2749.47
2302.59
831.904
796.871
762.979
730.157
)


20
(
4636.54
4624.29
4587.56
4526.34
4440.63
4330.43
4195.74
4036.56
3852.9
3644.74
3412.1
3154.96
2873.33
2567.22
2236.61
1881.51
712.865
685.026
658.095
632.013
)


20
(
3420.28
3411.39
3384.73
3340.3
3278.1
3198.12
3100.37
2984.84
2851.55
2700.48
2531.63
2345.02
2140.62
1918.46
1678.52
1420.8
572.648
552.444
532.899
513.97
)


20
(
2125.82
2120.43
2104.27
2077.32
2039.6
1991.11
1931.83
1861.78
1780.96
1689.35
1586.97
1473.81
1349.87
1215.15
1069.66
913.39
399.095
386.844
374.992
363.514
)


20
(
772.746
770.94
765.522
756.491
743.849
727.594
707.727
684.248
657.157
626.453
592.138
554.211
512.671
467.52
418.757
366.382
194.015
189.909
185.937
182.09
)


20
(
2451.18
2449.38
2443.98
2434.98
2422.38
2406.17
2386.36
2362.96
2335.94
2305.33
2271.11
2233.28
2191.84
2146.8
2098.15
2045.89
1873.89
1869.79
1865.83
1861.99
)


20
(
3650.22
3644.84
3628.68
3601.77
3564.08
3515.62
3456.4
3386.41
3305.65
3214.11
3111.81
2998.73
2874.88
2740.25
2594.85
2438.68
1924.68
1912.43
1900.59
1889.12
)


20
(
4808.61
4799.73
4773.09
4728.68
4666.5
4586.56
4488.86
4373.38
4240.15
4089.14
3920.37
3733.82
3529.51
3307.43
3067.57
2809.94
1962.06
1941.86
1922.32
1903.4
)


20
(
5908.5
5896.26
5859.54
5798.33
5712.65
5602.49
5467.84
5308.71
5125.1
4917.01
4684.43
4427.36
4145.81
3839.77
3509.24
3154.23
1985.84
1958.01
1931.08
1905.01
)


20
(
6932.84
6917.44
6871.22
6794.19
6686.35
6547.71
6378.24
6177.97
5946.88
5684.98
5392.26
5068.73
4714.38
4329.22
3913.23
3466.43
1995.96
1960.94
1927.05
1894.23
)


20
(
7865.76
7847.43
7792.45
7700.81
7572.52
7407.57
7205.97
6967.71
6692.79
6381.21
6032.98
5648.08
5226.53
4768.31
4273.43
3741.88
1992.54
1950.87
1910.55
1871.51
)


20
(
8692.76
8671.8
8608.92
8504.12
8357.39
8168.75
7938.18
7665.69
7351.28
6994.94
6596.68
6156.49
5674.38
5150.34
4584.37
3976.47
1975.83
1928.18
1882.07
1837.42
)


20
(
9400.97
9377.7
9307.91
9191.6
9028.76
8819.4
8563.5
8261.08
7912.13
7516.66
7074.65
6586.12
6051.05
5469.45
4841.32
4166.65
1946.29
1893.39
1842.23
1792.67
)


20
(
9979.35
9954.15
9878.55
9752.56
9576.17
9349.39
9072.21
8744.63
8366.65
7938.27
7459.49
6930.31
6350.73
5720.75
5040.36
4309.57
1904.49
1847.2
1791.77
1738.1
)


20
(
10418.9
10392.1
10311.9
10178.2
9991.09
9750.46
9456.37
9108.79
8707.74
8253.22
7745.22
7183.74
6568.79
5900.36
5178.44
4403.05
1851.2
1790.41
1731.6
1674.65
)


20
(
10712.7
10684.8
10601.3
10462
10267
10016.4
9709.98
9347.9
8930.1
8456.6
7927.4
7342.48
6701.85
6005.51
5253.46
4445.7
1787.31
1723.99
1662.72
1603.39
)


20
(
10856.2
10827.6
10742.1
10599.4
10399.7
10142.9
9829.11
9458.22
9030.28
8545.27
8003.2
7404.06
6747.87
6034.6
5264.28
4436.88
1713.89
1649.03
1586.27
1525.5
)


20
(
10847.1
10818.4
10732.1
10588.3
10387
10128.2
9811.91
9438.07
9006.72
8517.85
7971.47
7367.57
6706.15
5987.21
5210.76
4376.78
1632.13
1566.75
1503.5
1442.25
)


20
(
10685.8
10657.2
10571.7
10429
10229.3
9972.53
9658.7
9287.81
8859.85
8374.84
7832.76
7233.61
6577.41
5864.14
5093.8
4266.4
1543.37
1478.51
1415.76
1354.98
)


20
(
10374.7
10346.8
10263.3
10124
9929.03
9678.35
9371.96
9009.86
8592.06
8118.54
7589.32
7004.38
6363.74
5667.38
4915.31
4107.53
1449.08
1385.76
1324.49
1265.16
)


20
(
9918.82
9892.09
9811.87
9678.19
9491.02
9250.38
8956.27
8608.68
8207.61
7753.06
7245.04
6683.54
6068.56
5400.1
4678.16
3902.74
1350.79
1290
1231.19
1174.24
)


20
(
9325.31
9300.11
9224.51
9098.51
8922.1
8695.3
8418.1
8090.5
7712.49
7284.08
6805.27
6276.06
5696.45
5066.42
4386
3655.17
1249.97
1192.68
1137.25
1083.57
)


20
(
8603.1
8579.83
8510.03
8393.71
8230.85
8021.47
7765.55
7463.1
7114.12
6718.61
6276.56
5787.99
5252.88
4671.23
4043.05
3368.34
1147.83
1094.93
1043.76
994.202
)


20
(
7762.49
7741.52
7678.63
7573.82
7427.08
7238.41
7007.81
6735.29
6420.84
6064.46
5666.16
5225.92
4743.76
4219.67
3653.65
3045.69
1044.9
997.235
951.126
906.473
)


20
(
6814.53
6796.2
6741.21
6649.56
6521.24
6356.27
6154.63
5916.33
5641.37
5329.74
4981.45
4596.5
4174.89
3716.61
3221.67
2690.06
940.514
898.838
858.52
819.474
)


20
(
5769.67
5754.26
5708.03
5630.99
5523.13
5384.45
5214.95
5014.63
4783.49
4521.54
4228.76
3905.17
3550.76
3165.52
2749.47
2302.59
831.904
796.871
762.979
730.157
)


20
(
4636.54
4624.29
4587.56
4526.34
4440.63
4330.43
4195.74
4036.56
3852.9
3644.74
3412.1
3154.96
2873.33
2567.22
2236.61
1881.51
712.865
685.026
658.095
632.013
)


20
(
3420.28
3411.39
3384.73
3340.3
3278.1
3198.12
3100.37
2984.85
2851.55
2700.48
2531.63
2345.02
2140.62
1918.46
1678.52
1420.8
572.648
552.444
532.899
513.97
)


20
(
2125.82
2120.43
2104.27
2077.32
2039.6
1991.11
1931.83
1861.78
1780.96
1689.35
1586.97
1473.81
1349.87
1215.15
1069.66
913.39
399.095
386.844
374.992
363.514
)


20
(
772.746
770.94
765.522
756.491
743.849
727.594
707.727
684.248
657.157
626.453
592.138
554.211
512.672
467.52
418.757
366.382
194.015
189.909
185.937
182.09
)


20
(
2418.37
2416.59
2411.25
2402.34
2389.87
2373.84
2354.24
2331.07
2304.35
2274.05
2240.19
2202.76
2161.76
2117.19
2069.06
2017.35
1847.15
1843.1
1839.18
1835.38
)


20
(
3604.63
3599.3
3583.32
3556.69
3519.4
3471.45
3412.85
3343.6
3263.69
3173.12
3071.89
2960.01
2837.46
2704.25
2560.39
2405.86
1897.28
1885.16
1873.44
1862.09
)


20
(
4750.75
4741.96
4715.59
4671.65
4610.13
4531.04
4434.36
4320.11
4188.27
4038.86
3871.87
3687.29
3485.13
3265.39
3028.06
2773.15
1934.21
1914.22
1894.89
1876.17
)


20
(
5839.04
5826.93
5790.6
5730.04
5645.26
5536.26
5403.04
5245.59
5063.91
4858.01
4627.88
4373.53
4094.95
3792.13
3465.09
3113.82
1957.75
1930.21
1903.57
1877.77
)


20
(
6852.67
6837.43
6791.7
6715.48
6608.78
6471.6
6303.92
6105.76
5877.11
5617.97
5328.34
5008.22
4657.61
4276.5
3864.91
3422.81
1967.86
1933.2
1899.67
1867.2
)


20
(
7775.91
7757.78
7703.37
7612.7
7485.76
7322.55
7123.08
6887.33
6615.31
6307.02
5962.45
5581.62
5164.51
4711.12
4221.46
3695.52
1964.63
1923.4
1883.51
1844.88
)


20
(
8594.42
8573.68
8511.46
8407.76
8262.59
8075.93
7847.79
7578.18
7267.08
6914.5
6520.44
6084.9
5607.87
5089.35
4529.35
3927.87
1948.34
1901.18
1855.56
1811.38
)


20
(
9295.45
9272.43
9203.38
9088.29
8927.17
8720.01
8466.82
8167.59
7822.32
7431.02
6993.67
6510.29
5980.86
5405.4
4783.89
4116.34
1919.4
1867.06
1816.44
1767.4
)


20
(
9868.09
9843.16
9768.36
9643.7
9469.17
9244.78
8970.52
8646.39
8272.4
7848.54
7374.81
6851.22
6277.75
5654.41
4981.2
4258.11
1878.4
1821.72
1766.88
1713.77
)


20
(
10303.4
10276.9
10197.6
10065.3
9880.13
9642.04
9351.05
9007.14
8610.32
8160.59
7657.95
7102.4
6493.93
5832.55
5118.25
4351.03
1826.1
1765.95
1707.76
1651.41
)


20
(
10594.6
10567
10484.3
10346.6
10153.6
9905.61
9602.46
9244.2
8830.81
8362.31
7838.68
7259.93
6626.06
5937.07
5192.95
4393.71
1763.36
1700.7
1640.09
1581.38
)


20
(
10737.1
10708.9
10624.2
10483
10285.4
10031.4
9720.86
9353.89
8930.46
8450.56
7914.21
7321.4
6672.12
5966.38
5204.18
4385.51
1691.24
1627.06
1564.97
1504.84
)


20
(
10728.7
10700.3
10614.9
10472.7
10273.5
10017.4
9704.42
9334.52
8907.72
8424.01
7883.39
7285.86
6631.42
5920.07
5151.8
4326.62
1610.93
1546.23
1483.65
1423.04
)


20
(
10569.7
10541.5
10456.8
10315.6
10118
9863.97
9553.45
9186.47
8763.03
8283.13
7746.77
7153.95
6504.66
5798.91
5036.7
4218.03
1523.73
1459.55
1397.46
1337.33
)


20
(
10262.5
10235
10152.3
10014.5
9821.59
9573.56
9270.4
8912.12
8498.72
8030.2
7506.56
6927.8
6293.91
5604.9
4860.76
4061.5
1431.09
1368.44
1307.82
1249.11
)


20
(
9812.18
9785.73
9706.36
9574.08
9388.89
9150.79
8859.78
8515.85
8119.02
7669.27
7166.6
6611.02
6002.53
5341.12
4626.79
3859.55
1334.52
1274.38
1216.19
1159.83
)


20
(
9225.61
9200.67
9125.87
9001.2
8826.66
8602.25
8327.97
8003.82
7629.8
7205.92
6732.16
6208.53
5635.02
5011.65
4338.4
3615.28
1235.45
1178.76
1123.92
1070.81
)


20
(
8511.65
8488.63
8419.57
8304.47
8143.34
7936.16
7682.94
7383.68
7038.38
6647.04
6209.66
5726.24
5196.77
4621.26
3999.71
3332.11
1135.02
1082.69
1032.05
983.02
)


20
(
7680.45
7659.71
7597.49
7493.78
7348.58
7161.9
6933.74
6664.09
6352.96
6000.34
5606.24
5170.65
4693.57
4175.01
3614.96
3013.42
1033.73
986.568
940.946
896.763
)


20
(
6742.91
6724.77
6670.36
6579.68
6452.71
6289.48
6089.97
5854.18
5582.12
5273.78
4929.17
4548.28
4131.11
3677.67
3187.95
2661.95
930.856
889.619
849.726
811.092
)


20
(
5709.32
5694.07
5648.33
5572.1
5465.37
5328.16
5160.45
4962.24
4733.54
4474.35
4184.67
3864.49
3513.81
3132.64
2720.97
2278.81
823.639
788.975
755.44
722.964
)


20
(
4588.23
4576.12
4539.77
4479.2
4394.39
4285.35
4152.09
3994.59
3812.86
3606.9
3376.71
3122.28
2843.63
2540.74
2213.62
1862.27
705.949
678.404
651.757
625.95
)


20
(
3384.83
3376.03
3349.66
3305.69
3244.14
3165.01
3068.29
2953.98
2822.09
2672.62
2505.55
2320.9
2118.67
1898.85
1661.44
1406.44
567.233
547.242
527.902
509.173
)


20
(
2104.11
2098.78
2082.78
2056.12
2018.8
1970.82
1912.17
1842.86
1762.88
1672.24
1570.94
1458.97
1336.34
1203.05
1059.09
904.466
395.595
383.473
371.746
360.39
)


20
(
765.452
763.665
758.303
749.368
736.859
720.775
701.118
677.886
651.081
620.701
586.748
549.221
508.12
463.445
415.196
363.373
192.823
188.761
184.83
181.024
)


20
(
2459.1
2457.3
2451.88
2442.86
2430.22
2413.97
2394.11
2370.64
2343.56
2312.87
2278.55
2240.63
2199.09
2153.93
2105.15
2052.75
1880.3
1876.2
1872.22
1868.37
)


20
(
3661.33
3655.93
3639.74
3612.75
3574.96
3526.38
3467
3396.83
3315.86
3224.08
3121.51
3008.14
2883.96
2748.99
2603.21
2446.62
1931.28
1919.01
1907.13
1895.63
)


20
(
4822.79
4813.88
4787.17
4742.64
4680.3
4600.16
4502.2
4386.42
4252.84
4101.44
3932.22
3745.19
3540.34
3317.68
3077.2
2818.89
1968.8
1948.55
1928.96
1909.99
)


20
(
5925.57
5913.29
5876.48
5815.12
5729.21
5618.76
5483.76
5324.22
5140.13
4931.49
4698.3
4440.56
4158.28
3851.44
3520.05
3164.1
1992.66
1964.76
1937.76
1911.62
)


20
(
6952.59
6937.14
6890.81
6813.58
6705.46
6566.45
6396.54
6195.75
5964.05
5701.47
5407.99
5083.61
4728.33
4342.16
3925.09
3477.12
2002.81
1967.69
1933.72
1900.81
)


20
(
7887.93
7869.55
7814.43
7722.55
7593.92
7428.55
7226.41
6987.53
6711.89
6399.5
6050.36
5664.46
5241.8
4782.38
4286.21
3753.27
1999.36
1957.58
1917.16
1878.02
)


20
(
8717.05
8696.04
8632.99
8527.92
8380.81
8191.67
7960.5
7687.3
7372.07
7014.8
6615.5
6174.16
5690.78
5165.37
4597.92
3988.43
1982.57
1934.79
1888.57
1843.8
)


20
(
9427.06
9403.73
9333.76
9217.14
9053.88
8843.97
8587.4
8284.19
7934.33
7537.82
7094.66
6604.85
6068.38
5485.26
4855.49
4179.06
1952.89
1899.86
1848.56
1798.88
)


20
(
10006.9
9981.61
9905.82
9779.5
9602.65
9375.27
9097.37
8768.93
8389.96
7960.47
7480.44
6949.87
6368.78
5737.15
5054.98
4322.28
1910.92
1853.47
1797.9
1744.09
)


20
(
10447.5
10420.7
10340.2
10206.2
10018.6
9777.31
9482.44
9133.96
8731.86
8276.15
7766.82
7203.88
6587.32
5917.14
5193.34
4415.92
1857.39
1796.45
1737.49
1680.39
)


20
(
10741.9
10714
10630.2
10490.6
10295.1
10043.8
9736.62
9373.59
8954.7
8479.96
7949.37
7362.93
6720.62
6022.47
5268.45
4458.58
1793.24
1729.75
1668.33
1608.84
)


20
(
10885.7
10857.1
10771.3
10628.2
10428
10170.6
9855.94
9484.08
9055.02
8568.74
8025.25
7424.55
6766.64
6051.51
5279.17
4449.62
1719.51
1654.47
1591.56
1530.63
)


20
(
10876.5
10847.7
10761.2
10617
10415.2
10155.7
9838.56
9463.74
9031.26
8541.12
7993.31
7387.83
6724.68
6003.87
5225.38
4389.23
1637.4
1571.85
1508.44
1447.02
)


20
(
10714.6
10686
10600.1
10457.1
10256.9
9999.45
9684.8
9312.94
8883.87
8397.58
7854.09
7253.38
6595.46
5880.32
5107.97
4278.41
1548.27
1483.23
1420.32
1359.39
)


20
(
10402.5
10374.6
10290.8
10151.2
9955.68
9704.35
9397.16
9034.11
8615.22
8140.46
7609.86
7023.39
6381.07
5682.9
4928.86
4118.97
1453.57
1390.08
1328.65
1269.17
)


20
(
9945.28
9918.48
9838.05
9704.02
9516.36
9275.1
8980.21
8631.71
8229.6
7773.86
7264.51
6701.54
6084.95
5414.75
4690.92
3913.47
1354.85
1293.9
1234.94
1177.84
)


20
(
9350.05
9324.78
9248.98
9122.65
8945.79
8718.4
8440.47
8112.01
7733.02
7303.49
6823.43
6292.83
5711.7
5080.03
4397.83
3665.09
1253.6
1196.16
1140.59
1086.77
)


20
(
8625.79
8602.46
8532.49
8415.86
8252.57
8042.64
7786.05
7482.81
7132.92
6736.38
6293.18
5803.32
5266.81
4683.65
4053.83
3377.35
1151.03
1098
1046.69
997.008
)


20
(
7782.85
7761.83
7698.77
7593.68
7446.56
7257.4
7026.2
6752.96
6437.69
6080.38
5681.04
5239.65
4756.23
4230.77
3663.27
3053.73
1047.7
999.912
953.683
908.913
)


20
(
6832.31
6813.93
6758.8
6666.9
6538.25
6372.85
6170.68
5931.76
5656.08
5343.64
4994.44
4608.48
4185.77
3726.29
3230.06
2697.06
942.939
901.154
860.731
821.583
)


20
(
5784.65
5769.2
5722.86
5645.61
5537.47
5398.42
5228.48
5027.64
4795.9
4533.26
4239.72
3915.28
3559.94
3173.7
2756.56
2308.51
833.982
798.857
764.877
731.969
)


20
(
4648.54
4636.26
4599.43
4538.05
4452.12
4341.63
4206.59
4046.99
3862.85
3654.15
3420.89
3163.09
2880.72
2573.81
2242.34
1886.31
714.608
686.697
659.695
633.545
)


20
(
3429.09
3420.18
3393.45
3348.91
3286.54
3206.35
3108.35
2992.52
2858.87
2707.41
2538.12
2351.02
2146.09
1923.35
1682.78
1424.39
574.018
553.761
534.165
515.186
)


20
(
2131.22
2125.82
2109.61
2082.6
2044.78
1996.16
1936.73
1866.49
1785.46
1693.61
1590.96
1477.5
1353.24
1218.18