/*--------------------------------*- C++ -*----------------------------------*\
| =========                 |                                                 |
| \\      /  F ield         | OpenFOAM: The Open Source CFD Toolbox           |
|  \\    /   O peration     | Version:  2212                                  |
|   \\  /    A nd           | Website:  www.openfoam.com                      |
|    \\/     M anipulation  |                                                 |
\*---------------------------------------------------------------------------*/
FoamFile
{
    version     2.0;
    format      ascii;
    arch        "LSB;label=32;scalar=64";
    class       volScalarField;
    location    "95/fluidRegion";
    object      Tci.nuclearFuelPin;
}
// * * * * * * * * * * * * * * * * * * * * * * * * * * * * * * * * * * * * * //

dimensions      [0 0 0 1 0 0 0];

internalField   nonuniform List<scalar> 
350
(
0
0
0
0
0
0
0
0
0
0
0
0
0
0
0
0
0
0
0
0
0
0
0
0
0
0
0
0
0
0
0
0
0
0
0
0
0
0
0
0
0
0
0
0
0
0
0
0
0
0
1852.01
1902.22
1939.2
1962.76
1972.84
1969.56
1953.17
1924.1
1882.95
1830.46
1767.51
1695.15
1614.57
1527.1
1434.17
1337.3
1237.92
1137.2
1035.62
932.488
825.03
707.107
568.133
396.171
193.01
1880.54
1931.5
1969
1992.85
2002.99
1999.52
1982.73
1953.03
1911.04
1857.51
1793.35
1719.61
1637.49
1548.35
1453.64
1354.92
1253.66
1151.08
1047.74
942.976
834.016
714.639
574.046
399.998
194.303
1847.38
1897.49
1934.4
1957.94
1968.03
1964.79
1948.48
1919.53
1878.53
1826.21
1763.47
1691.34
1611.01
1523.8
1431.16
1334.58
1235.51
1135.07
1033.77
930.891
823.67
705.979
567.259
395.61
192.812
1874.12
1924.9
1962.26
1986.03
1996.14
1992.7
1975.99
1946.43
1904.62
1851.31
1787.42
1713.99
1632.22
1543.45
1449.15
1350.85
1250.03
1147.87
1044.94
940.551
831.938
712.896
572.676
399.11
194.004
1874.12
1924.9
1962.26
1986.03
1996.14
1992.7
1975.99
1946.43
1904.62
1851.31
1787.42
1713.99
1632.22
1543.45
1449.15
1350.85
1250.03
1147.87
1044.94
940.551
831.938
712.896
572.676
399.11
194.004
1847.38
1897.49
1934.4
1957.94
1968.03
1964.79
1948.48
1919.53
1878.53
1826.21
1763.47
1691.34
1611.01
1523.8
1431.16
1334.58
1235.51
1135.07
1033.77
930.891
823.671
705.98
567.26
395.61
192.812
1880.54
1931.5
1969
1992.85
2002.99
1999.52
1982.73
1953.03
1911.04
1857.51
1793.35
1719.61
1637.49
1548.35
1453.64
1354.92
1253.66
1151.08
1047.74
942.976
834.016
714.639
574.046
399.998
194.303
1852.01
1902.22
1939.2
1962.76
1972.84
1969.56
1953.17
1924.1
1882.95
1830.46
1767.51
1695.15
1614.57
1527.1
1434.17
1337.3
1237.92
1137.2
1035.62
932.488
825.03
707.107
568.133
396.171
193.01
1874.12
1924.9
1962.26
1986.03
1996.14
1992.7
1975.99
1946.43
1904.62
1851.31
1787.42
1713.99
1632.22
1543.45
1449.15
1350.85
1250.03
1147.87
1044.94
940.551
831.938
712.896
572.676
399.11
194.004
1847.38
1897.49
1934.4
1957.94
1968.03
1964.79
1948.48
1919.53
1878.53
1826.21
1763.47
1691.34
1611.01
1523.8
1431.16
1334.58
1235.51
1135.07
1033.77
930.891
823.67
705.979
567.259
395.61
192.812
1847.38
1897.49
1934.4
1957.94
1968.03
1964.79
1948.48
1919.53
1878.53
1826.21
1763.47
1691.34
1611.01
1523.8
1431.16
1334.58
1235.51
1135.07
1033.77
930.891
823.671
705.979
567.26
395.61
192.812
1874.12
1924.9
1962.26
1986.03
1996.14
1992.7
1975.99
1946.43
1904.62
1851.31
1787.42
1713.99
1632.22
1543.45
1449.15
1350.85
1250.03
1147.87
1044.94
940.551
831.938
712.896
572.676
399.11
194.004
)
;

boundaryField
{
    outletCentralUnloaded
    {
        type            zeroGradient;
    }
    inletCentralUnloaded
    {
        type            zeroGradient;
    }
    outletFuelElement
    {
        type            zeroGradient;
    }
    inletFuelElement
    {
        type            zeroGradient;
    }
    defaultFaces
    {
        type            zeroGradient;
    }
    baffle_master
    {
        type            zeroGradient;
    }
    baffle_slave
    {
        type            zeroGradient;
    }
}


// ************************************************************************* //
