/*--------------------------------*- C++ -*----------------------------------*\
| =========                 |                                                 |
| \\      /  F ield         | OpenFOAM: The Open Source CFD Toolbox           |
|  \\    /   O peration     | Version:  2212                                  |
|   \\  /    A nd           | Website:  www.openfoam.com                      |
|    \\/     M anipulation  |                                                 |
\*---------------------------------------------------------------------------*/
FoamFile
{
    version     2.0;
    format      ascii;
    arch        "LSB;label=32;scalar=64";
    class       scalarFieldField;
    location    "95/fluidRegion";
    object      Trad.nuclearFuelPin;
}
// * * * * * * * * * * * * * * * * * * * * * * * * * * * * * * * * * * * * * //


350
(
0()
0()
0()
0()
0()
0()
0()
0()
0()
0()
0()
0()
0()
0()
0()
0()
0()
0()
0()
0()
0()
0()
0()
0()
0()
0()
0()
0()
0()
0()
0()
0()
0()
0()
0()
0()
0()
0()
0()
0()
0()
0()
0()
0()
0()
0()
0()
0()
0()
0()

20
(
2425.62
2423.83
2418.46
2409.51
2396.98
2380.87
2361.18
2337.91
2311.06
2280.63
2246.61
2209.02
2167.85
2123.1
2074.77
2022.86
1852.01
1847.94
1844.01
1840.19
)


20
(
3614.02
3608.68
3592.65
3565.94
3528.55
3480.47
3421.71
3352.26
3272.13
3181.32
3079.82
2967.64
2844.77
2711.22
2566.98
2412.07
1902.22
1890.08
1878.33
1866.95
)


20
(
4762.2
4753.39
4726.96
4682.91
4621.24
4541.95
4445.05
4330.52
4198.37
4048.61
3881.22
3696.22
3493.59
3273.35
3035.49
2780
1939.2
1919.17
1899.8
1881.03
)


20
(
5852.43
5840.29
5803.88
5743.18
5658.21
5548.97
5415.44
5257.64
5075.56
4869.21
4638.58
4383.67
4104.48
3801.02
3473.28
3121.26
1962.76
1935.16
1908.47
1882.61
)


20
(
6867.84
6852.57
6806.74
6730.36
6623.43
6485.95
6317.91
6119.33
5890.19
5630.5
5340.26
5019.47
4668.12
4286.22
3873.77
3430.77
1972.84
1938.11
1904.52
1871.98
)


20
(
7792.69
7774.52
7720
7629.14
7501.93
7338.38
7138.49
6902.25
6629.66
6320.74
5975.46
5593.84
5175.88
4721.57
4230.92
3703.92
1969.56
1928.24
1888.27
1849.57
)


20
(
8612.6
8591.82
8529.47
8425.56
8280.08
8093.04
7864.44
7594.27
7282.54
6929.25
6534.38
6097.96
5619.97
5100.42
4539.3
3936.62
1953.17
1905.92
1860.21
1815.95
)


20
(
9314.81
9291.74
9222.55
9107.23
8945.78
8738.2
8484.49
8184.66
7838.7
7446.6
7008.38
6524.03
5993.56
5416.95
4794.22
4125.36
1924.1
1871.67
1820.94
1771.81
)


20
(
9888.37
9863.39
9788.44
9663.53
9488.65
9263.81
8989
8664.22
8289.49
7864.78
7390.11
6865.48
6290.88
5666.32
4991.79
4267.29
1882.95
1826.15
1771.21
1717.99
)


20
(
10324.3
10297.8
10218.3
10085.8
9900.23
9661.67
9370.09
9025.5
8627.9
8177.28
7673.65
7117
6507.34
5844.67
5128.98
4360.28
1830.46
1770.19
1711.89
1655.43
)


20
(
10615.9
10588.3
10505.5
10367.4
10174.1
9925.57
9621.83
9262.85
8848.66
8379.23
7854.58
7274.7
6639.59
5949.26
5203.71
4402.92
1767.51
1704.73
1644
1585.18
)


20
(
10758.5
10730.2
10645.4
10504
10306
10051.4
9740.29
9372.59
8948.33
8467.5
7930.11
7336.14
6685.6
5978.5
5214.83
4394.59
1695.15
1630.85
1568.64
1508.39
)


20
(
10750
10721.5
10635.9
10493.4
10293.8
10037.3
9723.65
9353.04
8925.4
8440.75
7899.08
7300.39
6644.69
5931.97
5162.23
4335.47
1614.57
1549.76
1487.05
1426.33
)


20
(
10590.5
10562.2
10477.3
10335.9
10137.9
9883.36
9572.24
9204.54
8780.28
8299.45
7762.05
7168.08
6517.55
5810.45
5046.78
4226.54
1527.1
1462.79
1400.59
1340.34
)


20
(
10282.6
10255
10172.1
10034
9840.76
9592.24
9288.49
8929.52
8515.32
8045.89
7521.24
6941.36
6306.26
5615.93
4870.37
4069.58
1434.17
1371.39
1310.66
1251.84
)


20
(
9831.18
9804.68
9725.16
9592.62
9407.07
9168.51
8876.93
8532.34
8134.74
7684.12
7180.49
6623.84
6014.19
5351.51
4635.82
3867.12
1337.3
1277.04
1218.74
1162.28
)


20
(
9243.34
9218.36
9143.41
9018.5
8843.62
8618.78
8343.97
8019.2
7644.46
7219.76
6745.09
6220.45
5645.85
5021.29
4346.76
3622.26
1237.92
1181.13
1126.18
1072.97
)


20
(
8527.9
8504.84
8435.65
8320.33
8158.88
7951.3
7697.59
7397.76
7051.79
6659.7
6221.48
5737.13
5206.65
4630.05
4007.31
3338.45
1137.2
1084.76
1034.03
984.905
)


20
(
7695.02
7674.24
7611.89
7507.98
7362.51
7175.47
6946.87
6676.7
6364.97
6011.68
5616.82
5180.39
4702.41
4182.85
3621.74
3019.06
1035.62
988.37
942.661
898.396
)


20
(
6755.63
6737.46
6682.94
6592.08
6464.87
6301.32
6101.43
5865.19
5592.6
5283.67
4938.4
4556.78
4138.81
3684.51
3193.85
2666.86
932.488
891.173
851.204
812.497
)


20
(
5720.04
5704.76
5658.94
5582.56
5475.63
5338.14
5170.11
4971.52
4742.38
4482.69
4192.45
3871.66
3520.31
3138.41
2725.96
2282.96
825.03
790.301
756.703
724.165
)


20
(
4596.82
4584.69
4548.27
4487.58
4402.61
4293.36
4159.83
4002.03
3819.95
3613.59
3382.96
3128.05
2848.86
2545.39
2217.64
1865.62
707.107
679.51
652.812
626.957
)


20
(
3391.14
3382.33
3355.9
3311.85
3250.18
3170.89
3073.98
2959.46
2827.31
2677.54
2510.16
2325.15
2122.53
1902.28
1664.42
1408.94
568.133
548.104
528.728
509.963
)


20
(
2107.94
2102.6
2086.57
2059.86
2022.47
1974.39
1915.63
1846.18
1766.06
1675.24
1573.75
1461.57
1338.7
1205.15
1060.92
906.005
396.171
384.026
372.277
360.898
)


20
(
766.63
764.84
759.469
750.519
737.988
721.877
702.186
678.915
652.063
621.632
587.62
550.028
508.855
464.103
415.77
363.857
193.01
188.94
185.003
181.19
)


20
(
2460.72
2458.91
2453.47
2444.42
2431.75
2415.45
2395.54
2372
2344.84
2314.06
2279.66
2241.64
2200
2154.73
2105.85
2053.34
1880.54
1876.42
1872.44
1868.59
)


20
(
3662.91
3657.51
3641.3
3614.28
3576.46
3527.83
3468.4
3398.15
3317.11
3225.25
3122.59
3009.12
2884.85
2749.77
2603.88
2447.19
1931.5
1919.22
1907.33
1895.82
)


20
(
4824.34
4815.43
4788.69
4744.14
4681.77
4601.57
4503.55
4387.71
4254.05
4102.57
3933.27
3746.15
3541.2
3318.44
3077.85
2819.44
1969
1948.75
1929.15
1910.17
)


20
(
5927.08
5914.8
5877.97
5816.58
5730.64
5620.14
5485.09
5325.48
5141.31
4932.59
4699.32
4441.49
4159.11
3852.17
3520.67
3164.62
1992.85
1964.94
1937.94
1911.78
)


20
(
6954.06
6938.61
6892.26
6815.01
6706.85
6567.79
6397.83
6196.97
5965.21
5702.54
5408.98
5084.51
4729.14
4342.87
3925.7
3477.62
2002.99
1967.86
1933.88
1900.97
)


20
(
7889.36
7870.98
7815.84
7723.94
7595.28
7429.85
7227.67
6988.72
6713.01
6400.55
6051.32
5665.33
5242.58
4783.06
4286.79
3753.76
1999.52
1957.74
1917.31
1878.16
)


20
(
8718.44
8697.42
8634.36
8529.26
8382.12
8192.94
7961.71
7688.45
7373.15
7015.81
6616.42
6175
5691.53
5166.03
4598.48
3988.9
1982.73
1934.94
1888.71
1843.93
)


20
(
9428.4
9405.07
9335.08
9218.44
9055.14
8845.19
8588.57
8285.3
7935.38
7538.79
7095.55
6605.66
6069.1
5485.89
4856.03
4179.5
1953.03
1900
1848.69
1799
)


20
(
10008.2
9982.9
9907.09
9780.75
9603.86
9376.45
9098.49
8770
8390.96
7961.4
7481.29
6950.65
6369.47
5737.75
5055.49
4322.7
1911.04
1853.6
1798.02
1744.2
)


20
(
10448.7
10421.9
10341.5
10207.4
10019.7
9778.43
9483.51
9134.98
8732.82
8277.04
7767.64
7204.62
6587.97
5917.71
5193.82
4416.32
1857.51
1796.56
1737.59
1680.49
)


20
(
10743.1
10715.2
10631.4
10491.7
10296.2
10044.9
9737.64
9374.55
8955.61
8480.81
7950.15
7363.62
6721.24
6023
5268.91
4458.95
1793.35
1729.85
1668.42
1608.93
)


20
(
10886.8
10858.2
10772.4
10629.3
10429.1
10171.6
9856.9
9484.99
9055.87
8569.54
8025.98
7425.21
6767.22
6052.02
5279.6
4449.97
1719.61
1654.57
1591.64
1530.71
)


20
(
10877.5
10848.7
10762.2
10618
10416.2
10156.7
9839.46
9464.6
9032.07
8541.86
7993.99
7388.44
6725.23
6004.34
5225.78
4389.55
1637.49
1571.93
1508.51
1447.09
)


20
(
10715.5
10686.9
10601.1
10458.1
10257.8
10000.3
9685.64
9313.74
8884.61
8398.28
7854.72
7253.95
6595.97
5880.76
5108.34
4278.71
1548.35
1483.31
1420.39
1359.45
)


20
(
10403.4
10375.5
10291.7
10152
9956.52
9705.16
9397.93
9034.85
8615.91
8141.1
7610.44
7023.92
6381.54
5683.3
4929.2
4119.24
1453.64
1390.14
1328.72
1269.23
)


20
(
9946.1
9919.29
9838.86
9704.8
9517.13
9275.84
8980.92
8632.38
8230.22
7774.44
7265.04
6702.02
6085.38
5415.11
4691.23
3913.72
1354.92
1293.96
1234.99
1177.89
)


20
(
9350.78
9325.51
9249.71
9123.36
8946.48
8719.06
8441.11
8112.61
7733.58
7304.01
6823.91
6293.26
5712.08
5080.36
4398.11
3665.31
1253.66
1196.21
1140.63
1086.81
)


20
(
8626.45
8603.12
8533.13
8416.49
8253.19
8043.24
7786.62
7483.35
7133.43
6736.84
6293.6
5803.71
5267.15
4683.94
4054.07
3377.55
1151.08
1098.04
1046.73
997.045
)


20
(
7783.43
7762.41
7699.35
7594.25
7447.11
7257.92
7026.7
6753.44
6438.14
6080.8
5681.42
5239.99
4756.53
4231.03
3663.48
3053.9
1047.74
999.95
953.718
908.945
)


20
(
6832.82
6814.44
6759.3
6667.4
6538.73
6373.31
6171.12
5932.18
5656.47
5344
4994.77
4608.78
4186.03
3726.52
3230.25
2697.21
942.976
901.188
860.762
821.611
)


20
(
5785.1
5769.65
5723.29
5646.04
5537.88
5398.83
5228.87
5028.01
4796.24
4533.58
4240.01
3915.54
3560.17
3173.9
2756.73
2308.65
834.016
798.888
764.906
731.995
)


20
(
4648.91
4636.64
4599.8
4538.41
4452.47
4341.97
4206.92
4047.3
3863.14
3654.42
3421.14
3163.31
2880.92
2573.98
2242.48
1886.43
714.639
686.726
659.722
633.57
)


20
(
3429.39
3420.48
3393.74
3349.19
3286.82
3206.62
3108.6
2992.76
2859.1
2707.62
2538.32
2351.19
2146.25
1923.48
1682.89
1424.48
574.046
553.788
534.189
515.21
)


20
(
2131.38
2125.97
2109.76
2082.75
2044.93
1996.3
1936.86
1866.62
1785.58
1693.72
1591.06
1477.6
1353.33
1218.25
1072.36
915.673
399.998
387.714
375.831
364.322
)


20
(
774.494
772.683
767.251
758.198
745.524
729.229
709.312
685.774
658.615
627.835
593.433
555.41
513.766
468.501
419.615
367.107
194.303
190.187
186.204
182.348
)


20
(
2419.94
2418.15
2412.79
2403.86
2391.35
2375.27
2355.62
2332.39
2305.59
2275.21
2241.26
2203.74
2162.64
2117.97
2069.73
2017.91
1847.38
1843.32
1839.39
1835.58
)


20
(
3606.17
3600.83
3584.84
3558.18
3520.85
3472.86
3414.2
3344.88
3264.9
3174.25
3072.94
2960.96
2838.32
2705.01
2561.04
2406.4
1897.49
1885.37
1873.64
1862.28
)


20
(
4752.25
4743.46
4717.07
4673.11
4611.55
4532.41
4435.68
4321.36
4189.45
4039.96
3872.88
3688.22
3485.96
3266.12
3028.69
2773.67
1934.4
1914.41
1895.07
1876.34
)


20
(
5840.51
5828.39
5792.04
5731.46
5646.65
5537.6
5404.32
5246.81
5065.06
4859.08
4628.87
4374.43
4095.75
3792.84
3465.7
3114.32
1957.94
1930.39
1903.74
1877.93
)


20
(
6854.1
6838.85
6793.11
6716.87
6610.13
6472.9
6305.17
6106.95
5878.23
5619.01
5329.3
5009.09
4658.39
4277.19
3865.49
3423.3
1968.03
1933.36
1899.83
1867.35
)


20
(
7777.3
7759.16
7704.74
7614.05
7487.07
7323.82
7124.29
6888.48
6616.4
6308.03
5963.39
5582.46
5165.26
4711.78
4222.03
3695.99
1964.79
1923.55
1883.65
1845.02
)


20
(
8595.76
8575.02
8512.79
8409.07
8263.86
8077.16
7848.97
7579.3
7268.13
6915.48
6521.34
6085.71
5608.6
5089.99
4529.9
3928.31
1948.48
1901.32
1855.69
1811.51
)


20
(
9296.75
9273.73
9204.66
9089.55
8928.4
8721.2
8467.96
8168.67
7823.34
7431.96
6994.54
6511.07
5981.56
5406.01
4784.41
4116.77
1919.53
1867.19
1816.56
1767.52
)


20
(
9869.34
9844.41
9769.6
9644.91
9470.35
9245.92
8971.61
8647.43
8273.38
7849.45
7375.64
6851.97
6278.42
5654.99
4981.69
4258.52
1878.53
1821.83
1766.99
1713.87
)


20
(
10304.6
10278.1
10198.8
10066.5
9881.26
9643.13
9352.09
9008.13
8611.25
8161.45
7658.74
7103.11
6494.56
5833.1
5118.72
4351.42
1826.21
1766.06
1707.86
1651.51
)


20
(
10595.7
10568.2
10485.5
10347.7
10154.7
9906.65
9603.46
9245.14
8831.7
8363.13
7839.43
7260.61
6626.66
5937.59
5193.39
4394.07
1763.47
1700.8
1640.18
1581.47
)


20
(
10738.2
10709.9
10625.2
10484.1
10286.5
10032.4
9721.8
9354.78
8931.29
8451.34
7914.92
7322.04
6672.69
5966.87
5204.6
4385.85
1691.34
1627.15
1565.06
1504.92
)


20
(
10729.7
10701.3
10615.9
10473.6
10274.4
10018.3
9705.3
9335.36
8908.5
8424.74
7884.06
7286.46
6631.95
5920.53
5152.19
4326.94
1611.01
1546.31
1483.72
1423.11
)


20
(
10570.6
10542.4
10457.7
10316.5
10118.9
9864.83
9554.27
9187.24
8763.76
8283.8
7747.39
7154.5
6505.15
5799.34
5037.06
4218.32
1523.8
1459.62
1397.52
1337.39
)


20
(
10263.4
10235.9
10153.2
10015.4
9822.41
9574.35
9271.15
8912.84
8499.39
8030.82
7507.13
6928.31
6294.36
5605.29
4861.09
4061.77
1431.16
1368.5
1307.88
1249.17
)


20
(
9812.98
9786.52
9707.14
9574.85
9389.64
9151.51
8860.47
8516.51
8119.63
7669.83
7167.12
6611.49
6002.94
5341.48
4627.09
3859.79
1334.58
1274.43
1216.24
1159.88
)


20
(
9226.32
9201.39
9126.58
9001.89
8827.33
8602.9
8328.59
8004.41
7630.36
7206.43
6732.62
6208.95
5635.39
5011.97
4338.67
3615.5
1235.51
1178.81
1123.96
1070.85
)


20
(
8512.29
8489.27
8420.21
8305.09
8143.94
7936.74
7683.5
7384.21
7038.88
6647.5
6210.08
5726.61
5197.1
4621.55
3999.95
3332.31
1135.07
1082.73
1032.09
983.055
)


20
(
7681.02
7660.28
7598.05
7494.33
7349.12
7162.42
6934.23
6664.56
6353.4
6000.75
5606.61
5170.98
4693.87
4175.26
3615.17
3013.59
1033.77
986.604
940.979
896.793
)


20
(
6743.41
6725.27
6670.85
6580.16
6453.18
6289.93
6090.4
5854.59
5582.5
5274.14
4929.49
4548.57
4131.37
3677.89
3188.13
2662.1
930.891
889.651
849.756
811.119
)


20
(
5709.75
5694.5
5648.76
5572.52
5465.78
5328.55
5160.82
4962.6
4733.88
4474.66
4184.95
3864.74
3514.03
3132.83
2721.14
2278.94
823.67
789.004
755.467
722.989
)


20
(
4588.6
4576.48
4540.13
4479.55
4394.74
4285.69
4152.4
3994.89
3813.14
3607.16
3376.95
3122.5
2843.82
2540.91
2213.76
1862.38
705.979
678.432
651.783
625.974
)


20
(
3385.11
3376.32
3349.94
3305.97
3244.41
3165.27
3068.54
2954.22
2822.32
2672.82
2505.74
2321.07
2118.82
1898.98
1661.55
1406.53
567.259
547.267
527.926
509.195
)


20
(
2104.26
2098.92
2082.93
2056.27
2018.94
1970.95
1912.3
1842.98
1763
1672.35
1571.04
1459.06
1336.42
1203.12
1059.15
904.514
395.61
383.487
371.759
360.402
)


20
(
765.386
763.599
758.239
749.304
736.797
720.715
701.06
677.831
651.029
620.652
586.702
549.179
508.082
463.411
415.166
363.348
192.812
188.75
184.82
181.014
)


20
(
2452.79
2450.98
2445.57
2436.54
2423.9
2407.64
2387.78
2364.3
2337.22
2306.52
2272.21
2234.28
2192.75
2147.6
2098.84
2046.48
1874.12
1870.02
1866.05
1862.2
)


20
(
3651.79
3646.4
3630.24
3603.29
3565.57
3517.06
3457.78
3387.72
3306.89
3215.27
3112.88
2999.71
2875.76
2741.03
2595.52
2439.24
1924.9
1912.65
1900.79
1889.31
)


20
(
4810.15
4801.27
4774.6
4730.17
4667.95
4587.97
4490.21
4374.67
4241.36
4090.27
3921.41
3734.77
3530.36
3308.18
3068.22
2810.48
1962.26
1942.06
1922.51
1903.58
)


20
(
5910
5897.75
5861.02
5799.79
5714.07
5603.86
5469.16
5309.97
5126.28
4918.11
4685.44
4428.29
4146.64
3840.5
3509.87
3154.75
1986.03
1958.19
1931.26
1905.17
)


20
(
6934.31
6918.9
6872.66
6795.61
6687.74
6549.04
6379.53
6179.19
5948.03
5686.05
5393.25
5069.63
4715.19
4329.92
3913.84
3466.93
1996.14
1961.11
1927.21
1894.39
)


20
(
7867.19
7848.85
7793.86
7702.19
7573.86
7408.87
7207.21
6968.89
6693.9
6382.25
6033.93
5648.95
5227.3
4768.99
4274.01
3742.36
1992.7
1951.02
1910.7
1871.65
)


20
(
8694.14
8673.17
8610.28
8505.45
8358.69
8170.01
7939.39
7666.84
7352.35
6995.94
6597.6
6157.33
5675.12
5150.99
4584.92
3976.93
1975.99
1928.32
1882.21
1837.55
)


20
(
9402.3
9379.03
9309.23
9192.89
9030.02
8820.61
8564.67
8262.19
7913.17
7517.62
7075.54
6586.92
6051.76
5470.07
4841.85
4167.09
1946.43
1893.53
1842.35
1792.79
)


20
(
9980.63
9955.42
9879.82
9753.8
9577.38
9350.56
9073.32
8745.69
8367.64
7939.2
7460.34
6931.08
6351.41
5721.34
5040.87
4309.98
1904.62
1847.32
1791.89
1738.21
)


20
(
10420.1
10393.4
10313.1
10179.4
9992.25
9751.58
9457.43
9109.8
8708.69
8254.1
7746.03
7184.48
6569.44
5900.92
5178.93
4403.45
1851.31
1790.52
1731.71
1674.75
)


20
(
10713.8
10686
10602.4
10463.1
10268.1
10017.4
9711
9348.86
8931.01
8457.44
7928.16
7343.17
6702.47
6006.05
5253.92
4446.07
1787.42
1724.09
1662.82
1603.48
)


20
(
10857.3
10828.7
10743.1
10600.5
10400.7
10143.9
9830.07
9459.13
9031.13
8546.06
8003.92
7404.72
6748.45
6035.11
5264.7
4437.23
1713.99
1649.12
1586.36
1525.58
)


20
(
10848.2
10819.4
10733.1
10589.3
10388
10129.2
9812.81
9438.92
9007.52
8518.59
7972.15
7368.18
6706.69
5987.68
5211.15
4377.11
1632.22
1566.83
1503.58
1442.32
)


20
(
10686.7
10658.2
10572.6
10429.9
10230.2
9973.4
9659.53
9288.6
8860.59
8375.52
7833.39
7234.18
6577.91
5864.57
5094.17
4266.7
1543.45
1478.58
1415.82
1355.05
)


20
(
10375.6
10347.7
10264.1
10124.9
9929.87
9679.16
9372.73
9010.59
8592.74
8119.18
7589.9
7004.91
6364.2
5667.78
4915.65
4107.8
1449.15
1385.82
1324.55
1265.22
)


20
(
9919.64
9892.9
9812.67
9678.97
9491.79
9251.12
8956.97
8609.34
8208.23
7753.64
7245.57
6684.01
6068.98
5400.46
4678.46
3902.98
1350.85
1290.06
1231.24
1174.28
)


20
(
9326.04
9300.84
9225.23
9099.21
8922.79
8695.97
8418.74
8091.1
7713.06
7284.61
6805.75
6276.49
5696.82
5066.75
4386.27
3655.39
1250.03
1192.73
1137.3
1083.61
)


20
(
8603.75
8580.48
8510.68
8394.34
8231.47
8022.06
7766.12
7463.64
7114.62
6719.07
6276.99
5788.37
5253.21
4671.52
4043.3
3368.54
1147.87
1094.97
1043.8
994.238
)


20
(
7763.07
7742.1
7679.2
7574.38
7427.62
7238.93
7008.31
6735.77
6421.29
6064.87
5666.53
5226.26
4744.06
4219.93
3653.86
3045.87
1044.94
997.273
951.161
906.505
)


20
(
6815.04
6796.71
6741.71
6650.05
6521.72
6356.73
6155.07
5916.75
5641.76
5330.1
4981.78
4596.8
4175.15
3716.84
3221.86
2690.21
940.551
898.872
858.551
819.502
)


20
(
5770.11
5754.7
5708.47
5631.42
5523.54
5384.85
5215.33
5014.99
4783.83
4521.85
4229.05
3905.43
3550.99
3165.72
2749.63
2302.73
831.938
796.902
763.007
730.183
)


20
(
4636.91
4624.67
4587.93
4526.7
4440.98
4330.77
4196.07
4036.87
3853.19
3645.01
3412.34
3155.18
2873.53
2567.39
2236.75
1881.63
712.896
685.055
658.122
632.038
)


20
(
3420.57
3411.68
3385.02
3340.59
3278.37
3198.39
3100.62
2985.09
2851.78
2700.69
2531.83
2345.19
2140.78
1918.59
1678.63
1420.9
572.676
552.471
532.924
513.993
)


20
(
2125.97
2120.58
2104.42
2077.47
2039.75
1991.25
1931.97
1861.91
1781.08
1689.46
1587.07
1473.9
1349.95
1215.23
1069.72
913.44
399.11
386.858
375.006
363.527
)


20
(
772.682
770.876
765.459
756.429
743.788
727.535
707.67
684.194
657.105
626.405
592.094
554.17
512.635
467.487
418.729
366.358
194.004
189.898
185.926
182.08
)


20
(
2452.79
2450.98
2445.57
2436.54
2423.9
2407.64
2387.78
2364.3
2337.22
2306.52
2272.21
2234.28
2192.75
2147.6
2098.84
2046.48
1874.12
1870.02
1866.05
1862.2
)


20
(
3651.79
3646.4
3630.24
3603.29
3565.57
3517.06
3457.78
3387.72
3306.89
3215.27
3112.88
2999.71
2875.76
2741.03
2595.52
2439.24
1924.9
1912.65
1900.79
1889.31
)


20
(
4810.15
4801.27
4774.6
4730.17
4667.95
4587.97
4490.21
4374.67
4241.36
4090.27
3921.41
3734.77
3530.36
3308.18
3068.22
2810.48
1962.26
1942.06
1922.51
1903.58
)


20
(
5910
5897.75
5861.02
5799.79
5714.07
5603.86
5469.16
5309.97
5126.28
4918.11
4685.44
4428.29
4146.64
3840.5
3509.87
3154.75
1986.03
1958.19
1931.26
1905.17
)


20
(
6934.31
6918.9
6872.66
6795.61
6687.74
6549.04
6379.53
6179.19
5948.03
5686.05
5393.25
5069.63
4715.18
4329.92
3913.83
3466.93
1996.14
1961.11
1927.21
1894.39
)


20
(
7867.19
7848.85
7793.86
7702.19
7573.86
7408.87
7207.21
6968.89
6693.9
6382.25
6033.93
5648.95
5227.3
4768.99
4274.01
3742.36
1992.7
1951.02
1910.7
1871.65
)


20
(
8694.14
8673.17
8610.28
8505.45
8358.69
8170.01
7939.39
7666.84
7352.35
6995.94
6597.6
6157.33
5675.12
5150.99
4584.92
3976.93
1975.99
1928.32
1882.21
1837.55
)


20
(
9402.3
9379.03
9309.23
9192.89
9030.02
8820.61
8564.66
8262.19
7913.17
7517.62
7075.54
6586.92
6051.76
5470.07
4841.85
4167.09
1946.43
1893.53
1842.35
1792.79
)


20
(
9980.63
9955.42
9879.82
9753.8
9577.38
9350.56
9073.32
8745.69
8367.64
7939.2
7460.34
6931.08
6351.41
5721.34
5040.87
4309.98
1904.62
1847.32
1791.89
1738.21
)


20
(
10420.1
10393.4
10313.1
10179.4
9992.25
9751.58
9457.43
9109.8
8708.69
8254.1
7746.03
7184.48
6569.44
5900.92
5178.93
4403.45
1851.31
1790.52
1731.71
1674.75
)


20
(
10713.8
10686
10602.4
10463.1
10268.1
10017.4
9711
9348.86
8931.01
8457.44
7928.16
7343.17
6702.47
6006.05
5253.92
4446.07
1787.42
1724.09
1662.82
1603.48
)


20
(
10857.3
10828.7
10743.1
10600.5
10400.7
10143.9
9830.07
9459.13
9031.13
8546.06
8003.92
7404.72
6748.45
6035.11
5264.7
4437.23
1713.99
1649.12
1586.36
1525.58
)


20
(
10848.2
10819.4
10733.1
10589.3
10388
10129.2
9812.8
9438.92
9007.52
8518.59
7972.14
7368.18
6706.69
5987.68
5211.15
4377.11
1632.22
1566.83
1503.58
1442.32
)


20
(
10686.7
10658.2
10572.6
10429.9
10230.2
9973.4
9659.53
9288.6
8860.59
8375.52
7833.39
7234.18
6577.91
5864.57
5094.17
4266.7
1543.45
1478.58
1415.82
1355.05
)


20
(
10375.6
10347.7
10264.1
10124.9
9929.87
9679.16
9372.73
9010.59
8592.74
8119.18
7589.9
7004.91
6364.2
5667.78
4915.65
4107.8
1449.15
1385.82
1324.55
1265.22
)


20
(
9919.64
9892.9
9812.67
9678.97
9491.79
9251.12
8956.97
8609.34
8208.23
7753.64
7245.57
6684.01
6068.98
5400.46
4678.46
3902.98
1350.85
1290.06
1231.24
1174.28
)


20
(
9326.04
9300.84
9225.23
9099.21
8922.79
8695.97
8418.74
8091.1
7713.06
7284.61
6805.75
6276.49
5696.82
5066.75
4386.27
3655.39
1250.03
1192.73
1137.3
1083.61
)


20
(
8603.75
8580.48
8510.68
8394.34
8231.47
8022.06
7766.12
7463.64
7114.62
6719.07
6276.99
5788.37
5253.21
4671.52
4043.3
3368.54
1147.87
1094.97
1043.8
994.238
)


20
(
7763.07
7742.1
7679.2
7574.38
7427.62
7238.93
7008.31
6735.76
6421.29
6064.87
5666.53
5226.26
4744.06
4219.93
3653.86
3045.87
1044.94
997.273
951.161
906.505
)


20
(
6815.04
6796.71
6741.71
6650.05
6521.72
6356.73
6155.07
5916.75
5641.76
5330.1
4981.78
4596.8
4175.15
3716.84
3221.86
2690.21
940.551
898.872
858.551
819.502
)


20
(
5770.11
5754.7
5708.47
5631.42
5523.54
5384.85
5215.33
5014.99
4783.83
4521.85
4229.05
3905.43
3550.99
3165.72
2749.63
2302.73
831.938
796.902
763.007
730.183
)


20
(
4636.91
4624.67
4587.93
4526.7
4440.98
4330.77
4196.07
4036.87
3853.19
3645.01
3412.34
3155.18
2873.53
2567.39
2236.75
1881.63
712.896
685.055
658.122
632.039
)


20
(
3420.57
3411.69
3385.02
3340.59
3278.37
3198.39
3100.62
2985.09
2851.78
2700.69
2531.83
2345.19
2140.78
1918.59
1678.63
1420.9
572.676
552.471
532.924
513.993
)


20
(
2125.97
2120.58
2104.42
2077.47
2039.75
1991.25
1931.97
1861.91
1781.08
1689.46
1587.07
1473.9
1349.95
1215.23
1069.72
913.44
399.11
386.858
375.006
363.527
)


20
(
772.682
770.876
765.459
756.429
743.788
727.535
707.67
684.194
657.106
626.405
592.094
554.17
512.635
467.487
418.729
366.358
194.004
189.898
185.926
182.08
)


20
(
2419.94
2418.15
2412.79
2403.86
2391.35
2375.27
2355.62
2332.39
2305.59
2275.21
2241.26
2203.74
2162.64
2117.97
2069.73
2017.91
1847.38
1843.32
1839.39
1835.58
)


20
(
3606.17
3600.83
3584.84
3558.18
3520.85
3472.86
3414.21
3344.89
3264.9
3174.25
3072.94
2960.96
2838.32
2705.01
2561.04
2406.4
1897.49
1885.37
1873.64
1862.28
)


20
(
4752.25
4743.46
4717.08
4673.11
4611.55
4532.41
4435.68
4321.36
4189.46
4039.96
3872.88
3688.22
3485.96
3266.12
3028.69
2773.67
1934.4
1914.41
1895.07
1876.34
)


20
(
5840.51
5828.4
5792.05
5731.46
5646.65
5537.6
5404.32
5246.81
5065.06
4859.09
4628.87
4374.43
4095.75
3792.84
3465.7
3114.33
1957.94
1930.39
1903.74
1877.93
)


20
(
6854.1
6838.85
6793.11
6716.87
6610.13
6472.9
6305.17
6106.95
5878.23
5619.01
5329.3
5009.09
4658.39
4277.19
3865.49
3423.3
1968.03
1933.36
1899.83
1867.35
)


20
(
7777.3
7759.16
7704.75
7614.05
7487.08
7323.82
7124.29
6888.48
6616.4
6308.03
5963.39
5582.47
5165.27
4711.79
4222.03
3695.99
1964.79
1923.55
1883.66
1845.02
)


20
(
8595.77
8575.02
8512.79
8409.07
8263.86
8077.16
7848.97
7579.3
7268.14
6915.48
6521.34
6085.71
5608.6
5089.99
4529.9
3928.31
1948.48
1901.32
1855.7
1811.51
)


20
(
9296.75
9273.73
9204.67
9089.55
8928.4
8721.2
8467.96
8168.67
7823.34
7431.96
6994.54
6511.07
5981.56
5406.01
4784.41
4116.77
1919.53
1867.19
1816.56
1767.52
)


20
(
9869.34
9844.41
9769.6
9644.91
9470.35
9245.92
8971.61
8647.43
8273.38
7849.45
7375.65
6851.97
6278.42
5654.99
4981.69
4258.52
1878.53
1821.84
1766.99
1713.87
)


20
(
10304.6
10278.1
10198.8
10066.5
9881.26
9643.14
9352.09
9008.13
8611.25
8161.46
7658.74
7103.11
6494.56
5833.1
5118.72
4351.42
1826.21
1766.06
1707.86
1651.51
)


20
(
10595.7
10568.2
10485.5
10347.7
10154.7
9906.65
9603.46
9245.14
8831.7
8363.13
7839.43
7260.61
6626.67
5937.59
5193.4
4394.07
1763.47
1700.8
1640.18
1581.47
)


20
(
10738.2
10709.9
10625.2
10484.1
10286.5
10032.4
9721.8
9354.78
8931.29
8451.34
7914.92
7322.04
6672.69
5966.88
5204.6
4385.85
1691.34
1627.15
1565.06
1504.92
)


20
(
10729.7
10701.3
10615.9
10473.6
10274.4
10018.3
9705.3
9335.36
8908.5
8424.74
7884.06
7286.46
6631.95
5920.53
5152.19
4326.94
1611.01
1546.31
1483.73
1423.11
)


20
(
10570.6
10542.4
10457.7
10316.5
10118.9
9864.83
9554.27
9187.25
8763.76
8283.8
7747.39
7154.5
6505.15
5799.34
5037.06
4218.32
1523.8
1459.62
1397.52
1337.39
)


20
(
10263.4
10235.9
10153.2
10015.4
9822.41
9574.35
9271.16
8912.84
8499.39
8030.83
7507.13
6928.31
6294.36
5605.29
4861.09
4061.77
1431.16
1368.5
1307.88
1249.17
)


20
(
9812.98
9786.52
9707.14
9574.85
9389.64
9151.51
8860.47
8516.51
8119.63
7669.83
7167.12
6611.49
6002.94
5341.48
4627.09
3859.8
1334.58
1274.43
1216.24
1159.88
)


20
(
9226.33
9201.39
9126.58
9001.89
8827.33
8602.9
8328.59
8004.41
7630.36
7206.43
6732.62
6208.95
5635.4
5011.97
4338.67
3615.5
1235.51
1178.81
1123.97
1070.85
)


20
(
8512.29
8489.27
8420.21
8305.1
8143.94
7936.74
7683.5
7384.21
7038.88
6647.5
6210.08
5726.61
5197.1
4621.55
3999.95
3332.31
1135.07
1082.73
1032.09
983.056
)


20
(
7681.02
7660.28
7598.05
7494.33
7349.12
7162.42
6934.23
6664.56
6353.4
6000.75
5606.61
5170.98
4693.87
4175.26
3615.17
3013.59
1033.77
986.604
940.979
896.794
)


20
(
6743.41
6725.27
6670.85
6580.16
6453.18
6289.93
6090.4
5854.59
5582.5
5274.14
4929.49
4548.57
4131.37
3677.89
3188.13
2662.1
930.891
889.652
849.757
811.12
)


20
(
5709.75
5694.5
5648.76
5572.52
5465.78
5328.55
5160.82
4962.6
4733.88
4474.66
4184.95
3864.74
3514.03
3132.83
2721.14
2278.94
823.671
789.005
755.468
722.99
)


20
(
4588.6
4576.49
4540.14
4479.55
4394.74
4285.69
4152.41
3994.89
3813.14
3607.16
3376.95
3122.5
2843.82
2540.91
2213.76
1862.38
705.98
678.433
651.783
625.975
)


20
(
3385.11
3376.32
3349.94
3305.97
3244.41
3165.27
3068.54
2954.22
2822.32
2672.82
2505.74
2321.08
2118.82
1898.98
1661.55
1406.53
567.26
547.268
527.927
509.196
)


20
(
2104.26
2098.92
2082.93
2056.27
2018.94
1970.95
1912.3
1842.98
1763
1672.35
1571.04
1459.06
1336.42
1203.12
1059.15
904.515
395.61
383.488
371.76
360.402
)


20
(
765.386
763.599
758.239
749.305
736.797
720.715
701.06
677.831
651.029
620.653
586.703
549.179
508.082
463.411
415.166
363.348
192.812
188.75
184.82
181.014
)


20
(
2460.72
2458.91
2453.47
2444.42
2431.75
2415.45
2395.54
2372
2344.84
2314.06
2279.66
2241.64
2200
2154.73
2105.85
2053.34
1880.54
1876.42
1872.44
1868.59
)


20
(
3662.91
3657.51
3641.3
3614.28
3576.46
3527.83
3468.39
3398.15
3317.1
3225.25
3122.59
3009.12
2884.85
2749.77
2603.88
2447.19
1931.5
1919.22
1907.33
1895.82
)


20
(
4824.34
4815.43
4788.69
4744.14
4681.77
4601.57
4503.55
4387.72
4254.06
4102.57
3933.27
3746.15
3541.2
3318.44
3077.85
2819.44
1969
1948.75
1929.15
1910.17
)


20
(
5927.08
5914.8
5877.97
5816.58
5730.64
5620.14
5485.09
5325.48
5141.31
4932.6
4699.32
4441.49
4159.11
3852.17
3520.67
3164.62
1992.85
1964.94
1937.94
1911.78
)


20
(
6954.06
6938.61
6892.26
6815
6706.85
6567.79
6397.83
6196.97
5965.21
5702.54
5408.98
5084.51
4729.14
4342.87
3925.7
3477.62
2002.99
1967.86
1933.88
1900.97
)


20
(
7889.36
7870.98
7815.84
7723.94
7595.28
7429.85
7227.67
6988.72
6713.01
6400.55
6051.32
5665.33
5242.58
4783.06
4286.79
3753.76
1999.52
1957.74
1917.31
1878.16
)


20
(
8718.44
8697.42
8634.36
8529.26
8382.12
8192.94
7961.71
7688.45
7373.15
7015.81
6616.42
6175
5691.53
5166.03
4598.48
3988.9
1982.73
1934.94
1888.71
1843.93
)


20
(
9428.4
9405.07
9335.08
9218.44
9055.14
8845.19
8588.57
8285.3
7935.38
7538.79
7095.55
6605.66
6069.1
5485.89
4856.03
4179.5
1953.03
1900
1848.69
1799
)


20
(
10008.2
9982.9
9907.09
9780.75
9603.86
9376.45
9098.49
8770
8390.96
7961.4
7481.29
6950.65
6369.47
5737.75
5055.49
4322.7
1911.04
1853.6
1798.02
1744.2
)


20
(
10448.7
10421.9
10341.5
10207.4
10019.7
9778.43
9483.51
9134.98
8732.82
8277.04
7767.64
7204.62
6587.97
5917.71
5193.82
4416.32
1857.51
1796.56
1737.59
1680.49
)


20
(
10743.1
10715.2
10631.4
10491.7
10296.2
10044.9
9737.64
9374.55
8955.61
8480.81
7950.14
7363.62
6721.24
6023
5268.91
4458.95
1793.35
1729.85
1668.42
1608.93
)


20
(
10886.8
10858.2
10772.4
10629.3
10429.1
10171.6
9856.9
9484.99
9055.87
8569.53
8025.98
7425.21
6767.22
6052.02
5279.6
4449.97
1719.61
1654.57
1591.64
1530.71
)


20
(
10877.5
10848.7
10762.2
10618
10416.2
10156.6
9839.46
9464.6
9032.07
8541.86
7993.99
7388.44
6725.23
6004.34
5225.78
4389.55
1637.49
1571.93
1508.51
1447.09
)


20
(
10715.5
10686.9
10601.1
10458.1
10257.8
10000.3
9685.64
9313.74
8884.61
8398.28
7854.72
7253.95
6595.97
5880.76
5108.34
4278.71
1548.35
1483.31
1420.39
1359.45
)


20
(
10403.4
10375.5
10291.7
10152
9956.52
9705.16
9397.93
9034.85
8615.9
8141.1
7610.44
7023.92
6381.54
5683.3
4929.2
4119.24
1453.64
1390.14
1328.72
1269.23
)


20
(
9946.1
9919.29
9838.86
9704.8
9517.13
9275.84
8980.92
8632.38
8230.22
7774.44
7265.04
6702.02
6085.38
5415.11
4691.23
3913.72
1354.92
1293.96
1235
1177.89
)


20
(
9350.78
9325.51
9249.71
9123.36
8946.48
8719.06
8441.11
8112.61
7733.58
7304.01
6823.91
6293.26
5712.08
5080.36
4398.11
3665.31
1253.66
1196.21
1140.63
1086.81
)


20
(
8626.45
8603.12
8533.13
8416.49
8253.19
8043.24
7786.62
7483.35
7133.43
6736.84
6293.6
5803.71
5267.15
4683.94
4054.07
3377.55
1151.08
1098.04
1046.73
997.045
)


20
(
7783.43
7762.41
7699.35
7594.25
7447.11
7257.92
7026.7
6753.44
6438.14
6080.8
5681.42
5239.99
4756.53
4231.03
3663.48
3053.9
1047.74
999.95
953.718
908.945
)


20
(
6832.82
6814.44
6759.3
6667.4
6538.73
6373.31
6171.12
5932.18
5656.47
5344
4994.77
4608.78
4186.03
3726.52
3230.25
2697.21
942.976
901.188
860.762
821.611
)


20
(
5785.1
5769.65
5723.29
5646.04
5537.88
5398.83
5228.87
5028
4796.24
4533.58
4240.01
3915.54
3560.17
3173.9
2756.72
2308.65
834.016
798.888
764.905
731.995
)


20
(
4648.91
4636.64
4599.8
4538.41
4452.47
4341.97
4206.92
4047.31
3863.14
3654.42
3421.14
3163.31
2880.92
2573.98
2242.48
1886.43
714.639
686.726
659.722
633.57
)


20
(
3429.39
3420.48
3393.74
3349.19
3286.82
3206.62
3108.6
2992.76
2859.1
2707.62
2538.32
2351.19
2146.25
1923.48
1682.89
1424.48
574.046
553.788
534.19
515.21
)


20
(
2131.38
2125.97
2109.76
2082.75
2044.93
1996.3
1936.86
1866.62
1785.58
1693.72
1591.06
1477.6
1353.33
1218.25
1072.36
915.673
399.998
387.714