/*--------------------------------*- C++ -*----------------------------------*\
| =========                 |                                                 |
| \\      /  F ield         | OpenFOAM: The Open Source CFD Toolbox           |
|  \\    /   O peration     | Version:  2212                                  |
|   \\  /    A nd           | Website:  www.openfoam.com                      |
|    \\/     M anipulation  |                                                 |
\*---------------------------------------------------------------------------*/
FoamFile
{
    version     2.0;
    format      ascii;
    arch        "LSB;label=32;scalar=64";
    class       volVectorField;
    location    "95/fluidRegion";
    object      U;
}
// * * * * * * * * * * * * * * * * * * * * * * * * * * * * * * * * * * * * * //

dimensions      [0 1 -1 0 0 0 0];

internalField   nonuniform List<vector> 
350
(
(-2.88395e-09 -1.66504e-09 -14.9687)
(-3.15722e-09 -1.82282e-09 -14.9673)
(-2.20774e-09 -1.27463e-09 -14.9659)
(-9.3973e-10 -5.42552e-10 -14.9645)
(2.41093e-10 1.39195e-10 -14.9631)
(1.12853e-09 6.51553e-10 -14.9617)
(1.69801e-09 9.80346e-10 -14.9604)
(2.01026e-09 1.16062e-09 -14.959)
(2.16007e-09 1.24711e-09 -14.9577)
(2.18723e-09 1.26279e-09 -14.9565)
(2.07105e-09 1.19572e-09 -14.9553)
(1.82499e-09 1.05366e-09 -14.9542)
(1.43678e-09 8.29522e-10 -14.9531)
(9.35974e-10 5.40383e-10 -14.9521)
(4.06699e-10 2.34807e-10 -14.9511)
(-1.26576e-10 -7.30784e-11 -14.9502)
(-5.97256e-10 -3.44825e-10 -14.9492)
(-9.54007e-10 -5.50795e-10 -14.9482)
(-1.15852e-09 -6.68869e-10 -14.9471)
(-1.21714e-09 -7.02715e-10 -14.9459)
(-1.12535e-09 -6.49718e-10 -14.9447)
(-9.16347e-10 -5.29052e-10 -14.9434)
(-5.35141e-10 -3.08963e-10 -14.9419)
(1.56156e-10 9.01565e-11 -14.9404)
(5.67135e-10 3.27435e-10 -14.9698)
(-2.88395e-09 -1.66504e-09 -14.9687)
(-3.15722e-09 -1.82282e-09 -14.9673)
(-2.20774e-09 -1.27463e-09 -14.9659)
(-9.3973e-10 -5.42552e-10 -14.9645)
(2.41093e-10 1.39195e-10 -14.9631)
(1.12853e-09 6.51553e-10 -14.9617)
(1.69801e-09 9.80346e-10 -14.9604)
(2.01026e-09 1.16062e-09 -14.959)
(2.16007e-09 1.24711e-09 -14.9577)
(2.18723e-09 1.26279e-09 -14.9565)
(2.07105e-09 1.19572e-09 -14.9553)
(1.82499e-09 1.05366e-09 -14.9542)
(1.43678e-09 8.29522e-10 -14.9531)
(9.35974e-10 5.40383e-10 -14.9521)
(4.06699e-10 2.34807e-10 -14.9511)
(-1.26576e-10 -7.30784e-11 -14.9502)
(-5.97256e-10 -3.44825e-10 -14.9492)
(-9.54007e-10 -5.50795e-10 -14.9482)
(-1.15852e-09 -6.68869e-10 -14.9471)
(-1.21714e-09 -7.02715e-10 -14.9459)
(-1.12535e-09 -6.49718e-10 -14.9447)
(-9.16348e-10 -5.29052e-10 -14.9434)
(-5.35141e-10 -3.08963e-10 -14.9419)
(1.56156e-10 9.01564e-11 -14.9404)
(5.67135e-10 3.27435e-10 -14.9698)
(-0.00197629 -0.00114101 -423.83)
(-0.00093833 -0.000541745 -415.84)
(-0.00101661 -0.00058694 -405.734)
(-0.000914839 -0.000528182 -393.304)
(-0.000828146 -0.00047813 -378.742)
(-0.000747841 -0.000431766 -362.252)
(-0.000673482 -0.000388835 -344.042)
(-0.000601411 -0.000347225 -324.327)
(-0.000523605 -0.000302303 -303.327)
(-0.000426869 -0.000246453 -281.271)
(-0.000294626 -0.000170102 -258.398)
(-0.000110615 -6.38635e-05 -234.963)
(0.000130072 7.50969e-05 -211.249)
(0.000407892 0.000235496 -187.566)
(0.000691382 0.000399169 -164.253)
(0.000932724 0.000538508 -141.663)
(0.00109454 0.000631934 -120.144)
(0.00116683 0.000673666 -100.011)
(0.0011689 0.000674866 -81.5298)
(0.00113503 0.000655306 -64.9233)
(0.00109624 0.000632916 -50.3826)
(0.00106033 0.000612181 -38.0956)
(0.001012 0.000584276 -28.2707)
(0.000880975 0.000508631 -21.1346)
(0.000839148 0.000484482 -16.6338)
(-0.00191593 -0.0011219 -426.564)
(-0.000693069 -0.000398738 -418.531)
(-0.000783283 -0.000452478 -408.392)
(-0.000712652 -0.000411898 -395.908)
(-0.000652693 -0.000377847 -381.276)
(-0.000597056 -0.000346202 -364.698)
(-0.00054526 -0.0003168 -346.386)
(-0.000494454 -0.000288355 -326.555)
(-0.000438799 -0.000257304 -305.427)
(-0.000368758 -0.00021829 -283.23)
(-0.000272907 -0.000164844 -260.203)
(-0.000139864 -9.02697e-05 -236.605)
(3.4776e-05 7.6271e-06 -212.718)
(0.000229831 0.000116736 -188.856)
(0.000428073 0.000226817 -165.359)
(0.000595649 0.000317756 -142.588)
(0.000707926 0.000374984 -120.894)
(0.000759353 0.000394493 -100.597)
(0.00076406 0.000383959 -81.9692)
(0.000745847 0.000356626 -65.2343)
(0.000727049 0.000324527 -50.5858)
(0.00071276 0.000296909 -38.2129)
(0.000698475 0.000270328 -28.3258)
(0.000643284 0.000241122 -21.1517)
(0.000658679 0.000286496 -16.6358)
(-0.000874066 -0.000656789 -423.393)
(-0.000503776 -0.0009526 -415.402)
(-0.000490114 -0.000911453 -405.304)
(-0.000445451 -0.000801635 -392.883)
(-0.000403729 -0.000705139 -378.334)
(-0.000365437 -0.00061625 -361.859)
(-0.000329444 -0.000534345 -343.666)
(-0.000293051 -0.000455447 -323.971)
(-0.000250786 -0.000370642 -302.993)
(-0.000194509 -0.000265278 -280.961)
(-0.000115011 -0.000120067 -258.112)
(-5.58409e-06 8.19286e-05 -234.704)
(0.000136592 0.000343917 -211.017)
(0.000289994 0.000657816 -187.363)
(0.000440695 0.000977423 -164.079)
(0.00056131 0.00124968 -141.518)
(0.000634779 0.00143064 -120.026)
(0.000659926 0.00150814 -99.9173)
(0.000650092 0.00150421 -81.4591)
(0.000624064 0.00145819 -64.8722)
(0.000596635 0.00140268 -50.3477)
(0.000571046 0.00134255 -38.0734)
(0.000532655 0.00124087 -28.2578)
(0.000465524 0.000996033 -21.1278)
(0.000401004 0.000780285 -16.6315)
(-0.000972618 -0.00056154 -425.954)
(-0.00091272 -0.000526958 -417.931)
(-0.000878786 -0.000507366 -407.798)
(-0.000782073 -0.000451529 -395.325)
(-0.000695671 -0.000401644 -380.708)
(-0.000616152 -0.000355734 -364.148)
(-0.000542336 -0.000313117 -345.858)
(-0.000470226 -0.000271484 -326.053)
(-0.000390665 -0.00022555 -304.953)
(-0.000289352 -0.000167057 -282.787)
(-0.000148604 -8.57965e-05 -259.794)
(4.64479e-05 2.68166e-05 -236.232)
(0.000299572 0.000172958 -212.384)
(0.000591988 0.000341783 -188.562)
(0.000886145 0.000511615 -165.107)
(0.00113157 0.000653311 -142.377)
(0.00128999 0.000744771 -120.723)
(0.001353 0.000781151 -100.463)
(0.00134296 0.000775357 -81.8689)
(0.0012962 0.000748356 -65.1634)
(0.00124242 0.000717308 -50.5396)
(0.00118729 0.00068548 -38.1865)
(0.00109874 0.000634356 -28.3137)
(0.000904553 0.000522243 -21.1483)
(0.000731395 0.00042227 -16.6356)
(0.000954365 0.000551002 -425.954)
(0.000914613 0.000528051 -417.931)
(0.000879111 0.000507554 -407.798)
(0.000782647 0.00045186 -395.325)
(0.000695851 0.000401749 -380.708)
(0.000616072 0.000355689 -364.148)
(0.000542293 0.000313092 -345.858)
(0.000469885 0.000271287 -326.053)
(0.000390114 0.000225232 -304.953)
(0.000288666 0.000166661 -282.787)
(0.000147302 8.50446e-05 -259.794)
(-4.86006e-05 -2.80595e-05 -236.232)
(-0.000302866 -0.000174859 -212.384)
(-0.000596534 -0.000344408 -188.562)
(-0.000892124 -0.000515067 -165.107)
(-0.00113938 -0.000657818 -142.377)
(-0.00130052 -0.000750854 -120.723)
(-0.00136759 -0.000789574 -100.463)
(-0.00136256 -0.000786674 -81.8689)
(-0.00132226 -0.000763406 -65.1634)
(-0.0012765 -0.000736985 -50.5396)
(-0.00122907 -0.000709604 -38.1865)
(-0.00114727 -0.000662375 -28.3137)
(-0.000953926 -0.000550748 -21.1483)
(-0.000776405 -0.000448256 -16.6356)
(0.000992376 0.000437251 -423.394)
(0.00107807 -3.98287e-05 -415.402)
(0.00103418 -3.00418e-05 -405.304)
(0.000916789 -1.35154e-05 -392.884)
(0.00081216 -1.4078e-06 -378.334)
(0.000715884 1.00181e-05 -361.859)
(0.000626885 2.00955e-05 -343.667)
(0.000540168 2.82215e-05 -323.971)
(0.000445387 3.44466e-05 -302.994)
(0.000325746 3.90713e-05 -280.961)
(0.000159775 4.34377e-05 -258.112)
(-7.04693e-05 5.02925e-05 -234.704)
(-0.000369234 5.9012e-05 -211.017)
(-0.00071872 8.43366e-05 -187.363)
(-0.00107203 0.000115336 -164.079)
(-0.00136963 0.000149147 -141.518)
(-0.00156521 0.000178456 -120.026)
(-0.0016478 0.000197945 -99.9173)
(-0.00164322 0.000207565 -81.4591)
(-0.001595 0.000209718 -64.8722)
(-0.00153885 0.00020747 -50.3477)
(-0.00147949 0.000199493 -38.0733)
(-0.00137719 0.000179659 -28.2577)
(-0.00113183 0.000109373 -21.1277)
(-0.000906467 3.89501e-05 -16.6315)
(0.00191586 0.00112261 -426.564)
(0.000693121 0.000399584 -418.531)
(0.000783553 0.000453387 -408.392)
(0.000713166 0.000412683 -395.908)
(0.000653383 0.000378068 -381.276)
(0.000597931 0.000346072 -364.698)
(0.000546425 0.000316296 -346.386)
(0.000496039 0.000287023 -326.555)
(0.000440983 0.000255069 -305.427)
(0.000371745 0.000214914 -283.23)
(0.000276664 0.000159923 -260.203)
(0.000144402 8.35323e-05 -236.605)
(-2.93572e-05 -1.66061e-05 -212.718)
(-0.000223546 -0.000128133 -188.856)
(-0.000421018 -0.000240929 -165.359)
(-0.000588158 -0.000335388 -142.588)
(-0.000701084 -0.00039685 -120.894)
(-0.000755332 -0.000421835 -100.597)
(-0.00076664 -0.000417372 -81.9692)
(-0.000761989 -0.000396979 -65.2343)
(-0.000767558 -0.000372393 -50.5858)
(-0.000794097 -0.000345623 -38.2129)
(-0.000835753 -0.000316749 -28.3258)
(-0.000834349 -0.000270959 -21.1517)
(-0.000880459 -0.000294417 -16.6358)
(0.00197643 0.00114109 -423.83)
(0.000938555 0.000541874 -415.84)
(0.00101693 0.000587126 -405.734)
(0.000915217 0.0005284 -393.304)
(0.000828458 0.00047831 -378.742)
(0.000748147 0.000431942 -362.252)
(0.000673805 0.000389021 -344.042)
(0.000601707 0.000347396 -324.327)
(0.000523927 0.000302489 -303.327)
(0.000427224 0.000246658 -281.271)
(0.000294898 0.000170259 -258.398)
(0.000110735 6.39331e-05 -234.963)
(-0.000130169 -7.5153e-05 -211.249)
(-0.000408283 -0.000235722 -187.566)
(-0.000692218 -0.000399652 -164.253)
(-0.000934418 -0.000539486 -141.663)
(-0.00109782 -0.000633827 -120.144)
(-0.00117308 -0.000677279 -100.011)
(-0.00118018 -0.000681376 -81.5298)
(-0.00115504 -0.000666862 -64.9233)
(-0.00113055 -0.00065272 -50.3826)
(-0.00111537 -0.000643956 -38.0955)
(-0.001095 -0.000632198 -28.2707)
(-0.000987109 -0.000569907 -21.1346)
(-0.000956832 -0.000552427 -16.6338)
(0.000973148 0.000561845 -425.954)
(0.000913418 0.000527361 -417.931)
(0.000879834 0.000507971 -407.798)
(0.00078345 0.000452324 -395.325)
(0.000696968 0.000402393 -380.708)
(0.000617504 0.000356515 -364.148)
(0.00054403 0.000314095 -345.858)
(0.000472106 0.00027257 -326.053)
(0.000392951 0.00022687 -304.953)
(0.000292324 0.000168773 -282.787)
(0.000152134 8.78343e-05 -259.794)
(-4.23522e-05 -2.4452e-05 -236.232)
(-0.000294664 -0.000170124 -212.384)
(-0.000585797 -0.000338209 -188.562)
(-0.000877941 -0.000506878 -165.107)
(-0.00112027 -0.000646788 -142.377)
(-0.00127415 -0.000735629 -120.723)
(-0.00133018 -0.00076798 -100.463)
(-0.00130822 -0.0007553 -81.8689)
(-0.00124218 -0.000717169 -65.1634)
(-0.00115723 -0.000668122 -50.5396)
(-0.00105669 -0.000610078 -38.1865)
(-0.000908168 -0.000524329 -28.3137)
(-0.00066414 -0.00038344 -21.1483)
(-0.000493054 -0.000284663 -16.6356)
(0.000874296 0.000656962 -423.393)
(0.000504176 0.00095275 -415.402)
(0.00049086 0.000911526 -405.304)
(0.000446554 0.000801578 -392.883)
(0.000404957 0.000704947 -378.334)
(0.000366867 0.000615965 -361.859)
(0.00033129 0.000533924 -343.666)
(0.000295354 0.000454801 -323.971)
(0.000253791 0.000369691 -302.993)
(0.000198543 0.000263914 -280.961)
(0.000120027 0.000118297 -258.112)
(1.16201e-05 -8.41071e-05 -234.704)
(-0.000129326 -0.000346512 -211.017)
(-0.000281229 -0.000660725 -187.363)
(-0.000430057 -0.000980416 -164.079)
(-0.00054836 -0.00125231 -141.518)
(-0.000619323 -0.00143177 -120.026)
(-0.000641853 -0.00150562 -99.9173)
(-0.000628881 -0.00149411 -81.4591)
(-0.000599678 -0.00143386 -64.8722)
(-0.000568508 -0.0013534 -50.3477)
(-0.000540406 -0.00125283 -38.0734)
(-0.000499575 -0.00109744 -28.2578)
(-0.000432548 -0.000801813 -21.1278)
(-0.000385959 -0.000571216 -16.6315)
(-0.0009921 -0.000436379 -423.394)
(-0.0010777 4.09391e-05 -415.402)
(-0.00103369 3.14335e-05 -405.304)
(-0.000916208 1.50329e-05 -392.884)
(-0.000811589 2.46121e-06 -378.334)
(-0.000715269 -9.18625e-06 -361.859)
(-0.000626163 -1.93697e-05 -343.666)
(-0.000539361 -2.80275e-05 -323.971)
(-0.000444427 -3.47018e-05 -302.994)
(-0.000324535 -3.97799e-05 -280.961)
(-0.000158339 -4.50328e-05 -258.112)
(7.21362e-05 -5.3024e-05 -234.704)
(0.000371241 -6.31708e-05 -211.017)
(0.000721198 -8.99618e-05 -187.363)
(0.00107517 -0.00012257 -164.079)
(0.00137364 -0.00015868 -141.518)
(0.00157019 -0.00019134 -120.026)
(0.00165367 -0.000216303 -99.9173)
(0.00164977 -0.000233561 -81.4591)
(0.0016008 -0.000247658 -64.8721)
(0.00154149 -0.00026347 -50.3477)
(0.00147401 -0.000276441 -38.0733)
(0.00135681 -0.000282929 -28.2577)
(0.00109104 -0.000227632 -21.1277)
(0.000840144 -0.000157501 -16.6315)
(-0.000953638 -0.000550582 -425.954)
(-0.000913674 -0.000527509 -417.931)
(-0.000877827 -0.000506812 -407.798)
(-0.00078107 -0.00045095 -395.325)
(-0.000694475 -0.000400954 -380.707)
(-0.00061473 -0.000354914 -364.148)
(-0.000540727 -0.000312188 -345.858)
(-0.000468344 -0.000270398 -326.053)
(-0.000388412 -0.000224249 -304.953)
(-0.000286581 -0.000165457 -282.787)
(-0.000145066 -8.37535e-05 -259.794)
(5.09165e-05 2.93966e-05 -236.232)
(0.0003054 0.000176322 -212.384)
(0.000599622 0.000346191 -188.562)
(0.000896247 0.000517447 -165.107)
(0.00114506 0.000661097 -142.377)
(0.0013082 0.00075529 -120.723)
(0.00137771 0.000795421 -100.463)
(0.0013766 0.000794777 -81.8689)
(0.00134113 0.000774301 -65.1634)
(0.00130152 0.000751434 -50.5396)
(0.00126074 0.000727886 -38.1864)
(0.00118482 0.000684056 -28.3137)
(0.000988769 0.000570865 -21.1483)
(0.000789564 0.000455854 -16.6356)
)
;

boundaryField
{
    outletCentralUnloaded
    {
        type            zeroGradient;
    }
    inletCentralUnloaded
    {
        type            fixedValue;
        value           uniform (0 0 -15);
    }
    outletFuelElement
    {
        type            zeroGradient;
    }
    inletFuelElement
    {
        type            fixedValue;
        value           uniform (0 0 -15);
    }
    defaultFaces
    {
        type            slip;
    }
    baffle_master
    {
        type            slip;
    }
    baffle_slave
    {
        type            slip;
    }
}


// ************************************************************************* //
