/*--------------------------------*- C++ -*----------------------------------*\
| =========                 |                                                 |
| \\      /  F ield         | OpenFOAM: The Open Source CFD Toolbox           |
|  \\    /   O peration     | Version:  2212                                  |
|   \\  /    A nd           | Website:  www.openfoam.com                      |
|    \\/     M anipulation  |                                                 |
\*---------------------------------------------------------------------------*/
FoamFile
{
    version     2.0;
    format      ascii;
    arch        "LSB;label=32;scalar=64";
    class       volScalarField;
    location    "22/fluidRegion";
    object      alphat;
}
// * * * * * * * * * * * * * * * * * * * * * * * * * * * * * * * * * * * * * //

dimensions      [1 -1 -1 0 0 0 0];

internalField   nonuniform List<scalar> 
350
(
0.0025845
0.0025845
0.00258451
0.00258451
0.00258451
0.00258451
0.00258452
0.00258452
0.00258454
0.00258455
0.00258458
0.00258462
0.00258468
0.00258477
0.00258491
0.00258513
0.00258546
0.00258597
0.00258674
0.00258792
0.00258972
0.00259248
0.0025967
0.00260314
0.00261298
0.0025845
0.0025845
0.00258451
0.00258451
0.00258451
0.00258451
0.00258452
0.00258452
0.00258454
0.00258455
0.00258458
0.00258462
0.00258468
0.00258477
0.00258491
0.00258513
0.00258546
0.00258597
0.00258674
0.00258792
0.00258972
0.00259248
0.0025967
0.00260314
0.00261298
0.000885414
0.000873125
0.000861305
0.000849389
0.000837269
0.000824844
0.000812017
0.000798699
0.000784818
0.000770325
0.0007552
0.000739451
0.000723115
0.000706247
0.000688913
0.000671211
0.000653358
0.000635894
0.000620125
0.000608998
0.000608839
0.000632219
0.000699198
0.00082379
0.000983272
0.000878039
0.000865752
0.000853952
0.000842063
0.00082998
0.000817599
0.000804823
0.000791563
0.000777747
0.000763326
0.000748281
0.00073263
0.000716416
0.000699704
0.000682568
0.000665112
0.000647548
0.000630406
0.00061497
0.000604172
0.000604332
0.000628072
0.00069566
0.000821455
0.000982671
0.000886595
0.000874298
0.00086247
0.000850544
0.000838414
0.000825977
0.000813137
0.000799805
0.00078591
0.000771401
0.000756257
0.000740487
0.000724127
0.000707228
0.000689856
0.000672109
0.000654203
0.000636682
0.000620851
0.000609663
0.000609443
0.00063276
0.000699653
0.000824097
0.000983391
0.000879734
0.00086745
0.000855648
0.000843755
0.000831666
0.000819276
0.00080649
0.000793218
0.000779387
0.000764949
0.000749886
0.000734211
0.000717969
0.00070122
0.000684039
0.000666526
0.000648895
0.000631678
0.000616165
0.00060529
0.000605376
0.000629034
0.000696482
0.000821999
0.000982811
0.000879734
0.00086745
0.000855648
0.000843755
0.000831666
0.000819276
0.00080649
0.000793218
0.000779387
0.000764949
0.000749886
0.000734211
0.000717969
0.00070122
0.000684039
0.000666526
0.000648895
0.000631678
0.000616165
0.00060529
0.000605376
0.000629034
0.000696482
0.000821999
0.000982811
0.000886595
0.000874297
0.00086247
0.000850544
0.000838414
0.000825977
0.000813137
0.000799805
0.00078591
0.000771401
0.000756257
0.000740487
0.000724126
0.000707228
0.000689856
0.000672108
0.000654203
0.000636681
0.000620851
0.000609662
0.000609442
0.000632759
0.000699653
0.000824098
0.000983393
0.000878039
0.000865752
0.000853952
0.000842063
0.00082998
0.000817599
0.000804823
0.000791563
0.000777747
0.000763326
0.000748281
0.00073263
0.000716416
0.000699704
0.000682568
0.000665112
0.000647548
0.000630406
0.00061497
0.000604172
0.000604332
0.000628072
0.00069566
0.000821455
0.000982671
0.000885414
0.000873125
0.000861305
0.000849389
0.000837269
0.000824844
0.000812017
0.000798699
0.000784818
0.000770326
0.0007552
0.000739451
0.000723115
0.000706247
0.000688913
0.000671211
0.000653358
0.000635894
0.000620125
0.000608998
0.000608838
0.000632218
0.000699197
0.000823788
0.00098327
0.000879734
0.00086745
0.000855648
0.000843755
0.000831666
0.000819276
0.00080649
0.000793218
0.000779387
0.000764949
0.000749886
0.000734211
0.000717969
0.00070122
0.000684039
0.000666526
0.000648895
0.000631678
0.000616165
0.00060529
0.000605376
0.000629034
0.000696482
0.000821999
0.000982811
0.000886595
0.000874298
0.00086247
0.000850544
0.000838414
0.000825978
0.000813137
0.000799806
0.00078591
0.000771401
0.000756257
0.000740487
0.000724127
0.000707228
0.000689856
0.000672109
0.000654203
0.000636682
0.000620851
0.000609662
0.000609442
0.000632759
0.000699651
0.000824095
0.000983388
0.000886595
0.000874297
0.00086247
0.000850544
0.000838414
0.000825977
0.000813137
0.000799805
0.00078591
0.000771401
0.000756257
0.000740487
0.000724126
0.000707228
0.000689856
0.000672108
0.000654202
0.000636681
0.000620851
0.000609662
0.000609441
0.000632758
0.000699652
0.000824097
0.000983391
0.000879734
0.00086745
0.000855648
0.000843755
0.000831666
0.000819277
0.00080649
0.000793218
0.000779387
0.00076495
0.000749886
0.000734212
0.000717969
0.00070122
0.000684039
0.000666526
0.000648894
0.000631677
0.000616164
0.00060529
0.000605375
0.000629033
0.00069648
0.000821996
0.000982808
)
;

boundaryField
{
    outletCentralUnloaded
    {
        type            zeroGradient;
    }
    inletCentralUnloaded
    {
        type            zeroGradient;
    }
    outletFuelElement
    {
        type            zeroGradient;
    }
    inletFuelElement
    {
        type            zeroGradient;
    }
    defaultFaces
    {
        type            zeroGradient;
    }
    baffle_master
    {
        type            calculated;
        value           nonuniform List<scalar> 
150
(
0.0025845
0.0025845
0.0025845
0.0025845
0.0025845
0.0025845
0.00258451
0.00258451
0.00258451
0.00258451
0.00258451
0.00258451
0.00258451
0.00258451
0.00258451
0.00258451
0.00258451
0.00258451
0.00258452
0.00258452
0.00258452
0.00258452
0.00258452
0.00258452
0.00258454
0.00258454
0.00258454
0.00258455
0.00258455
0.00258455
0.00258458
0.00258458
0.00258458
0.00258462
0.00258462
0.00258462
0.00258468
0.00258468
0.00258468
0.00258477
0.00258477
0.00258477
0.00258491
0.00258491
0.00258491
0.00258513
0.00258513
0.00258513
0.00258546
0.00258546
0.00258546
0.00258597
0.00258597
0.00258597
0.00258674
0.00258674
0.00258674
0.00258792
0.00258792
0.00258792
0.00258972
0.00258972
0.00258972
0.00259248
0.00259248
0.00259248
0.0025967
0.0025967
0.0025967
0.00260314
0.00260314
0.00260314
0.00261298
0.00261298
0.00261298
0.0025845
0.0025845
0.0025845
0.0025845
0.0025845
0.0025845
0.00258451
0.00258451
0.00258451
0.00258451
0.00258451
0.00258451
0.00258451
0.00258451
0.00258451
0.00258451
0.00258451
0.00258451
0.00258452
0.00258452
0.00258452
0.00258452
0.00258452
0.00258452
0.00258454
0.00258454
0.00258454
0.00258455
0.00258455
0.00258455
0.00258458
0.00258458
0.00258458
0.00258462
0.00258462
0.00258462
0.00258468
0.00258468
0.00258468
0.00258477
0.00258477
0.00258477
0.00258491
0.00258491
0.00258491
0.00258513
0.00258513
0.00258513
0.00258546
0.00258546
0.00258546
0.00258597
0.00258597
0.00258597
0.00258674
0.00258674
0.00258674
0.00258792
0.00258792
0.00258792
0.00258972
0.00258972
0.00258972
0.00259248
0.00259248
0.00259248
0.0025967
0.0025967
0.0025967
0.00260314
0.00260314
0.00260314
0.00261298
0.00261298
0.00261298
)
;
    }
    baffle_slave
    {
        type            calculated;
        value           nonuniform List<scalar> 
150
(
0.000878039
0.000879734
0.000879734
0.000865752
0.00086745
0.00086745
0.000853952
0.000855648
0.000855648
0.000842063
0.000843755
0.000843755
0.00082998
0.000831666
0.000831666
0.000817599
0.000819276
0.000819277
0.000804823
0.00080649
0.00080649
0.000791563
0.000793218
0.000793218
0.000777747
0.000779387
0.000779387
0.000763326
0.000764949
0.00076495
0.000748281
0.000749886
0.000749886
0.00073263
0.000734211
0.000734212
0.000716416
0.000717969
0.000717969
0.000699704
0.00070122
0.00070122
0.000682568
0.000684039
0.000684039
0.000665112
0.000666526
0.000666526
0.000647548
0.000648895
0.000648894
0.000630406
0.000631678
0.000631677
0.00061497
0.000616165
0.000616164
0.000604172
0.00060529
0.00060529
0.000604332
0.000605376
0.000605375
0.000628072
0.000629034
0.000629033
0.00069566
0.000696482
0.00069648
0.000821455
0.000821999
0.000821996
0.000982671
0.000982811
0.000982808
0.000879734
0.000878039
0.000879734
0.00086745
0.000865752
0.00086745
0.000855648
0.000853952
0.000855648
0.000843755
0.000842063
0.000843755
0.000831666
0.00082998
0.000831666
0.000819276
0.000817599
0.000819276
0.00080649
0.000804823
0.00080649
0.000793218
0.000791563
0.000793218
0.000779387
0.000777747
0.000779387
0.000764949
0.000763326
0.000764949
0.000749886
0.000748281
0.000749886
0.000734211
0.00073263
0.000734211
0.000717969
0.000716416
0.000717969
0.00070122
0.000699704
0.00070122
0.000684039
0.000682568
0.000684039
0.000666526
0.000665112
0.000666526
0.000648895
0.000647548
0.000648895
0.000631678
0.000630406
0.000631678
0.000616165
0.00061497
0.000616165
0.00060529
0.000604172
0.00060529
0.000605376
0.000604332
0.000605376
0.000629034
0.000628072
0.000629034
0.000696482
0.00069566
0.000696482
0.000821999
0.000821455
0.000821999
0.000982811
0.000982671
0.000982811
)
;
    }
}


// ************************************************************************* //
