/*--------------------------------*- C++ -*----------------------------------*\
| =========                 |                                                 |
| \\      /  F ield         | OpenFOAM: The Open Source CFD Toolbox           |
|  \\    /   O peration     | Version:  2212                                  |
|   \\  /    A nd           | Website:  www.openfoam.com                      |
|    \\/     M anipulation  |                                                 |
\*---------------------------------------------------------------------------*/
FoamFile
{
    version     2.0;
    format      ascii;
    arch        "LSB;label=32;scalar=64";
    class       volScalarField;
    location    "22/fluidRegion";
    object      epsilon;
}
// * * * * * * * * * * * * * * * * * * * * * * * * * * * * * * * * * * * * * //

dimensions      [0 2 -3 0 0 0 0];

internalField   nonuniform List<scalar> 
350
(
66.8937
66.8772
66.8607
66.8442
66.8278
66.8114
66.7951
66.7789
66.7628
66.7469
66.7314
66.7164
66.7021
66.689
66.6777
66.669
66.6645
66.6663
66.6778
66.704
66.7528
66.836
66.9718
67.1881
67.5272
66.8937
66.8772
66.8607
66.8442
66.8278
66.8114
66.7951
66.7789
66.7628
66.7469
66.7314
66.7164
66.7021
66.689
66.6777
66.669
66.6645
66.6663
66.6778
66.704
66.7528
66.836
66.9718
67.1881
67.5272
5.47738e+06
5.09539e+06
4.65579e+06
4.16988e+06
3.65891e+06
3.14314e+06
2.6408e+06
2.1673e+06
1.73475e+06
1.35167e+06
1.02297e+06
750088
531359
362519
237380
148617
88580.7
50021.2
26627.3
13311.5
6263.84
2832.97
1318.76
729.946
552.703
5.59042e+06
5.2018e+06
4.75434e+06
4.25922e+06
3.73819e+06
3.21195e+06
2.69914e+06
2.21555e+06
1.77359e+06
1.38204e+06
1.04594e+06
766849
543101
370379
242383
151626
90278.9
50912.2
27056.4
13497.7
6334.82
2855.88
1324.73
731.204
553.099
5.45878e+06
5.07787e+06
4.63965e+06
4.1553e+06
3.64602e+06
3.13199e+06
2.63138e+06
2.15954e+06
1.72852e+06
1.34682e+06
1.01931e+06
747425
529498
361274
236588
148141
88311.3
49879
26558.1
13280.8
6251.57
2828.62
1317.37
729.522
552.557
5.56541e+06
5.1782e+06
4.73242e+06
4.2393e+06
3.72048e+06
3.19654e+06
2.68605e+06
2.2047e+06
1.76484e+06
1.37518e+06
1.04074e+06
763046
540432
368589
241242
150939
89890.9
50708.5
26958.3
13455.2
6318.66
2850.7
1323.41
730.943
553.022
5.56541e+06
5.1782e+06
4.73243e+06
4.2393e+06
3.72048e+06
3.19654e+06
2.68605e+06
2.2047e+06
1.76484e+06
1.37518e+06
1.04074e+06
763047
540432
368589
241242
150939
89890.9
50708.5
26958.3
13455.2
6318.66
2850.7
1323.41
730.943
553.022
5.45879e+06
5.07788e+06
4.63966e+06
4.1553e+06
3.64602e+06
3.132e+06
2.63138e+06
2.15954e+06
1.72852e+06
1.34682e+06
1.01931e+06
747427
529499
361275
236589
148141
88311.4
49879.1
26558.1
13280.8
6251.57
2828.62
1317.37
729.521
552.557
5.59042e+06
5.2018e+06
4.75434e+06
4.25922e+06
3.73819e+06
3.21195e+06
2.69914e+06
2.21555e+06
1.77359e+06
1.38204e+06
1.04594e+06
766849
543101
370379
242383
151626
90278.9
50912.2
27056.4
13497.7
6334.82
2855.88
1324.73
731.204
553.099
5.47738e+06
5.09539e+06
4.65579e+06
4.16988e+06
3.65891e+06
3.14315e+06
2.6408e+06
2.1673e+06
1.73475e+06
1.35167e+06
1.02297e+06
750088
531359
362519
237380
148617
88580.7
50021.2
26627.3
13311.5
6263.83
2832.97
1318.76
729.945
552.702
5.56541e+06
5.1782e+06
4.73242e+06
4.2393e+06
3.72048e+06
3.19654e+06
2.68605e+06
2.2047e+06
1.76484e+06
1.37518e+06
1.04074e+06
763046
540432
368589
241242
150939
89890.9
50708.5
26958.3
13455.2
6318.66
2850.7
1323.41
730.943
553.022
5.45878e+06
5.07787e+06
4.63965e+06
4.1553e+06
3.64602e+06
3.132e+06
2.63138e+06
2.15954e+06
1.72852e+06
1.34682e+06
1.01931e+06
747426
529498
361274
236588
148141
88311.2
49879
26558.1
13280.7
6251.57
2828.62
1317.37
729.52
552.555
5.45879e+06
5.07788e+06
4.63966e+06
4.1553e+06
3.64602e+06
3.132e+06
2.63138e+06
2.15954e+06
1.72852e+06
1.34682e+06
1.01931e+06
747427
529499
361275
236589
148141
88311.3
49879
26558.1
13280.7
6251.56
2828.61
1317.37
729.52
552.556
5.56541e+06
5.1782e+06
4.73243e+06
4.2393e+06
3.72048e+06
3.19654e+06
2.68605e+06
2.2047e+06
1.76484e+06
1.37518e+06
1.04074e+06
763047
540432
368589
241242
150939
89890.8
50708.5
26958.3
13455.2
6318.65
2850.7
1323.41
730.941
553.02
)
;

boundaryField
{
    outletCentralUnloaded
    {
        type            zeroGradient;
    }
    inletCentralUnloaded
    {
        type            zeroGradient;
    }
    outletFuelElement
    {
        type            zeroGradient;
    }
    inletFuelElement
    {
        type            zeroGradient;
    }
    defaultFaces
    {
        type            zeroGradient;
    }
    baffle_master
    {
        type            zeroGradient;
    }
    baffle_slave
    {
        type            zeroGradient;
    }
}


// ************************************************************************* //
