/*--------------------------------*- C++ -*----------------------------------*\
| =========                 |                                                 |
| \\      /  F ield         | OpenFOAM: The Open Source CFD Toolbox           |
|  \\    /   O peration     | Version:  2212                                  |
|   \\  /    A nd           | Website:  www.openfoam.com                      |
|    \\/     M anipulation  |                                                 |
\*---------------------------------------------------------------------------*/
FoamFile
{
    version     2.0;
    format      ascii;
    arch        "LSB;label=32;scalar=64";
    class       volScalarField;
    location    "22/fluidRegion";
    object      p;
}
// * * * * * * * * * * * * * * * * * * * * * * * * * * * * * * * * * * * * * //

dimensions      [1 -1 -2 0 0 0 0];

internalField   nonuniform List<scalar> 
350
(
3.44743e+06
3.44772e+06
3.44802e+06
3.44831e+06
3.44861e+06
3.44891e+06
3.4492e+06
3.4495e+06
3.44979e+06
3.45009e+06
3.45038e+06
3.45068e+06
3.45097e+06
3.45127e+06
3.45156e+06
3.45186e+06
3.45215e+06
3.45245e+06
3.45274e+06
3.45304e+06
3.45333e+06
3.45363e+06
3.45392e+06
3.45422e+06
3.4545e+06
3.44743e+06
3.44772e+06
3.44802e+06
3.44831e+06
3.44861e+06
3.44891e+06
3.4492e+06
3.4495e+06
3.44979e+06
3.45009e+06
3.45038e+06
3.45068e+06
3.45097e+06
3.45127e+06
3.45156e+06
3.45186e+06
3.45215e+06
3.45245e+06
3.45274e+06
3.45304e+06
3.45333e+06
3.45363e+06
3.45392e+06
3.45422e+06
3.4545e+06
3.47023e+06
3.51523e+06
3.55993e+06
3.60403e+06
3.64723e+06
3.68927e+06
3.72988e+06
3.76884e+06
3.80593e+06
3.84097e+06
3.8738e+06
3.90426e+06
3.93226e+06
3.95771e+06
3.98056e+06
4.0008e+06
4.01847e+06
4.03365e+06
4.04646e+06
4.05705e+06
4.06558e+06
4.07226e+06
4.07731e+06
4.08099e+06
4.08361e+06
3.47023e+06
3.51523e+06
3.55993e+06
3.60403e+06
3.64723e+06
3.68927e+06
3.72988e+06
3.76884e+06
3.80593e+06
3.84097e+06
3.8738e+06
3.90426e+06
3.93226e+06
3.95771e+06
3.98056e+06
4.0008e+06
4.01847e+06
4.03365e+06
4.04646e+06
4.05705e+06
4.06558e+06
4.07226e+06
4.07731e+06
4.08099e+06
4.08361e+06
3.47023e+06
3.51523e+06
3.55993e+06
3.60403e+06
3.64723e+06
3.68927e+06
3.72988e+06
3.76884e+06
3.80593e+06
3.84097e+06
3.8738e+06
3.90426e+06
3.93226e+06
3.95771e+06
3.98056e+06
4.0008e+06
4.01847e+06
4.03365e+06
4.04646e+06
4.05705e+06
4.06558e+06
4.07226e+06
4.07731e+06
4.08099e+06
4.08361e+06
3.47023e+06
3.51523e+06
3.55993e+06
3.60403e+06
3.64723e+06
3.68927e+06
3.72988e+06
3.76884e+06
3.80593e+06
3.84097e+06
3.8738e+06
3.90426e+06
3.93226e+06
3.95771e+06
3.98056e+06
4.0008e+06
4.01847e+06
4.03365e+06
4.04646e+06
4.05705e+06
4.06558e+06
4.07226e+06
4.07731e+06
4.08099e+06
4.08361e+06
3.47023e+06
3.51523e+06
3.55993e+06
3.60403e+06
3.64723e+06
3.68927e+06
3.72988e+06
3.76884e+06
3.80593e+06
3.84097e+06
3.8738e+06
3.90426e+06
3.93226e+06
3.95771e+06
3.98056e+06
4.0008e+06
4.01847e+06
4.03365e+06
4.04646e+06
4.05705e+06
4.06558e+06
4.07226e+06
4.07731e+06
4.08099e+06
4.08361e+06
3.47023e+06
3.51523e+06
3.55993e+06
3.60403e+06
3.64723e+06
3.68927e+06
3.72988e+06
3.76884e+06
3.80593e+06
3.84097e+06
3.8738e+06
3.90426e+06
3.93226e+06
3.95771e+06
3.98056e+06
4.0008e+06
4.01847e+06
4.03365e+06
4.04646e+06
4.05705e+06
4.06558e+06
4.07226e+06
4.07731e+06
4.08099e+06
4.08361e+06
3.47023e+06
3.51523e+06
3.55993e+06
3.60403e+06
3.64723e+06
3.68927e+06
3.72988e+06
3.76884e+06
3.80593e+06
3.84097e+06
3.8738e+06
3.90426e+06
3.93226e+06
3.95771e+06
3.98056e+06
4.0008e+06
4.01847e+06
4.03365e+06
4.04646e+06
4.05705e+06
4.06558e+06
4.07226e+06
4.07731e+06
4.08099e+06
4.08361e+06
3.47023e+06
3.51523e+06
3.55993e+06
3.60403e+06
3.64723e+06
3.68927e+06
3.72988e+06
3.76884e+06
3.80593e+06
3.84097e+06
3.8738e+06
3.90426e+06
3.93226e+06
3.95771e+06
3.98056e+06
4.0008e+06
4.01847e+06
4.03365e+06
4.04646e+06
4.05705e+06
4.06558e+06
4.07226e+06
4.07731e+06
4.08099e+06
4.08361e+06
3.47023e+06
3.51523e+06
3.55993e+06
3.60403e+06
3.64723e+06
3.68927e+06
3.72988e+06
3.76884e+06
3.80593e+06
3.84097e+06
3.8738e+06
3.90426e+06
3.93226e+06
3.95771e+06
3.98056e+06
4.0008e+06
4.01847e+06
4.03365e+06
4.04646e+06
4.05705e+06
4.06558e+06
4.07226e+06
4.07731e+06
4.08099e+06
4.08361e+06
3.47023e+06
3.51523e+06
3.55993e+06
3.60403e+06
3.64723e+06
3.68927e+06
3.72988e+06
3.76884e+06
3.80593e+06
3.84097e+06
3.8738e+06
3.90426e+06
3.93226e+06
3.95771e+06
3.98056e+06
4.0008e+06
4.01847e+06
4.03365e+06
4.04646e+06
4.05705e+06
4.06558e+06
4.07226e+06
4.07731e+06
4.08099e+06
4.08361e+06
3.47023e+06
3.51523e+06
3.55993e+06
3.60403e+06
3.64723e+06
3.68927e+06
3.72988e+06
3.76884e+06
3.80593e+06
3.84097e+06
3.8738e+06
3.90426e+06
3.93226e+06
3.95771e+06
3.98056e+06
4.0008e+06
4.01847e+06
4.03365e+06
4.04646e+06
4.05705e+06
4.06558e+06
4.07226e+06
4.07731e+06
4.08099e+06
4.08361e+06
3.47023e+06
3.51523e+06
3.55993e+06
3.60403e+06
3.64723e+06
3.68927e+06
3.72988e+06
3.76884e+06
3.80593e+06
3.84097e+06
3.8738e+06
3.90426e+06
3.93226e+06
3.95771e+06
3.98056e+06
4.0008e+06
4.01847e+06
4.03365e+06
4.04646e+06
4.05705e+06
4.06558e+06
4.07226e+06
4.07731e+06
4.08099e+06
4.08361e+06
)
;

boundaryField
{
    outletCentralUnloaded
    {
        type            fixedValue;
        value           uniform 3.44728e+06;
    }
    inletCentralUnloaded
    {
        type            zeroGradient;
    }
    outletFuelElement
    {
        type            fixedValue;
        value           uniform 3.44728e+06;
    }
    inletFuelElement
    {
        type            zeroGradient;
    }
    defaultFaces
    {
        type            zeroGradient;
    }
    baffle_master
    {
        type            zeroGradient;
    }
    baffle_slave
    {
        type            zeroGradient;
    }
}


// ************************************************************************* //
