/*--------------------------------*- C++ -*----------------------------------*\
| =========                 |                                                 |
| \\      /  F ield         | OpenFOAM: The Open Source CFD Toolbox           |
|  \\    /   O peration     | Version:  2212                                  |
|   \\  /    A nd           | Website:  www.openfoam.com                      |
|    \\/     M anipulation  |                                                 |
\*---------------------------------------------------------------------------*/
FoamFile
{
    version     2.0;
    format      ascii;
    arch        "LSB;label=32;scalar=64";
    class       volScalarField;
    location    "22/fluidRegion";
    object      Tcav.nuclearFuelPin;
}
// * * * * * * * * * * * * * * * * * * * * * * * * * * * * * * * * * * * * * //

dimensions      [0 0 0 1 0 0 0];

internalField   nonuniform List<scalar> 
350
(
0
0
0
0
0
0
0
0
0
0
0
0
0
0
0
0
0
0
0
0
0
0
0
0
0
0
0
0
0
0
0
0
0
0
0
0
0
0
0
0
0
0
0
0
0
0
0
0
0
0
1654.91
1696.71
1726.18
1743.31
1748.22
1741.16
1722.53
1692.85
1652.78
1603.12
1544.79
1478.84
1406.42
1328.81
1247.33
1163.31
1077.95
992.107
905.963
818.58
727.192
626.328
507.483
362.234
193.074
1679.1
1721.59
1751.55
1768.96
1773.94
1766.74
1747.75
1717.53
1676.73
1626.16
1566.76
1499.59
1425.83
1346.75
1263.72
1178.11
1091.16
1003.76
916.148
827.413
734.772
632.67
512.424
365.404
194.148
1650.96
1692.67
1722.07
1739.18
1744.1
1737.08
1718.51
1688.93
1648.99
1599.49
1541.34
1475.59
1403.4
1326.02
1244.78
1161.02
1075.92
990.317
904.402
817.232
726.043
625.376
506.75
361.767
192.91
1673.66
1715.98
1745.82
1763.15
1768.1
1760.92
1742
1711.89
1671.25
1620.88
1561.72
1494.83
1421.37
1342.62
1259.94
1174.7
1088.11
1001.07
913.794
825.371
733.019
631.203
511.28
364.669
193.899
1673.66
1715.98
1745.82
1763.15
1768.1
1760.92
1742
1711.89
1671.25
1620.88
1561.72
1494.83
1421.37
1342.62
1259.94
1174.7
1088.11
1001.07
913.794
825.371
733.019
631.203
511.28
364.669
193.899
1650.96
1692.67
1722.07
1739.18
1744.1
1737.08
1718.51
1688.93
1649
1599.49
1541.35
1475.59
1403.4
1326.02
1244.78
1161.02
1075.92
990.317
904.403
817.233
726.044
625.377
506.75
361.767
192.91
1679.1
1721.59
1751.55
1768.96
1773.94
1766.74
1747.75
1717.53
1676.73
1626.16
1566.76
1499.59
1425.83
1346.75
1263.72
1178.11
1091.16
1003.76
916.148
827.413
734.772
632.67
512.424
365.404
194.148
1654.91
1696.71
1726.18
1743.31
1748.22
1741.16
1722.53
1692.85
1652.78
1603.12
1544.79
1478.84
1406.42
1328.81
1247.33
1163.31
1077.95
992.107
905.963
818.58
727.192
626.329
507.483
362.234
193.074
1673.66
1715.98
1745.82
1763.15
1768.1
1760.92
1742
1711.89
1671.25
1620.88
1561.72
1494.83
1421.37
1342.62
1259.94
1174.7
1088.11
1001.07
913.794
825.371
733.019
631.203
511.28
364.669
193.899
1650.96
1692.67
1722.07
1739.18
1744.1
1737.08
1718.51
1688.93
1648.99
1599.49
1541.34
1475.59
1403.4
1326.02
1244.78
1161.02
1075.92
990.316
904.402
817.232
726.043
625.376
506.75
361.767
192.91
1650.96
1692.67
1722.07
1739.18
1744.1
1737.08
1718.51
1688.93
1649
1599.49
1541.35
1475.59
1403.4
1326.02
1244.78
1161.02
1075.92
990.317
904.403
817.233
726.044
625.377
506.75
361.767
192.91
1673.66
1715.98
1745.82
1763.15
1768.1
1760.92
1742
1711.89
1671.25
1620.88
1561.72
1494.83
1421.37
1342.62
1259.94
1174.7
1088.11
1001.07
913.794
825.371
733.019
631.203
511.28
364.669
193.899
)
;

boundaryField
{
    outletCentralUnloaded
    {
        type            zeroGradient;
    }
    inletCentralUnloaded
    {
        type            zeroGradient;
    }
    outletFuelElement
    {
        type            zeroGradient;
    }
    inletFuelElement
    {
        type            zeroGradient;
    }
    defaultFaces
    {
        type            zeroGradient;
    }
    baffle_master
    {
        type            zeroGradient;
    }
    baffle_slave
    {
        type            zeroGradient;
    }
}


// ************************************************************************* //
