/*--------------------------------*- C++ -*----------------------------------*\
| =========                 |                                                 |
| \\      /  F ield         | OpenFOAM: The Open Source CFD Toolbox           |
|  \\    /   O peration     | Version:  2212                                  |
|   \\  /    A nd           | Website:  www.openfoam.com                      |
|    \\/     M anipulation  |                                                 |
\*---------------------------------------------------------------------------*/
FoamFile
{
    version     2.0;
    format      ascii;
    arch        "LSB;label=32;scalar=64";
    class       volScalarField;
    location    "22/fluidRegion";
    object      Tci.nuclearFuelPin;
}
// * * * * * * * * * * * * * * * * * * * * * * * * * * * * * * * * * * * * * //

dimensions      [0 0 0 1 0 0 0];

internalField   nonuniform List<scalar> 
350
(
0
0
0
0
0
0
0
0
0
0
0
0
0
0
0
0
0
0
0
0
0
0
0
0
0
0
0
0
0
0
0
0
0
0
0
0
0
0
0
0
0
0
0
0
0
0
0
0
0
0
1656.15
1709
1749.3
1776.86
1791.64
1793.72
1783.37
1760.97
1727.07
1682.37
1627.72
1564.1
1492.64
1414.58
1331.27
1244.06
1154.2
1062.62
969.587
874.283
774.079
663.672
534.752
379.115
199.424
1680.3
1733.98
1774.89
1802.85
1817.81
1819.85
1809.24
1786.38
1751.83
1706.28
1650.61
1585.8
1513
1433.48
1348.6
1259.77
1168.26
1075.06
980.484
883.739
782.182
670.428
539.992
382.466
200.558
1652.2
1704.94
1745.16
1772.68
1787.44
1789.55
1779.25
1756.93
1723.15
1678.6
1624.13
1560.71
1489.46
1411.64
1328.58
1241.63
1152.03
1060.7
967.913
872.836
772.847
662.653
533.972
378.62
199.25
1674.87
1728.35
1769.11
1796.96
1811.86
1813.91
1803.34
1780.58
1746.16
1700.8
1645.36
1580.81
1508.32
1429.13
1344.61
1256.14
1165.02
1072.19
977.966
881.554
780.309
668.865
538.779
381.689
200.296
1674.87
1728.35
1769.11
1796.96
1811.86
1813.91
1803.34
1780.58
1746.16
1700.8
1645.36
1580.81
1508.32
1429.13
1344.61
1256.14
1165.02
1072.19
977.966
881.554
780.309
668.865
538.779
381.689
200.296
1652.2
1704.94
1745.16
1772.68
1787.44
1789.55
1779.25
1756.93
1723.15
1678.61
1624.13
1560.71
1489.46
1411.64
1328.58
1241.63
1152.03
1060.7
967.913
872.836
772.847
662.654
533.972
378.62
199.25
1680.3
1733.98
1774.89
1802.85
1817.81
1819.85
1809.24
1786.38
1751.83
1706.28
1650.6
1585.8
1513
1433.48
1348.6
1259.77
1168.26
1075.06
980.484
883.739
782.182
670.428
539.993
382.466
200.558
1656.15
1709
1749.3
1776.86
1791.64
1793.72
1783.37
1760.97
1727.07
1682.37
1627.72
1564.1
1492.64
1414.58
1331.27
1244.06
1154.2
1062.62
969.587
874.283
774.079
663.672
534.753
379.115
199.424
1674.87
1728.35
1769.11
1796.96
1811.86
1813.91
1803.34
1780.58
1746.16
1700.8
1645.36
1580.81
1508.32
1429.13
1344.61
1256.14
1165.02
1072.19
977.966
881.554
780.309
668.865
538.779
381.689
200.296
1652.2
1704.94
1745.16
1772.68
1787.44
1789.55
1779.25
1756.93
1723.15
1678.6
1624.13
1560.71
1489.46
1411.64
1328.58
1241.63
1152.03
1060.7
967.913
872.836
772.846
662.653
533.972
378.62
199.25
1652.2
1704.94
1745.16
1772.68
1787.44
1789.55
1779.25
1756.93
1723.15
1678.61
1624.13
1560.71
1489.46
1411.64
1328.58
1241.63
1152.03
1060.7
967.913
872.836
772.847
662.654
533.972
378.62
199.25
1674.87
1728.35
1769.11
1796.96
1811.86
1813.91
1803.34
1780.58
1746.16
1700.8
1645.36
1580.81
1508.32
1429.13
1344.61
1256.14
1165.02
1072.19
977.966
881.554
780.309
668.865
538.779
381.689
200.296
)
;

boundaryField
{
    outletCentralUnloaded
    {
        type            zeroGradient;
    }
    inletCentralUnloaded
    {
        type            zeroGradient;
    }
    outletFuelElement
    {
        type            zeroGradient;
    }
    inletFuelElement
    {
        type            zeroGradient;
    }
    defaultFaces
    {
        type            zeroGradient;
    }
    baffle_master
    {
        type            zeroGradient;
    }
    baffle_slave
    {
        type            zeroGradient;
    }
}


// ************************************************************************* //
