/*--------------------------------*- C++ -*----------------------------------*\
| =========                 |                                                 |
| \\      /  F ield         | OpenFOAM: The Open Source CFD Toolbox           |
|  \\    /   O peration     | Version:  2212                                  |
|   \\  /    A nd           | Website:  www.openfoam.com                      |
|    \\/     M anipulation  |                                                 |
\*---------------------------------------------------------------------------*/
FoamFile
{
    version     2.0;
    format      ascii;
    arch        "LSB;label=32;scalar=64";
    class       volScalarField;
    location    "22/fluidRegion";
    object      Tco.nuclearFuelPin;
}
// * * * * * * * * * * * * * * * * * * * * * * * * * * * * * * * * * * * * * //

dimensions      [0 0 0 1 0 0 0];

internalField   nonuniform List<scalar> 
350
(
0
0
0
0
0
0
0
0
0
0
0
0
0
0
0
0
0
0
0
0
0
0
0
0
0
0
0
0
0
0
0
0
0
0
0
0
0
0
0
0
0
0
0
0
0
0
0
0
0
0
1653.78
1685.25
1704.61
1712.01
1707.71
1692.12
1665.76
1629.28
1583.45
1529.16
1467.4
1399.26
1325.96
1248.75
1168.97
1087.93
1006.78
926.291
846.577
766.587
683.429
591.473
482.03
346.477
187.145
1677.99
1710.05
1729.78
1737.34
1733.01
1717.17
1690.37
1653.26
1606.64
1551.38
1488.51
1419.14
1344.47
1265.8
1184.5
1101.9
1019.19
937.206
856.097
774.839
690.52
597.428
486.693
349.479
188.163
1649.82
1681.22
1700.54
1707.93
1703.65
1688.12
1661.84
1625.47
1579.78
1525.66
1464.08
1396.16
1323.07
1246.1
1166.57
1085.78
1004.87
924.618
845.123
765.332
682.357
590.582
481.342
346.037
186.991
1672.55
1704.46
1724.09
1731.61
1727.26
1711.47
1684.76
1647.79
1601.34
1546.29
1483.67
1414.57
1340.21
1261.88
1180.92
1098.68
1016.32
934.685
853.897
772.931
688.88
596.05
485.612
348.782
187.928
1672.55
1704.46
1724.09
1731.61
1727.26
1711.47
1684.76
1647.79
1601.34
1546.29
1483.67
1414.57
1340.21
1261.88
1180.92
1098.68
1016.32
934.685
853.897
772.931
688.88
596.05
485.612
348.782
187.928
1649.82
1681.22
1700.54
1707.93
1703.65
1688.12
1661.84
1625.47
1579.78
1525.66
1464.08
1396.16
1323.07
1246.1
1166.57
1085.78
1004.87
924.619
845.123
765.333
682.358
590.583
481.342
346.037
186.991
1677.99
1710.05
1729.78
1737.34
1733.01
1717.17
1690.37
1653.26
1606.64
1551.38
1488.51
1419.13
1344.47
1265.8
1184.5
1101.9
1019.19
937.206
856.097
774.839
690.52
597.428
486.693
349.478
188.163
1653.78
1685.25
1704.61
1712.01
1707.71
1692.12
1665.76
1629.28
1583.45
1529.16
1467.4
1399.26
1325.96
1248.75
1168.97
1087.93
1006.78
926.291
846.577
766.587
683.429
591.473
482.03
346.477
187.145
1672.55
1704.46
1724.09
1731.61
1727.26
1711.47
1684.76
1647.79
1601.34
1546.29
1483.67
1414.57
1340.21
1261.88
1180.92
1098.68
1016.32
934.685
853.897
772.931
688.88
596.05
485.612
348.782
187.928
1649.82
1681.22
1700.54
1707.93
1703.65
1688.12
1661.84
1625.47
1579.78
1525.66
1464.08
1396.16
1323.07
1246.1
1166.57
1085.78
1004.87
924.618
845.123
765.332
682.357
590.582
481.342
346.037
186.991
1649.82
1681.22
1700.54
1707.93
1703.65
1688.12
1661.84
1625.47
1579.78
1525.66
1464.08
1396.16
1323.07
1246.1
1166.57
1085.78
1004.87
924.619
845.123
765.333
682.358
590.583
481.342
346.037
186.991
1672.55
1704.46
1724.09
1731.61
1727.26
1711.47
1684.76
1647.79
1601.34
1546.29
1483.67
1414.57
1340.21
1261.88
1180.92
1098.68
1016.32
934.684
853.897
772.931
688.88
596.05
485.612
348.782
187.928
)
;

boundaryField
{
    outletCentralUnloaded
    {
        type            zeroGradient;
    }
    inletCentralUnloaded
    {
        type            zeroGradient;
    }
    outletFuelElement
    {
        type            zeroGradient;
    }
    inletFuelElement
    {
        type            zeroGradient;
    }
    defaultFaces
    {
        type            zeroGradient;
    }
    baffle_master
    {
        type            zeroGradient;
    }
    baffle_slave
    {
        type            zeroGradient;
    }
}


// ************************************************************************* //
