/*--------------------------------*- C++ -*----------------------------------*\
| =========                 |                                                 |
| \\      /  F ield         | OpenFOAM: The Open Source CFD Toolbox           |
|  \\    /   O peration     | Version:  2212                                  |
|   \\  /    A nd           | Website:  www.openfoam.com                      |
|    \\/     M anipulation  |                                                 |
\*---------------------------------------------------------------------------*/
FoamFile
{
    version     2.0;
    format      ascii;
    arch        "LSB;label=32;scalar=64";
    class       volScalarField;
    location    "22/fluidRegion";
    object      Tfav.nuclearFuelPin;
}
// * * * * * * * * * * * * * * * * * * * * * * * * * * * * * * * * * * * * * //

dimensions      [0 0 0 1 0 0 0];

internalField   nonuniform List<scalar> 
350
(
0
0
0
0
0
0
0
0
0
0
0
0
0
0
0
0
0
0
0
0
0
0
0
0
0
0
0
0
0
0
0
0
0
0
0
0
0
0
0
0
0
0
0
0
0
0
0
0
0
0
1732.41
2449.28
3139.96
3793.96
4401.3
4952.69
5439.7
5854.88
6191.87
6445.53
6612
6688.8
6674.84
6570.47
6377.4
6098.69
5738.57
5302.22
4795.48
4224.48
3594.89
2911.46
2177.67
1398.15
585.728
1754.71
2479.99
3178.74
3840.33
4454.66
5012.35
5504.86
5924.66
6265.33
6521.65
6689.73
6767.07
6752.56
6646.56
6450.83
6168.47
5803.77
5362.02
4849.14
4271.35
3634.41
2943.09
2200.87
1412.33
590.489
1728.77
2444.32
3133.73
3786.53
4392.77
4943.17
5429.32
5843.77
6180.19
6433.43
6599.65
6676.37
6662.51
6558.39
6365.75
6087.63
5728.23
5292.75
4786.98
4217.06
3588.64
2906.46
2174.02
1395.92
584.975
1749.67
2473.01
3169.9
3829.73
4442.44
4998.67
5489.91
5908.64
6248.45
6504.15
6671.85
6749.06
6734.68
6629.05
6433.92
6152.4
5788.75
5348.25
4836.78
4260.56
3625.3
2935.8
2195.52
1409.07
589.393
1749.67
2473.01
3169.9
3829.73
4442.44
4998.67
5489.91
5908.64
6248.45
6504.15
6671.85
6749.06
6734.68
6629.05
6433.92
6152.4
5788.75
5348.25
4836.78
4260.56
3625.3
2935.8
2195.52
1409.07
589.393
1728.78
2444.32
3133.73
3786.53
4392.77
4943.17
5429.32
5843.77
6180.19
6433.43
6599.65
6676.37
6662.51
6558.39
6365.75
6087.63
5728.24
5292.75
4786.98
4217.06
3588.64
2906.46
2174.02
1395.92
584.975
1754.71
2479.99
3178.74
3840.33
4454.66
5012.35
5504.86
5924.66
6265.33
6521.65
6689.73
6767.07
6752.56
6646.56
6450.83
6168.47
5803.77
5362.02
4849.14
4271.35
3634.41
2943.09
2200.87
1412.33
590.489
1732.41
2449.28
3139.96
3793.96
4401.3
4952.69
5439.7
5854.88
6191.87
6445.53
6612
6688.8
6674.84
6570.47
6377.4
6098.69
5738.57
5302.22
4795.48
4224.48
3594.89
2911.46
2177.68
1398.15
585.728
1749.67
2473.01
3169.9
3829.73
4442.44
4998.67
5489.91
5908.64
6248.45
6504.15
6671.85
6749.06
6734.68
6629.05
6433.92
6152.4
5788.75
5348.25
4836.78
4260.56
3625.3
2935.8
2195.52
1409.07
589.393
1728.77
2444.32
3133.73
3786.53
4392.77
4943.17
5429.32
5843.77
6180.19
6433.43
6599.65
6676.37
6662.51
6558.39
6365.75
6087.63
5728.23
5292.75
4786.98
4217.06
3588.64
2906.46
2174.02
1395.92
584.975
1728.78
2444.32
3133.73
3786.53
4392.77
4943.17
5429.32
5843.77
6180.19
6433.43
6599.65
6676.37
6662.51
6558.4
6365.75
6087.63
5728.24
5292.75
4786.98
4217.06
3588.64
2906.46
2174.02
1395.92
584.975
1749.67
2473.01
3169.9
3829.73
4442.44
4998.67
5489.91
5908.64
6248.45
6504.15
6671.85
6749.06
6734.68
6629.05
6433.92
6152.4
5788.75
5348.25
4836.78
4260.56
3625.3
2935.8
2195.52
1409.07
589.393
)
;

boundaryField
{
    outletCentralUnloaded
    {
        type            zeroGradient;
    }
    inletCentralUnloaded
    {
        type            zeroGradient;
    }
    outletFuelElement
    {
        type            zeroGradient;
    }
    inletFuelElement
    {
        type            zeroGradient;
    }
    defaultFaces
    {
        type            zeroGradient;
    }
    baffle_master
    {
        type            zeroGradient;
    }
    baffle_slave
    {
        type            zeroGradient;
    }
}


// ************************************************************************* //
