/*--------------------------------*- C++ -*----------------------------------*\
| =========                 |                                                 |
| \\      /  F ield         | OpenFOAM: The Open Source CFD Toolbox           |
|  \\    /   O peration     | Version:  2212                                  |
|   \\  /    A nd           | Website:  www.openfoam.com                      |
|    \\/     M anipulation  |                                                 |
\*---------------------------------------------------------------------------*/
FoamFile
{
    version     2.0;
    format      ascii;
    arch        "LSB;label=32;scalar=64";
    class       volScalarField;
    location    "22/fluidRegion";
    object      Tfi.nuclearFuelPin;
}
// * * * * * * * * * * * * * * * * * * * * * * * * * * * * * * * * * * * * * //

dimensions      [0 0 0 1 0 0 0];

internalField   nonuniform List<scalar> 
350
(
0
0
0
0
0
0
0
0
0
0
0
0
0
0
0
0
0
0
0
0
0
0
0
0
0
0
0
0
0
0
0
0
0
0
0
0
0
0
0
0
0
0
0
0
0
0
0
0
0
0
1753.82
2820.65
3854.35
4838.95
5759.24
6600.97
7351.11
7998.05
8531.75
8943.99
9228.39
9380.63
9398.42
9281.58
9032.03
8653.68
8152.32
7535.36
6811.58
5990.83
5083.21
4098.92
3047.82
1941.38
797.738
1774.69
2853.94
3899.62
4895.61
5826.49
6677.87
7436.56
8090.81
8630.49
9047.26
9334.7
9488.4
9506.08
9387.57
9134.8
8751.75
8244.29
7619.96
6887.64
6057.3
5139.19
4143.58
3080.4
1961.22
804.397
1750.42
2815.29
3847.09
4829.89
5748.5
6588.71
7337.5
7983.27
8516.04
8927.56
9211.49
9363.5
9381.31
9264.74
9015.71
8638.11
8137.71
7521.92
6799.51
5980.27
5074.33
4091.84
3042.66
1938.24
796.682
1769.97
2846.35
3889.27
4882.62
5811.06
6660.21
7416.93
8069.49
8607.79
9023.5
9310.24
9463.6
9481.3
9363.17
9111.14
8729.18
8223.12
7600.48
6870.13
6042
5126.3
4133.29
3072.9
1956.65
802.863
1769.97
2846.35
3889.27
4882.62
5811.06
6660.21
7416.93
8069.49
8607.79
9023.5
9310.24
9463.6
9481.3
9363.17
9111.14
8729.18
8223.12
7600.48
6870.13
6042
5126.29
4133.3
3072.9
1956.65
802.863
1750.42
2815.29
3847.09
4829.89
5748.5
6588.71
7337.5
7983.27
8516.04
8927.56
9211.49
9363.5
9381.31
9264.74
9015.71
8638.11
8137.71
7521.92
6799.51
5980.27
5074.33
4091.84
3042.66
1938.24
796.682
1774.69
2853.93
3899.62
4895.61
5826.49
6677.87
7436.56
8090.81
8630.49
9047.26
9334.69
9488.4
9506.08
9387.57
9134.8
8751.75
8244.29
7619.96
6887.64
6057.3
5139.19
4143.58
3080.41
1961.22
804.397
1753.82
2820.65
3854.35
4838.95
5759.24
6600.97
7351.11
7998.04
8531.75
8943.99
9228.39
9380.63
9398.42
9281.58
9032.03
8653.68
8152.32
7535.36
6811.58
5990.83
5083.21
4098.92
3047.82
1941.38
797.738
1769.97
2846.35
3889.27
4882.62
5811.06
6660.21
7416.93
8069.48
8607.79
9023.51
9310.24
9463.6
9481.3
9363.17
9111.14
8729.18
8223.12
7600.48
6870.13
6042
5126.29
4133.3
3072.9
1956.65
802.863
1750.42
2815.29
3847.09
4829.89
5748.5
6588.71
7337.5
7983.27
8516.04
8927.56
9211.49
9363.5
9381.3
9264.74
9015.7
8638.11
8137.71
7521.92
6799.51
5980.27
5074.33
4091.84
3042.66
1938.24
796.682
1750.42
2815.29
3847.09
4829.89
5748.5
6588.71
7337.5
7983.27
8516.04
8927.56
9211.49
9363.5
9381.31
9264.74
9015.71
8638.11
8137.71
7521.92
6799.51
5980.27
5074.33
4091.84
3042.66
1938.24
796.682
1769.97
2846.35
3889.27
4882.62
5811.06
6660.21
7416.93
8069.48
8607.79
9023.5
9310.24
9463.6
9481.3
9363.17
9111.14
8729.18
8223.12
7600.48
6870.13
6042
5126.29
4133.29
3072.9
1956.65
802.863
)
;

boundaryField
{
    outletCentralUnloaded
    {
        type            zeroGradient;
    }
    inletCentralUnloaded
    {
        type            zeroGradient;
    }
    outletFuelElement
    {
        type            zeroGradient;
    }
    inletFuelElement
    {
        type            zeroGradient;
    }
    defaultFaces
    {
        type            zeroGradient;
    }
    baffle_master
    {
        type            zeroGradient;
    }
    baffle_slave
    {
        type            zeroGradient;
    }
}


// ************************************************************************* //
