/*--------------------------------*- C++ -*----------------------------------*\
| =========                 |                                                 |
| \\      /  F ield         | OpenFOAM: The Open Source CFD Toolbox           |
|  \\    /   O peration     | Version:  2212                                  |
|   \\  /    A nd           | Website:  www.openfoam.com                      |
|    \\/     M anipulation  |                                                 |
\*---------------------------------------------------------------------------*/
FoamFile
{
    version     2.0;
    format      ascii;
    arch        "LSB;label=32;scalar=64";
    class       volScalarField;
    location    "22/fluidRegion";
    object      Tfo.nuclearFuelPin;
}
// * * * * * * * * * * * * * * * * * * * * * * * * * * * * * * * * * * * * * //

dimensions      [0 0 0 1 0 0 0];

internalField   nonuniform List<scalar> 
350
(
0
0
0
0
0
0
0
0
0
0
0
0
0
0
0
0
0
0
0
0
0
0
0
0
0
0
0
0
0
0
0
0
0
0
0
0
0
0
0
0
0
0
0
0
0
0
0
0
0
0
1697.62
2059.5
2402.41
2721.36
3011.71
3269.17
3489.98
3670.87
3809.19
3902.93
3950.75
3952.04
3906.89
3816.14
3681.32
3504.59
3288.58
3036.2
2750.32
2433.33
2086.45
1709
1298.13
851.548
376.674
1721.05
2087.29
2434.28
2756.98
3050.67
3311.04
3534.27
3717.06
3856.73
3951.25
3999.27
4000.16
3954.03
3861.74
3724.83
3545.52
3326.49
3070.73
2781.16
2460.24
2109.2
1727.36
1311.75
859.952
379.501
1693.8
2055
2397.27
2715.65
3005.47
3262.49
3482.92
3663.52
3801.64
3895.27
3943.07
3944.42
3899.43
3808.94
3674.45
3498.13
3282.6
3030.76
2745.46
2429.1
2082.87
1706.13
1296.01
850.243
376.23
1715.78
2081
2427.04
2748.86
3041.77
3301.47
3524.13
3706.47
3845.82
3940.15
3988.12
3989.09
3943.18
3851.24
3714.81
3536.09
3317.76
3062.77
2774.05
2454.04
2103.96
1723.13
1308.61
858.013
378.849
1715.78
2081
2427.04
2748.86
3041.77
3301.47
3524.13
3706.47
3845.82
3940.15
3988.12
3989.09
3943.18
3851.24
3714.81
3536.09
3317.76
3062.77
2774.05
2454.04
2103.96
1723.13
1308.61
858.013
378.849
1693.8
2055
2397.27
2715.65
3005.47
3262.49
3482.92
3663.52
3801.64
3895.27
3943.07
3944.42
3899.43
3808.94
3674.45
3498.13
3282.6
3030.76
2745.46
2429.1
2082.87
1706.13
1296.01
850.243
376.23
1721.05
2087.29
2434.28
2756.98
3050.67
3311.04
3534.27
3717.06
3856.73
3951.25
3999.27
4000.16
3954.03
3861.74
3724.83
3545.52
3326.49
3070.73
2781.16
2460.24
2109.2
1727.36
1311.75
859.952
379.501
1697.62
2059.5
2402.41
2721.36
3011.71
3269.17
3489.98
3670.87
3809.19
3902.93
3950.75
3952.04
3906.89
3816.14
3681.32
3504.59
3288.58
3036.2
2750.32
2433.33
2086.45
1709
1298.13
851.548
376.674
1715.78
2081
2427.04
2748.86
3041.77
3301.47
3524.13
3706.47
3845.82
3940.15
3988.12
3989.09
3943.18
3851.24
3714.81
3536.09
3317.76
3062.77
2774.05
2454.04
2103.96
1723.13
1308.61
858.013
378.849
1693.8
2055
2397.27
2715.65
3005.47
3262.49
3482.92
3663.52
3801.64
3895.27
3943.07
3944.42
3899.43
3808.94
3674.45
3498.13
3282.6
3030.76
2745.46
2429.1
2082.87
1706.13
1296.01
850.243
376.23
1693.8
2055
2397.27
2715.65
3005.47
3262.49
3482.92
3663.52
3801.64
3895.27
3943.07
3944.42
3899.43
3808.94
3674.45
3498.13
3282.6
3030.76
2745.46
2429.1
2082.87
1706.13
1296.01
850.243
376.23
1715.78
2081
2427.04
2748.86
3041.77
3301.47
3524.13
3706.47
3845.82
3940.15
3988.12
3989.09
3943.18
3851.24
3714.81
3536.09
3317.76
3062.77
2774.05
2454.04
2103.96
1723.13
1308.61
858.013
378.849
)
;

boundaryField
{
    outletCentralUnloaded
    {
        type            zeroGradient;
    }
    inletCentralUnloaded
    {
        type            zeroGradient;
    }
    outletFuelElement
    {
        type            zeroGradient;
    }
    inletFuelElement
    {
        type            zeroGradient;
    }
    defaultFaces
    {
        type            zeroGradient;
    }
    baffle_master
    {
        type            zeroGradient;
    }
    baffle_slave
    {
        type            zeroGradient;
    }
}


// ************************************************************************* //
