/*--------------------------------*- C++ -*----------------------------------*\
| =========                 |                                                 |
| \\      /  F ield         | OpenFOAM: The Open Source CFD Toolbox           |
|  \\    /   O peration     | Version:  2212                                  |
|   \\  /    A nd           | Website:  www.openfoam.com                      |
|    \\/     M anipulation  |                                                 |
\*---------------------------------------------------------------------------*/
FoamFile
{
    version     2.0;
    format      ascii;
    arch        "LSB;label=32;scalar=64";
    class       scalarFieldField;
    location    "22/fluidRegion";
    object      Trad.nuclearFuelPin;
}
// * * * * * * * * * * * * * * * * * * * * * * * * * * * * * * * * * * * * * //


350
(
0()
0()
0()
0()
0()
0()
0()
0()
0()
0()
0()
0()
0()
0()
0()
0()
0()
0()
0()
0()
0()
0()
0()
0()
0()
0()
0()
0()
0()
0()
0()
0()
0()
0()
0()
0()
0()
0()
0()
0()
0()
0()
0()
0()
0()
0()
0()
0()
0()
0()

20
(
1753.82
1753.75
1753.54
1753.15
1752.54
1751.65
1750.37
1748.61
1746.23
1743.09
1739.03
1733.85
1727.35
1719.31
1709.49
1697.62
1656.15
1655.32
1654.52
1653.78
)


20
(
2820.65
2817.56
2808.29
2792.78
2770.96
2742.69
2707.85
2666.25
2617.69
2561.92
2498.68
2427.69
2348.62
2261.14
2164.89
2059.5
1709
1700.81
1692.9
1685.25
)


20
(
3854.35
3848.3
3830.14
3799.81
3757.17
3702.08
3634.33
3553.68
3459.84
3352.48
3231.25
3095.76
2945.59
2780.29
2599.39
2402.41
1749.3
1733.9
1719.01
1704.61
)


20
(
4838.95
4830.05
4803.33
4758.69
4695.99
4615.03
4515.55
4397.25
4259.76
4102.68
3925.56
3727.93
3509.25
3268.98
3006.55
2721.36
1776.86
1754.52
1732.91
1712.01
)


20
(
5759.24
5747.64
5712.8
5654.62
5572.92
5467.46
5337.94
5183.99
5005.18
4801.03
4571.02
4314.56
4031.06
3719.86
3380.31
3011.71
1791.64
1762.73
1734.77
1707.71
)


20
(
6600.97
6586.86
6544.49
6473.74
6374.4
6246.21
6088.8
5901.77
5684.62
5436.8
5157.72
4846.72
4503.1
4126.14
3715.09
3269.17
1793.72
1758.73
1724.88
1692.12
)


20
(
7351.11
7334.73
7285.52
7203.37
7088.04
6939.23
6756.55
6539.53
6287.62
6000.23
5676.69
5316.26
4918.19
4481.68
4005.89
3489.98
1783.37
1742.86
1703.68
1665.76
)


20
(
7998.05
7979.65
7924.43
7832.22
7702.8
7535.82
7330.86
7087.42
6804.9
6482.65
6119.95
5716.01
5270.01
4781.09
4248.34
3670.87
1760.97
1715.61
1671.74
1629.28
)


20
(
8531.75
8511.66
8451.31
8350.57
8209.17
8026.76
7802.88
7537
7228.49
6876.65
6480.72
6039.87
5553.21
5019.85
4438.83
3809.19
1727.07
1677.61
1629.76
1583.45
)


20
(
8943.99
8922.51
8858.04
8750.4
8599.34
8404.47
8165.33
7881.35
7551.87
7176.18
6753.47
6282.88
5763.5
5194.37
4574.51
3902.93
1682.37
1629.61
1578.57
1529.16
)


20
(
9228.39
9205.89
9138.34
9025.57
8867.3
8663.15
8412.64
8115.18
7770.11
7376.68
6934.06
6441.38
5897.7
5302.04
4653.39
3950.75
1627.72
1572.51
1519.1
1467.4
)


20
(
9380.63
9357.47
9287.94
9171.86
9008.96
8798.86
8541.05
8234.95
7879.89
7475.11
7019.77
6513
5953.83
5341.29
4674.37
3952.04
1564.1
1507.34
1452.43
1399.26
)


20
(
9398.42
9374.97
9304.59
9187.1
9022.23
8809.57
8548.66
8238.9
7879.61
7470.05
7009.39
6496.73
5931.14
5311.65
4637.23
3906.89
1492.64
1435.24
1379.71
1325.96
)


20
(
9281.58
9258.24
9188.15
9071.16
8906.98
8695.25
8435.47
8127.07
7769.4
7361.7
6903.18
6392.96
5830.11
5213.69
4542.69
3816.14
1414.58
1357.48
1302.24
1248.75
)


20
(
9032.03
9009.17
8940.52
8825.93
8665.12
8457.74
8203.32
7901.31
7551.06
7151.85
6702.92
6203.4
5652.42
5049.05
4392.34
3681.32
1331.27
1275.38
1221.32
1168.97
)


20
(
8653.68
8631.67
8565.57
8455.25
8300.44
8100.8
7855.88
7565.16
7228.03
6843.81
6411.75
5931.06
5400.88
4820.35
4188.55
3504.59
1244.06
1190.3
1138.29
1087.93
)


20
(
8152.32
8131.51
8069.05
7964.79
7818.51
7629.86
7398.44
7123.75
6805.24
6442.25
6034.11
5580.05
5079.3
4531.03
3934.41
3288.58
1154.2
1103.44
1054.33
1006.78
)


20
(
7535.36
7516.11
7458.3
7361.82
7226.44
7051.87
6837.72
6583.56
6288.85
5953.03
5575.45
5155.43
4692.25
4185.17
3633.41
3036.2
1062.62
1015.67
970.262
926.291
)


20
(
6811.58
6794.19
6741.99
6654.86
6532.6
6374.95
6181.59
5952.09
5686.01
5382.82
5041.96
4662.82
4244.76
3787.11
3289.2
2750.32
969.587
927.227
886.252
846.577
)


20
(
5990.83
5975.58
5929.83
5853.46
5746.31
5608.15
5438.7
5237.6
5004.46
4738.83
4440.22
4108.11
3741.95
3341.16
2905.15
2433.33
874.283
837.197
801.323
766.587
)


20
(
5083.21
5070.36
5031.78
4967.4
4877.07
4760.61
4617.78
4448.29
4251.82
4028
3776.42
3496.67
3188.27
2850.76
2483.65
2086.45
774.079
742.863
712.667
683.429
)


20
(
4098.92
4088.66
4057.85
4006.43
3934.3
3841.32
3727.29
3592.01
3435.22
3256.64
3055.97
2832.86
2586.98
2317.96
2025.43
1709
663.672
638.809
614.76
591.473
)


20
(
3047.82
3040.28
3017.66
2979.91
2926.97
2858.73
2775.08
2675.87
2560.92
2430.06
2283.08
2119.74
1939.83
1743.09
1529.28
1298.13
534.752
516.597
499.035
482.03
)


20
(
1941.38
1936.65
1922.46
1898.78
1865.59
1822.84
1770.46
1708.39
1636.55
1554.85
1463.18
1361.45
1249.54
1127.34
994.712
851.548
379.115
367.876
357.004
346.477
)


20
(
797.738
795.851
790.193
780.765
767.572
750.62
729.916
705.469
677.29
645.391
609.785
570.485
527.508
480.869
430.585
376.674
199.424
195.196
191.107
187.145
)


20
(
1774.69
1774.64
1774.47
1774.16
1773.66
1772.89
1771.77
1770.19
1768.01
1765.09
1761.25
1756.31
1750.06
1742.27
1732.69
1721.05
1680.3
1679.49
1678.72
1677.99
)


20
(
2853.94
2850.83
2841.5
2825.89
2803.93
2775.49
2740.42
2698.54
2649.65
2593.49
2529.81
2458.3
2378.65
2290.51
2193.52
2087.29
1733.98
1725.73
1717.75
1710.05
)


20
(
3899.62
3893.52
3875.21
3844.6
3801.59
3746.01
3677.66
3596.28
3501.59
3393.26
3270.92
3134.18
2982.61
2815.76
2633.14
2434.28
1774.89
1759.35
1744.32
1729.78
)


20
(
4895.61
4886.62
4859.64
4814.57
4751.26
4669.52
4569.07
4449.61
4310.78
4152.15
3973.29
3773.68
3552.82
3310.14
3045.06
2756.98
1802.85
1780.28
1758.46
1737.34
)


20
(
5826.49
5814.77
5779.58
5720.81
5638.29
5531.76
5400.93
5245.41
5064.78
4858.54
4626.17
4367.08
4080.65
3766.22
3423.13
3050.67
1817.81
1788.6
1760.35
1733.01
)


20
(
6677.87
6663.61
6620.8
6549.32
6448.95
6319.43
6160.39
5971.41
5752
5501.59
5219.58
4905.31
4558.07
4177.13
3761.71
3311.04
1819.85
1784.49
1750.28
1717.17
)


20
(
7436.56
7420
7370.28
7287.26
7170.72
7020.34
6835.73
6616.41
6361.84
6071.4
5744.42
5380.15
4977.83
4536.64
4055.74
3534.27
1809.24
1768.3
1728.7
1690.37
)


20
(
8090.81
8072.22
8016.41
7923.22
7792.42
7623.66
7416.52
7170.47
6884.93
6559.23
6192.63
5784.35
5333.54
4839.33
4300.81
3717.06
1786.38
1740.54
1696.19
1653.26
)


20
(
8630.49
8610.18
8549.19
8447.36
8304.45
8120.07
7893.79
7625.04
7313.2
6957.57
6557.35
6111.72
5619.78
5080.61
4493.26
3856.73
1751.83
1701.82
1653.46
1606.64
)


20
(
9047.26
9025.55
8960.38
8851.59
8698.89
8501.91
8260.18
7973.12
7640.07
7260.3
6832.99
6357.27
5832.21
5256.86
4630.21
3951.25
1706.28
1652.94
1601.34
1551.38
)


20
(
9334.7
9311.95
9243.66
9129.67
8969.68
8763.31
8510.07
8209.37
7860.54
7462.81
7015.36
6517.28
5967.64
5365.43
4709.66
3999.27
1650.61
1594.78
1540.79
1488.51
)


20
(
9488.4
9464.99
9394.7
9277.36
9112.68
8900.28
8639.66
8330.21
7971.26
7562.05
7101.72
6589.37
6024.05
5404.76
4730.48
4000.16
1585.8
1528.4
1472.89
1419.14
)


20
(
9506.08
9482.38
9411.23
9292.46
9125.77
8910.79
8647.02
8333.86
7970.63
7556.57
7090.83
6572.52
6000.7
5374.35
4692.48
3954.03
1513
1454.96
1398.82
1344.47
)


20
(
9387.57
9363.97
9293.11
9174.84
9008.86
8794.8
8532.16
8220.37
7858.76
7446.57
6982.99
6467.13
5898.06
5274.8
4596.37
3861.74
1433.48
1375.74
1319.88
1265.8
)


20
(
9134.8
9111.68
9042.28
8926.43
8763.85
8554.19
8296.97
7991.62
7637.5
7233.89
6779.98
6274.94
5717.85
5107.78
4443.77
3724.83
1348.6
1292.09
1237.43
1184.5
)


20
(
8751.75
8729.5
8662.67
8551.13
8394.62
8192.77
7945.15
7651.21
7310.35
6921.88
6485.03
5999
5462.94
4875.94
4237.11
3545.52
1259.77
1205.4
1152.82
1101.9
)


20
(
8244.29
8223.26
8160.11
8054.7
7906.8
7716.06
7482.08
7204.35
6882.31
6515.3
6102.62
5643.51
5137.19
4582.81
3979.54
3326.49
1168.26
1116.93
1067.27
1019.19
)


20
(
7619.96
7600.49
7542.05
7444.5
7307.62
7131.12
6914.6
6657.62
6359.64
6020.09
5638.31
5213.61
4745.27
4232.53
3674.62
3070.73
1075.06
1027.59
981.669
937.206
)


20
(
6887.64
6870.06
6817.28
6729.18
6605.57
6446.18
6250.67
6018.63
5749.59
5443.03
5098.38
4715.02
4292.3
3829.55
3326.07
2781.16
980.484
937.651
896.217
856.097
)


20
(
6057.3
6041.89
5995.63
5918.42
5810.09
5670.4
5499.07
5295.74
5060.02
4791.44
4489.51
4153.71
3783.47
3378.21
2937.34
2460.24
883.739
846.238
809.963
774.839
)


20
(
5139.19
5126.19
5087.19
5022.1
4930.78
4813.04
4668.63
4497.27
4298.63
4072.34
3817.98
3535.12
3223.3
2882.03
2510.84
2109.2
782.182
750.618
720.084
690.52
)


20
(
4143.58
4133.2
4102.06
4050.08
3977.17
3883.17
3767.9
3631.13
3472.63
3292.09
3089.21
2863.65
2615.06
2343.07
2047.3
1727.36
670.428
645.29
620.973
597.428
)


20
(
3080.4
3072.79
3049.93
3011.77
2958.26
2889.29
2804.74
2704.46
2588.28
2456.01
2307.43
2142.33
1960.46
1761.58
1545.43
1311.75
539.992
521.638
503.883
486.693
)


20
(
1961.22
1956.45
1942.11
1918.19
1884.66
1841.46
1788.54
1725.83
1653.24
1570.69
1478.07
1375.27
1262.18
1138.68
1004.64
859.952
382.466
371.106
360.118
349.479
)


20
(
804.397
802.494
796.787
787.277
773.97
756.87
735.984
711.322
682.893
650.709
614.781
575.124
531.752
484.68
433.924
379.501
200.558
196.29
192.162
188.163
)


20
(
1750.42
1750.35
1750.13
1749.74
1749.11
1748.19
1746.89
1745.1
1742.69
1739.51
1735.41
1730.19
1723.65
1715.57
1705.7
1693.8
1652.2
1651.37
1650.57
1649.82
)


20
(
2815.29
2812.2
2802.94
2787.45
2765.64
2737.41
2702.6
2661.05
2612.53
2556.82
2493.66
2422.74
2343.76
2256.39
2160.26
2055
1704.94
1696.76
1688.86
1681.22
)


20
(
3847.09
3841.05
3822.92
3792.62
3750.05
3695.03
3627.38
3546.84
3453.13
3345.93
3224.88
3089.58
2939.63
2774.58
2593.95
2397.27
1745.16
1729.78
1714.92
1700.54
)


20
(
4829.89
4821
4794.32
4749.75
4687.15
4606.31
4506.99
4388.87
4251.59
4094.76
3917.92
3720.6
3502.26
3262.38
3000.37
2715.65
1772.68
1750.37
1728.8
1707.93
)


20
(
5748.5
5736.92
5702.13
5644.05
5562.48
5457.19
5327.88
5174.18
4995.66
4791.84
4562.2
4306.17
4023.13
3712.45
3373.46
3005.47
1787.44
1758.58
1730.67
1703.65
)


20
(
6588.71
6574.62
6532.32
6461.68
6362.51
6234.53
6077.38
5890.66
5673.87
5426.47
5147.85
4837.37
4494.33
4118.01
3707.65
3262.49
1789.55
1754.61
1720.82
1688.12
)


20
(
7337.5
7321.14
7272.02
7190
7074.86
6926.3
6743.93
6527.27
6275.8
5988.89
5665.89
5306.08
4908.69
4472.92
3997.95
3482.92
1779.25
1738.81
1699.7
1661.84
)


20
(
7983.27
7964.91
7909.78
7817.73
7688.53
7521.83
7317.22
7074.19
6792.16
6470.46
6108.38
5705.13
5259.9
4771.82
4240
3663.52
1756.93
1711.66
1667.86
1625.47
)


20
(
8516.04
8495.97
8435.74
8335.17
8194.01
8011.91
7788.42
7522.99
7215.01
6863.78
6468.53
6028.44
5542.63
5010.19
4430.18
3801.64
1723.15
1673.78
1626.02
1579.78
)


20
(
8927.56
8906.12
8841.76
8734.31
8583.5
8388.97
8150.24
7866.75
7537.85
7162.81
6740.83
6271.06
5752.58
5184.44
4565.67
3895.27
1678.6
1625.93
1574.98
1525.66
)


20
(
9211.49
9189.03
9121.59
9009.01
8851.02
8647.22
8397.14
8100.2
7755.73
7362.99
6921.14
6429.32
5886.59
5291.97
4644.47
3943.07
1624.13
1569.01
1515.7
1464.08
)


20
(
9363.5
9340.38
9270.96
9155.09
8992.48
8782.73
8525.37
8219.81
7865.37
7461.3
7006.76
6500.87
5942.69
5331.23
4665.48
3944.42
1560.71
1504.04
1449.23
1396.16
)


20
(
9381.31
9357.9
9287.64
9170.36
9005.77
8793.49
8533.03
8223.81
7865.16
7456.32
6996.46
6484.7
5920.11
5301.71
4628.49
3899.43
1489.46
1432.16
1376.74
1323.07
)


20
(
9264.74
9241.44
9171.47
9054.69
8890.8
8679.43
8420.11
8112.25
7755.21
7348.23
6890.52
6381.2
5819.34
5204.01
4534.2
3808.94
1411.64
1354.63
1299.49
1246.1
)


20
(
9015.71
8992.88
8924.35
8809.96
8649.44
8442.42
8188.45
7886.97
7537.34
7138.84
6690.69
6192.06
5642.05
5039.75
4384.2
3674.45
1328.58
1272.79
1218.82
1166.57
)


20
(
8638.11
8616.13
8550.15
8440.02
8285.48
8086.19
7841.71
7551.5
7214.97
6831.42
6400.13
5920.29
5391.05
4811.55
4180.88
3498.13
1241.63
1187.96
1136.05
1085.78
)


20
(
8137.71
8116.94
8054.59
7950.52
7804.49
7616.17
7385.16
7110.96
6793.01
6430.67
6023.24
5569.99
5070.13
4522.84
3927.28
3282.6
1152.03
1101.36
1052.34
1004.87
)


20
(
7521.92
7502.7
7445
7348.69
7213.55
7039.29
6825.52
6571.81
6277.62
5942.39
5565.48
5146.21
4683.86
4177.68
3626.9
3030.76
1060.7
1013.84
968.511
924.618
)


20
(
6799.51
6782.15
6730.04
6643.06
6521.02
6363.65
6170.62
5941.53
5675.92
5373.27
5033.02
4654.55
4237.24
3780.41
3283.38
2745.46
967.913
925.629
884.727
845.123
)


20
(
5980.27
5965.06
5919.38
5843.15
5736.19
5598.28
5429.12
5228.38
4995.65
4730.49
4432.41
4100.89
3735.38
3335.31
2900.08
2429.1
872.836
835.816
800.006
765.332
)


20
(
5074.33
5061.5
5022.99
4958.72
4868.55
4752.3
4609.72
4440.53
4244.4
4020.98
3769.85
3490.59
3182.74
2845.83
2479.37
2082.87
772.847
741.686
711.544
682.357
)


20
(
4091.84
4081.6
4050.84
3999.52
3927.51
3834.69
3720.86
3585.82
3429.3
3251.04
3050.71
2828
2582.56
2314.01
2022
1706.13
662.653
637.835
613.828
590.582
)


20
(
3042.66
3035.14
3012.55
2974.87
2922.02
2853.9
2770.39
2671.35
2556.6
2425.97
2279.24
2116.19
1936.59
1740.19
1526.75
1296.01
533.972
515.848
498.317
481.342
)


20
(
1938.24
1933.52
1919.35
1895.71
1862.58
1819.89
1767.6
1705.64
1633.92
1552.35
1460.84
1359.28
1247.56
1125.56
993.162
850.243
378.62
367.4
356.546
346.037
)


20
(
796.682
794.798
789.148
779.733
766.558
749.629
728.954
704.542
676.403
644.549
608.994
569.752
526.838
480.269
430.06
376.23
199.25
195.03
190.946
186.991
)


20
(
1769.97
1769.91
1769.74
1769.41
1768.88
1768.09
1766.93
1765.31
1763.09
1760.12
1756.23
1751.24
1744.94
1737.09
1727.46
1715.78
1674.87
1674.06
1673.28
1672.55
)


20
(
2846.35
2843.25
2833.93
2818.35
2796.41
2768.02
2733
2691.19
2642.37
2586.31
2522.73
2451.35
2371.83
2283.85
2187.03
2081
1728.35
1720.11
1712.15
1704.46
)


20
(
3889.27
3883.18
3864.9
3834.36
3791.43
3735.97
3667.76
3586.55
3492.05
3383.95
3261.87
3125.42
2974.17
2807.68
2625.47
2427.04
1769.11
1753.59
1738.6
1724.09
)


20
(
4882.62
4873.66
4846.73
4801.76
4738.6
4657.04
4556.82
4437.62
4299.1
4140.83
3962.37
3763.22
3542.87
3300.74
3036.27
2748.86
1796.96
1774.45
1752.67
1731.61
)


20
(
5811.06
5799.37
5764.26
5705.63
5623.29
5517.01
5386.48
5231.33
5051.12
4845.36
4613.54
4355.05
4069.3
3755.62
3413.34
3041.77
1811.86
1782.72
1754.54
1727.26
)


20
(
6660.21
6645.99
6603.28
6531.96
6431.83
6302.62
6143.96
5955.43
5736.54
5486.73
5205.39
4891.88
4545.47
4165.45
3751.04
3301.47
1813.91
1778.62
1744.5
1711.47
)


20
(
7416.93
7400.41
7350.81
7267.99
7151.72
7001.71
6817.54
6598.76
6344.8
6055.06
5728.87
5365.49
4964.15
4524.04
4044.31
3524.13
1803.34
1762.5
1723
1684.76
)


20
(
8069.49
8050.94
7995.26
7902.31
7771.82
7603.47
7396.83
7151.39
6866.54
6541.64
6175.94
5768.65
5318.95
4825.96
4288.77
3706.47
1780.58
1734.84
1690.61
1647.79
)


20
(
8607.79
8587.52
8526.68
8425.11
8282.54
8098.62
7872.89
7604.8
7293.73
6938.97
6539.74
6095.21
5604.49
5066.66
4480.76
3845.82
1746.16
1696.28
1648.04
1601.34
)


20
(
9023.5
9001.85
8936.84
8828.31
8675.99
8479.5
8238.37
7952.01
7619.79
7240.96
6814.71
6340.17
5816.42
5242.5
4617.41
3940.15
1700.8
1647.59
1596.12
1546.29
)


20
(
9310.24
9287.55
9219.43
9105.72
8946.12
8740.27
8487.65
8187.7
7839.74
7443
6996.66
6499.83
5951.55
5350.86
4696.72
3988.12
1645.36
1589.67
1535.81
1483.67
)


20
(
9463.6
9440.25
9370.13
9253.08
9088.82
8876.94
8616.96
8308.29
7950.24
7542.04
7082.86
6571.8
6007.9
5390.16
4717.57
3989.09
1580.81
1523.56
1468.19
1414.57
)


20
(
9481.3
9457.66
9386.69
9268.21
9101.94
8887.5
8624.38
8312
7949.68
7536.65
7072.09
6555.08
5984.69
5359.92
4679.76
3943.18
1508.32
1450.43
1394.43
1340.21
)


20
(
9363.17
9339.63
9268.95
9150.97
8985.41
8771.88
8509.9
8198.9
7838.19
7427.04
6964.62
6450.06
5882.42
5260.73
4584.01
3851.24
1429.13
1371.53
1315.82
1261.88
)


20
(
9111.14
9088.08
9018.85
8903.29
8741.12
8531.99
8275.41
7970.83
7617.6
7215
6762.24
6258.47
5702.78
5094.26
4431.92
3714.81
1344.61
1288.24
1233.72
1180.92
)


20
(
8729.18
8706.97
8640.32
8529.06
8372.93
8171.59
7924.59
7631.4
7291.4
6903.9
6468.16
5983.35
5448.65
4863.14
4225.93
3536.09
1256.14
1201.92
1149.46
1098.68
)


20
(
8223.12
8202.13
8139.14
8034
7886.47
7696.21
7462.82
7185.79
6864.56
6498.48
6086.84
5628.9
5123.86
4570.89
3969.14
3317.76
1165.02
1113.81
1064.28
1016.32
)


20
(
7600.48
7581.06
7522.77
7425.46
7288.93
7112.87
6896.9
6640.56
6343.34
6004.64
5623.83
5200.21
4733.06
4221.62
3665.12
3062.77
1072.19
1024.84
979.034
934.685
)


20
(
6870.13
6852.59
6799.94
6712.07
6588.77
6429.78
6234.76
6003.3
5734.95
5429.16
5085.39
4703
4281.35
3819.77
3317.57
2774.05
977.966
935.242
893.914
853.897
)


20
(
6042
6026.62
5980.48
5903.46
5795.4
5656.07
5485.17
5282.35
5047.22
4779.32
4478.16
4143.21
3773.91
3369.68
2929.92
2454.04
881.554
844.149
807.966
772.931
)


20
(
5126.3
5113.34
5074.43
5009.5
4918.41
4800.96
4656.92
4485.99
4287.85
4062.12
3808.41
3526.26
3215.23
2874.83
2504.57
2103.96
780.309
748.825
718.369
688.88
)


20
(
4133.29
4122.95
4091.88
4040.03
3967.3
3873.53
3758.54
3622.12
3464.01
3283.93
3081.55
2856.56
2608.59
2337.29
2042.26
1723.13
668.865
643.79
619.535
596.05
)


20
(
3072.9
3065.3
3042.49
3004.44
2951.06
2882.25
2797.91
2697.88
2581.98
2450.03
2301.82
2137.12
1955.71
1757.32
1541.7
1308.61
538.779
520.471
502.76
485.612
)


20
(
1956.65
1951.89
1937.58
1913.72
1880.26
1837.17
1784.38
1721.81
1649.4
1567.04
1474.64
1372.08
1259.27
1136.06
1002.35
858.013
381.689
370.358
359.396
348.782
)


20
(
802.863
800.964
795.268
785.778
772.496
755.43
734.587
709.974
681.603
649.484
613.63
574.056
530.774
483.802
433.155
378.849
200.296
196.038
191.918
187.928
)


20
(
1769.97
1769.91
1769.74
1769.41
1768.88
1768.09
1766.93
1765.31
1763.09
1760.12
1756.23
1751.24
1744.94
1737.09
1727.46
1715.78
1674.87
1674.06
1673.28
1672.55
)


20
(
2846.35
2843.25
2833.93
2818.35
2796.41
2768.02
2733
2691.19
2642.37
2586.31
2522.73
2451.35
2371.83
2283.85
2187.03
2081
1728.35
1720.11
1712.15
1704.46
)


20
(
3889.27
3883.18
3864.9
3834.36
3791.43
3735.97
3667.76
3586.55
3492.05
3383.95
3261.87
3125.42
2974.17
2807.68
2625.47
2427.04
1769.11
1753.59
1738.6
1724.09
)


20
(
4882.62
4873.66
4846.73
4801.76
4738.6
4657.04
4556.82
4437.63
4299.1
4140.83
3962.37
3763.22
3542.87
3300.74
3036.27
2748.86
1796.96
1774.45
1752.67
1731.61
)


20
(
5811.06
5799.37
5764.26
5705.63
5623.29
5517.01
5386.48
5231.33
5051.12
4845.36
4613.54
4355.05
4069.3
3755.62
3413.34
3041.77
1811.86
1782.72
1754.54
1727.26
)


20
(
6660.21
6645.99
6603.28
6531.96
6431.83
6302.62
6143.96
5955.43
5736.54
5486.73
5205.39
4891.88
4545.47
4165.45
3751.04
3301.47
1813.91
1778.62
1744.5
1711.47
)


20
(
7416.93
7400.41
7350.81
7267.99
7151.72
7001.71
6817.54
6598.76
6344.8
6055.06
5728.87
5365.49
4964.15
4524.04
4044.31
3524.13
1803.34
1762.5
1723
1684.76
)


20
(
8069.49
8050.94
7995.26
7902.3
7771.82
7603.47
7396.83
7151.39
6866.54
6541.64
6175.94
5768.65
5318.95
4825.96
4288.77
3706.47
1780.58
1734.84
1690.61
1647.79
)


20
(
8607.79
8587.52
8526.68
8425.11
8282.54
8098.62
7872.89
7604.8
7293.73
6938.97
6539.74
6095.21
5604.49
5066.66
4480.76
3845.82
1746.16
1696.28
1648.04
1601.34
)


20
(
9023.5
9001.85
8936.84
8828.31
8675.99
8479.5
8238.37
7952.01
7619.79
7240.96
6814.71
6340.17
5816.42
5242.5
4617.41
3940.15
1700.8
1647.59
1596.12
1546.29
)


20
(
9310.24
9287.55
9219.43
9105.72
8946.12
8740.27
8487.65
8187.7
7839.74
7443
6996.66
6499.83
5951.55
5350.86
4696.72
3988.12
1645.36
1589.67
1535.81
1483.67
)


20
(
9463.6
9440.25
9370.13
9253.08
9088.81
8876.94
8616.96
8308.29
7950.24
7542.04
7082.86
6571.8
6007.9
5390.16
4717.57
3989.09
1580.81
1523.56
1468.19
1414.57
)


20
(
9481.3
9457.66
9386.69
9268.21
9101.94
8887.5
8624.38
8312
7949.68
7536.65
7072.09
6555.08
5984.69
5359.92
4679.76
3943.18
1508.32
1450.43
1394.43
1340.21
)


20
(
9363.17
9339.63
9268.95
9150.97
8985.41
8771.88
8509.9
8198.89
7838.19
7427.04
6964.62
6450.05
5882.42
5260.73
4584.01
3851.24
1429.13
1371.53
1315.82
1261.88
)


20
(
9111.14
9088.08
9018.85
8903.29
8741.12
8531.99
8275.41
7970.83
7617.6
7215
6762.24
6258.47
5702.78
5094.26
4431.92
3714.81
1344.61
1288.24
1233.72
1180.92
)


20
(
8729.18
8706.97
8640.32
8529.06
8372.93
8171.59
7924.59
7631.4
7291.4
6903.9
6468.16
5983.35
5448.65
4863.14
4225.93
3536.09
1256.14
1201.92
1149.46
1098.68
)


20
(
8223.12
8202.13
8139.14
8034
7886.47
7696.21
7462.82
7185.79
6864.56
6498.48
6086.84
5628.9
5123.86
4570.89
3969.14
3317.76
1165.02
1113.81
1064.28
1016.32
)


20
(
7600.48
7581.06
7522.77
7425.46
7288.93
7112.87
6896.9
6640.56
6343.34
6004.64
5623.83
5200.21
4733.06
4221.62
3665.12
3062.77
1072.19
1024.84
979.034
934.685
)


20
(
6870.13
6852.59
6799.94
6712.07
6588.77
6429.78
6234.76
6003.3
5734.95
5429.16
5085.39
4703
4281.35
3819.77
3317.57
2774.05
977.966
935.242
893.914
853.897
)


20
(
6042
6026.62
5980.48
5903.46
5795.4
5656.07
5485.17
5282.35
5047.22
4779.32
4478.16
4143.21
3773.91
3369.68
2929.92
2454.04
881.554
844.149
807.966
772.931
)


20
(
5126.29
5113.34
5074.43
5009.5
4918.41
4800.96
4656.92
4485.99
4287.85
4062.12
3808.41
3526.26
3215.23
2874.83
2504.57
2103.96
780.309
748.825
718.369
688.88
)


20
(
4133.3
4122.95
4091.88
4040.03
3967.3
3873.53
3758.55
3622.12
3464.01
3283.93
3081.55
2856.56
2608.59
2337.29
2042.26
1723.13
668.865
643.79
619.535
596.05
)


20
(
3072.9
3065.3
3042.49
3004.44
2951.06
2882.26
2797.91
2697.88
2581.98
2450.03
2301.82
2137.13
1955.71
1757.32
1541.7
1308.61
538.779
520.471
502.761
485.612
)


20
(
1956.65
1951.89
1937.58
1913.72
1880.26
1837.17
1784.38
1721.81
1649.4
1567.04
1474.64
1372.08
1259.27
1136.06
1002.35
858.013
381.689
370.358
359.396
348.782
)


20
(
802.863
800.964
795.268
785.778
772.496
755.43
734.587
709.974
681.603
649.484
613.63
574.056
530.774
483.802
433.155
378.849
200.296
196.038
191.918
187.928
)


20
(
1750.42
1750.35
1750.13
1749.74
1749.11
1748.19
1746.89
1745.1
1742.69
1739.51
1735.41
1730.19
1723.65
1715.57
1705.71
1693.8
1652.2
1651.37
1650.58
1649.82
)


20
(
2815.29
2812.2
2802.94
2787.45
2765.64
2737.41
2702.61
2661.05
2612.53
2556.83
2493.66
2422.74
2343.76
2256.39
2160.26
2055
1704.94
1696.76
1688.86
1681.22
)


20
(
3847.09
3841.05
3822.92
3792.62
3750.05
3695.04
3627.38
3546.84
3453.13
3345.93
3224.88
3089.59
2939.63
2774.58
2593.95
2397.27
1745.16
1729.79
1714.92
1700.54
)


20
(
4829.89
4821
4794.32
4749.75
4687.15
4606.31
4506.99
4388.87
4251.59
4094.76
3917.92
3720.6
3502.26
3262.38
3000.37
2715.65
1772.68
1750.37
1728.8
1707.93
)


20
(
5748.5
5736.92
5702.13
5644.05
5562.48
5457.19
5327.88
5174.18
4995.66
4791.84
4562.2
4306.17
4023.13
3712.45
3373.46
3005.47
1787.44
1758.58
1730.67
1703.65
)


20
(
6588.71
6574.62
6532.32
6461.68
6362.51
6234.53
6077.38
5890.66
5673.87
5426.47
5147.85
4837.37
4494.33
4118.01
3707.65
3262.49
1789.55
1754.61
1720.82
1688.12
)


20
(
7337.5
7321.14
7272.02
7190
7074.87
6926.31
6743.93
6527.27
6275.8
5988.89
5665.89
5306.08
4908.69
4472.92
3997.95
3482.92
1779.25
1738.81
1699.7
1661.84
)


20
(
7983.27
7964.91
7909.78
7817.73
7688.53
7521.83
7317.22
7074.19
6792.16
6470.46
6108.38
5705.14
5259.9
4771.82
4240
3663.52
1756.93
1711.66
1667.87
1625.47
)


20
(
8516.04
8495.97
8435.74
8335.17
8194.01
8011.91
7788.42
7522.99
7215.01
6863.78
6468.53
6028.44
5542.63
5010.19
4430.18
3801.64
1723.15
1673.78
1626.02
1579.78
)


20
(
8927.56
8906.12
8841.76
8734.31
8583.5
8388.97
8150.24
7866.75
7537.85
7162.81
6740.83
6271.06
5752.58
5184.44
4565.67
3895.27
1678.61
1625.93
1574.98
1525.66
)


20
(
9211.49
9189.03
9121.59
9009.01
8851.02
8647.22
8397.15
8100.2
7755.74
7362.99
6921.15
6429.32
5886.59
5291.98
4644.47
3943.07
1624.13
1569.01
1515.7
1464.08
)


20
(
9363.5
9340.38
9270.96
9155.09
8992.48
8782.73
8525.37
8219.81
7865.37
7461.3
7006.76
6500.87
5942.69
5331.23
4665.48
3944.42
1560.71
1504.04
1449.23
1396.16
)


20
(
9381.31
9357.9
9287.64
9170.36
9005.77
8793.49
8533.03
8223.81
7865.16
7456.32
6996.46
6484.71
5920.11
5301.71
4628.49
3899.43
1489.46
1432.16
1376.74
1323.07
)


20
(
9264.74
9241.44
9171.47
9054.69
8890.8
8679.43
8420.11
8112.25
7755.21
7348.23
6890.52
6381.2
5819.34
5204.01
4534.2
3808.94
1411.64
1354.64
1299.49
1246.1
)


20
(
9015.71
8992.88
8924.35
8809.96
8649.44
8442.43
8188.45
7886.97
7537.34
7138.84
6690.69
6192.06
5642.05
5039.75
4384.21
3674.45
1328.58
1272.79
1218.83
1166.57
)


20
(
8638.11
8616.13
8550.15
8440.02
8285.48
8086.19
7841.71
7551.5
7214.97
6831.42
6400.13
5920.29
5391.05
4811.55
4180.88
3498.13
1241.63
1187.96
1136.05
1085.78
)


20
(
8137.71
8116.94
8054.59
7950.52
7804.49
7616.17
7385.16
7110.96
6793.01
6430.67
6023.24
5569.99
5070.13
4522.84
3927.28
3282.6
1152.03
1101.36
1052.34
1004.87
)


20
(
7521.92
7502.7
7445
7348.69
7213.55
7039.29
6825.52
6571.81
6277.62
5942.39
5565.48
5146.21
4683.86
4177.68
3626.9
3030.76
1060.7
1013.84
968.512
924.619
)


20
(
6799.51
6782.15
6730.04
6643.06
6521.02
6363.65
6170.62
5941.53
5675.92
5373.27
5033.02
4654.55
4237.24
3780.41
3283.38
2745.46
967.913
925.63
884.728
845.123
)


20
(
5980.27
5965.06
5919.38
5843.15
5736.19
5598.28
5429.12
5228.38
4995.65
4730.49
4432.41
4100.89
3735.38
3335.31
2900.08
2429.1
872.836
835.817
800.007
765.333
)


20
(
5074.33
5061.5
5022.99
4958.72
4868.55
4752.3
4609.72
4440.53
4244.4
4020.98
3769.85
3490.59
3182.74
2845.83
2479.37
2082.87
772.847
741.687
711.544
682.358
)


20
(
4091.84
4081.6
4050.84
3999.52
3927.51
3834.69
3720.86
3585.82
3429.3
3251.04
3050.72
2828.01
2582.56
2314.01
2022
1706.13
662.654
637.836
613.828
590.583
)


20
(
3042.66
3035.14
3012.55
2974.87
2922.02
2853.9
2770.39
2671.35
2556.6
2425.97
2279.24
2116.19
1936.59
1740.19
1526.75
1296.01
533.972
515.849
498.317
481.342
)


20
(
1938.24
1933.52
1919.35
1895.71
1862.58
1819.89
1767.6
1705.64
1633.92
1552.35
1460.84
1359.28
1247.56
1125.56
993.162
850.243
378.62
367.4
356.546
346.037
)


20
(
796.682
794.798
789.148
779.733
766.558
749.629
728.954
704.542
676.403
644.55
608.995
569.752
526.838
480.269
430.06
376.23
199.25
195.03
190.946
186.991
)


20
(
1774.69
1774.64
1774.47
1774.16
1773.66
1772.89
1771.77
1770.19
1768.01
1765.09
1761.25
1756.31
1750.06
1742.27
1732.69
1721.05
1680.3
1679.49
1678.72
1677.99
)


20
(
2853.93
2850.83
2841.5
2825.89
2803.93
2775.49
2740.42
2698.54
2649.65
2593.49
2529.81
2458.3
2378.65
2290.51
2193.52
2087.29
1733.98
1725.73
1717.75
1710.05
)


20
(
3899.62
3893.52
3875.21
3844.6
3801.59
3746.01
3677.66
3596.28
3501.59
3393.26
3270.92
3134.18
2982.61
2815.76
2633.15
2434.28
1774.89
1759.35
1744.32
1729.78
)


20
(
4895.61
4886.62
4859.64
4814.57
4751.26
4669.52
4569.07
4449.61
4310.78
4152.15
3973.29
3773.68
3552.82
3310.14
3045.06
2756.98
1802.85
1780.28
1758.46
1737.34
)


20
(
5826.49
5814.77
5779.58
5720.81
5638.29
5531.76
5400.93
5245.41
5064.78
4858.54
4626.17
4367.08
4080.65
3766.22
3423.13
3050.67
1817.81
1788.6
1760.35
1733.01
)


20
(
6677.87
6663.61
6620.8
6549.32
6448.95
6319.43
6160.39
5971.41
5752
5501.59
5219.58
4905.31
4558.07
4177.13
3761.71
3311.04
1819.85
1784.49
1750.28
1717.17
)


20
(
7436.56
7420
7370.28
7287.26
7170.72
7020.34
6835.73
6616.41
6361.84
6071.4
5744.42
5380.15
4977.83
4536.64
4055.74
3534.27
1809.24
1768.3
1728.7
1690.37
)


20
(
8090.81
8072.22
8016.41
7923.22
7792.42
7623.66
7416.52
7170.47
6884.93
6559.23
6192.63
5784.35
5333.54
4839.33
4300.81
3717.06
1786.38
1740.54
1696.19
1653.26
)


20
(
8630.49
8610.18
8549.19
8447.36
8304.45
8120.07
7893.79
7625.04
7313.2
6957.57
6557.35
6111.72
5619.78
5080.61
4493.26
3856.73
1751.83
1701.82
1653.46
1606.64
)


20
(
9047.26
9025.55
8960.38
8851.59
8698.89
8501.91
8260.18
7973.12
7640.07
7260.3
6832.99
6357.27
5832.21
5256.86
4630.21
3951.25
1706.28
1652.94
1601.34
1551.38
)


20
(
9334.69
9311.95
9243.66
9129.67
8969.68
8763.31
8510.07
8209.37
7860.54
7462.81
7015.36
6517.28
5967.64
5365.43
4709.66
3999.27
1650.6
1594.78
1540.79
1488.51
)


20
(
9488.4
9464.99
9394.7
9277.36
9112.68
8900.28
8639.65
8330.21
7971.26
7562.05
7101.72
6589.37
6024.05
5404.76
4730.48
4000.16
1585.8
1528.4
1472.89
1419.13
)


20
(
9506.08
9482.38
9411.23
9292.46
9125.77
8910.79
8647.02
8333.86
7970.63
7556.56
7090.83
6572.52
6000.69
5374.35
4692.48
3954.03
1513
1454.96
1398.82
1344.47
)


20
(
9387.57
9363.97
9293.11
9174.84
9008.86
8794.79
8532.16
8220.37
7858.76
7446.57
6982.99
6467.13
5898.06
5274.8
4596.37
3861.74
1433.48
1375.74
1319.88
1265.8
)


20
(
9134.8
9111.68
9042.28
8926.43
8763.85
8554.19
8296.97
7991.62
7637.5
7233.89
6779.98
6274.94
5717.85
5107.78
4443.77
3724.83
1348.6
1292.09
1237.43
1184.5
)


20
(
8751.75
8729.5
8662.67
8551.13
8394.62
8192.77
7945.15
7651.21
7310.35
6921.88
6485.03
5999
5462.94
4875.94
4237.11
3545.52
1259.77
1205.4
1152.82
1101.9
)


20
(
8244.29
8223.26
8160.11
8054.7
7906.8
7716.06
7482.08
7204.35
6882.31
6515.3
6102.62
5643.51
5137.19
4582.81
3979.54
3326.49
1168.26
1116.93
1067.27
1019.19
)


20
(
7619.96
7600.49
7542.05
7444.5
7307.62
7131.12
6914.6
6657.62
6359.64
6020.09
5638.31
5213.61
4745.27
4232.53
3674.61
3070.73
1075.06
1027.59
981.669
937.206
)


20
(
6887.64
6870.06
6817.28
6729.18
6605.57
6446.18
6250.67
6018.63
5749.59
5443.03
5098.38
4715.02
4292.3
3829.55
3326.07
2781.16
980.484
937.651
896.217
856.097
)


20
(
6057.3
6041.89
5995.63
5918.42
5810.09
5670.4
5499.07
5295.74
5060.02
4791.44
4489.51
4153.71
3783.47
3378.21
2937.34
2460.24
883.739
846.238
809.963
774.839
)


20
(
5139.19
5126.19
5087.19
5022.1
4930.78
4813.04
4668.63
4497.27
4298.63
4072.34
3817.98
3535.12
3223.3
2882.03
2510.84
2109.2
782.182
750.618
720.084
690.52
)


20
(
4143.58
4133.21
4102.06
4050.08
3977.17
3883.17
3767.9
3631.14
3472.63
3292.09
3089.21
2863.65
2615.06
2343.07
2047.3
1727.36
670.428
645.29
620.973
597.428
)


20
(
3080.41
3072.79
3049.93
3011.78
2958.26
2889.3
2804.74
2704.46
2588.28
2456.01
2307.43
2142.33
1960.46
1761.58
1545.43
1311.75
539.993
521.638
503.884
486.693
)


20
(
1961.22
1956.45
1942.11
1918.19
1884.66
1841.46
1788.54
1725.83
1653.24
1570.69
1478.07
1375.27
1262.18
1138.68
1004.64
859.952
382.466