/*--------------------------------*- C++ -*----------------------------------*\
| =========                 |                                                 |
| \\      /  F ield         | OpenFOAM: The Open Source CFD Toolbox           |
|  \\    /   O peration     | Version:  2212                                  |
|   \\  /    A nd           | Website:  www.openfoam.com                      |
|    \\/     M anipulation  |                                                 |
\*---------------------------------------------------------------------------*/
FoamFile
{
    version     2.0;
    format      ascii;
    arch        "LSB;label=32;scalar=64";
    class       volScalarField;
    location    "76/fluidRegion";
    object      Tci.nuclearFuelPin;
}
// * * * * * * * * * * * * * * * * * * * * * * * * * * * * * * * * * * * * * //

dimensions      [0 0 0 1 0 0 0];

internalField   nonuniform List<scalar> 
350
(
0
0
0
0
0
0
0
0
0
0
0
0
0
0
0
0
0
0
0
0
0
0
0
0
0
0
0
0
0
0
0
0
0
0
0
0
0
0
0
0
0
0
0
0
0
0
0
0
0
0
1851.98
1902.19
1939.17
1962.73
1972.82
1969.53
1953.15
1924.08
1882.94
1830.44
1767.49
1695.14
1614.56
1527.09
1434.16
1337.29
1237.92
1137.19
1035.61
932.484
825.028
707.105
568.13
396.169
193.011
1880.5
1931.47
1968.97
1992.82
2002.96
1999.5
1982.71
1953.01
1911.03
1857.5
1793.33
1719.59
1637.48
1548.34
1453.63
1354.91
1253.65
1151.08
1047.73
942.973
834.013
714.636
574.043
399.997
194.304
1847.35
1897.46
1934.37
1957.91
1968
1964.77
1948.46
1919.51
1878.51
1826.19
1763.45
1691.33
1611
1523.79
1431.15
1334.58
1235.5
1135.06
1033.76
930.887
823.668
705.976
567.257
395.608
192.814
1874.09
1924.86
1962.23
1986
1996.12
1992.68
1975.96
1946.41
1904.6
1851.3
1787.4
1713.97
1632.21
1543.44
1449.14
1350.84
1250.02
1147.87
1044.93
940.548
831.935
712.893
572.674
399.109
194.005
1874.09
1924.86
1962.23
1986
1996.12
1992.68
1975.96
1946.41
1904.6
1851.3
1787.4
1713.97
1632.21
1543.44
1449.14
1350.84
1250.02
1147.87
1044.93
940.547
831.935
712.893
572.674
399.109
194.005
1847.35
1897.46
1934.37
1957.91
1968.01
1964.77
1948.46
1919.51
1878.51
1826.19
1763.45
1691.33
1611
1523.8
1431.15
1334.58
1235.5
1135.06
1033.76
930.888
823.668
705.977
567.257
395.609
192.814
1880.5
1931.47
1968.97
1992.82
2002.96
1999.5
1982.71
1953.01
1911.03
1857.5
1793.33
1719.59
1637.48
1548.34
1453.63
1354.91
1253.65
1151.08
1047.73
942.973
834.013
714.636
574.044
399.997
194.304
1851.98
1902.19
1939.17
1962.73
1972.82
1969.53
1953.15
1924.08
1882.94
1830.44
1767.49
1695.14
1614.56
1527.09
1434.16
1337.29
1237.92
1137.19
1035.61
932.484
825.027
707.105
568.131
396.169
193.011
1874.09
1924.86
1962.23
1986
1996.12
1992.68
1975.96
1946.41
1904.6
1851.3
1787.4
1713.97
1632.21
1543.44
1449.14
1350.84
1250.02
1147.87
1044.93
940.548
831.935
712.893
572.674
399.109
194.005
1847.35
1897.46
1934.37
1957.91
1968
1964.77
1948.46
1919.51
1878.51
1826.19
1763.45
1691.33
1611
1523.79
1431.15
1334.58
1235.5
1135.06
1033.76
930.888
823.668
705.976
567.257
395.608
192.814
1847.35
1897.46
1934.37
1957.91
1968.01
1964.77
1948.46
1919.51
1878.51
1826.19
1763.45
1691.33
1611
1523.8
1431.15
1334.58
1235.5
1135.06
1033.76
930.888
823.668
705.977
567.257
395.609
192.814
1874.09
1924.86
1962.23
1986
1996.12
1992.68
1975.96
1946.41
1904.6
1851.3
1787.4
1713.97
1632.21
1543.44
1449.14
1350.84
1250.02
1147.87
1044.93
940.548
831.935
712.893
572.674
399.109
194.005
)
;

boundaryField
{
    outletCentralUnloaded
    {
        type            zeroGradient;
    }
    inletCentralUnloaded
    {
        type            zeroGradient;
    }
    outletFuelElement
    {
        type            zeroGradient;
    }
    inletFuelElement
    {
        type            zeroGradient;
    }
    defaultFaces
    {
        type            zeroGradient;
    }
    baffle_master
    {
        type            zeroGradient;
    }
    baffle_slave
    {
        type            zeroGradient;
    }
}


// ************************************************************************* //
