/*--------------------------------*- C++ -*----------------------------------*\
| =========                 |                                                 |
| \\      /  F ield         | OpenFOAM: The Open Source CFD Toolbox           |
|  \\    /   O peration     | Version:  2212                                  |
|   \\  /    A nd           | Website:  www.openfoam.com                      |
|    \\/     M anipulation  |                                                 |
\*---------------------------------------------------------------------------*/
FoamFile
{
    version     2.0;
    format      ascii;
    arch        "LSB;label=32;scalar=64";
    class       volScalarField;
    location    "76/fluidRegion";
    object      Tfi.nuclearFuelPin;
}
// * * * * * * * * * * * * * * * * * * * * * * * * * * * * * * * * * * * * * //

dimensions      [0 0 0 1 0 0 0];

internalField   nonuniform List<scalar> 
350
(
0
0
0
0
0
0
0
0
0
0
0
0
0
0
0
0
0
0
0
0
0
0
0
0
0
0
0
0
0
0
0
0
0
0
0
0
0
0
0
0
0
0
0
0
0
0
0
0
0
0
2425.43
3613.84
4762.02
5852.26
6867.69
7792.54
8612.45
9314.67
9888.24
10324.2
10615.8
10758.4
10749.9
10590.4
10282.5
9831.11
9243.28
8527.84
7694.97
6755.58
5720
4596.79
3391.11
2107.92
766.638
2460.53
3662.73
4824.16
5926.91
6953.9
7889.21
8718.29
9428.26
10008
10448.6
10743
10886.7
10877.4
10715.4
10403.3
9946.02
9350.71
8626.39
7783.37
6832.77
5785.06
4648.88
3429.36
2131.36
774.502
2419.75
3605.99
4752.08
5840.35
6853.94
7777.15
8595.62
9296.62
9869.21
10304.5
10595.6
10738.1
10729.6
10570.5
10263.3
9812.9
9226.26
8512.23
7680.97
6743.36
5709.71
4588.56
3385.08
2104.24
765.394
2452.6
3651.61
4809.98
5909.83
6934.15
7867.03
8693.99
9402.16
9980.49
10420
10713.7
10857.2
10848.1
10686.6
10375.5
9919.56
9325.97
8603.69
7763.01
6814.99
5770.07
4636.88
3420.54
2125.96
772.69
2452.6
3651.61
4809.98
5909.83
6934.14
7867.03
8693.99
9402.16
9980.49
10420
10713.7
10857.2
10848.1
10686.6
10375.5
9919.56
9325.97
8603.69
7763.01
6814.99
5770.07
4636.88
3420.54
2125.96
772.69
2419.76
3605.99
4752.08
5840.35
6853.94
7777.15
8595.62
9296.62
9869.21
10304.5
10595.6
10738.1
10729.6
10570.5
10263.3
9812.9
9226.26
8512.23
7680.97
6743.36
5709.71
4588.57
3385.08
2104.24
765.395
2460.53
3662.73
4824.16
5926.91
6953.9
7889.21
8718.29
9428.25
10008
10448.6
10743
10886.7
10877.4
10715.4
10403.3
9946.02
9350.71
8626.38
7783.37
6832.77
5785.06
4648.88
3429.36
2131.36
774.502
2425.43
3613.84
4762.03
5852.26
6867.69
7792.54
8612.45
9314.67
9888.24
10324.2
10615.8
10758.4
10749.9
10590.4
10282.5
9831.11
9243.28
8527.84
7694.97
6755.58
5720
4596.79
3391.11
2107.92
766.638
2452.6
3651.61
4809.98
5909.83
6934.14
7867.03
8693.99
9402.16
9980.49
10420
10713.7
10857.2
10848.1
10686.6
10375.5
9919.56
9325.97
8603.69
7763.01
6814.99
5770.07
4636.88
3420.54
2125.96
772.69
2419.75
3605.99
4752.08
5840.35
6853.94
7777.15
8595.62
9296.62
9869.21
10304.5
10595.6
10738.1
10729.6
10570.5
10263.3
9812.9
9226.26
8512.23
7680.97
6743.36
5709.71
4588.56
3385.08
2104.24
765.394
2419.76
3605.99
4752.08
5840.35
6853.94
7777.15
8595.62
9296.62
9869.21
10304.5
10595.6
10738.1
10729.6
10570.5
10263.3
9812.9
9226.26
8512.23
7680.97
6743.36
5709.71
4588.56
3385.08
2104.24
765.394
2452.6
3651.61
4809.98
5909.83
6934.14
7867.03
8693.99
9402.16
9980.49
10420
10713.7
10857.2
10848.1
10686.6
10375.5
9919.56
9325.97
8603.69
7763.01
6814.99
5770.07
4636.88
3420.54
2125.96
772.69
)
;

boundaryField
{
    outletCentralUnloaded
    {
        type            zeroGradient;
    }
    inletCentralUnloaded
    {
        type            zeroGradient;
    }
    outletFuelElement
    {
        type            zeroGradient;
    }
    inletFuelElement
    {
        type            zeroGradient;
    }
    defaultFaces
    {
        type            zeroGradient;
    }
    baffle_master
    {
        type            zeroGradient;
    }
    baffle_slave
    {
        type            zeroGradient;
    }
}


// ************************************************************************* //
