/*--------------------------------*- C++ -*----------------------------------*\
| =========                 |                                                 |
| \\      /  F ield         | OpenFOAM: The Open Source CFD Toolbox           |
|  \\    /   O peration     | Version:  2212                                  |
|   \\  /    A nd           | Website:  www.openfoam.com                      |
|    \\/     M anipulation  |                                                 |
\*---------------------------------------------------------------------------*/
FoamFile
{
    version     2.0;
    format      ascii;
    arch        "LSB;label=32;scalar=64";
    class       scalarFieldField;
    location    "76/fluidRegion";
    object      Trad.nuclearFuelPin;
}
// * * * * * * * * * * * * * * * * * * * * * * * * * * * * * * * * * * * * * //


350
(
0()
0()
0()
0()
0()
0()
0()
0()
0()
0()
0()
0()
0()
0()
0()
0()
0()
0()
0()
0()
0()
0()
0()
0()
0()
0()
0()
0()
0()
0()
0()
0()
0()
0()
0()
0()
0()
0()
0()
0()
0()
0()
0()
0()
0()
0()
0()
0()
0()
0()

20
(
2425.43
2423.64
2418.28
2409.33
2396.8
2380.7
2361.01
2337.75
2310.91
2280.49
2246.49
2208.91
2167.74
2123
2074.68
2022.78
1851.98
1847.91
1843.97
1840.16
)


20
(
3613.84
3608.5
3592.48
3565.77
3528.38
3480.31
3421.55
3352.11
3271.99
3181.18
3079.7
2967.52
2844.67
2711.13
2566.9
2412
1902.19
1890.04
1878.3
1866.92
)


20
(
4762.02
4753.22
4726.79
4682.74
4621.08
4541.8
4444.89
4330.37
4198.24
4048.48
3881.1
3696.11
3493.5
3273.26
3035.41
2779.94
1939.17
1919.14
1899.77
1881
)


20
(
5852.26
5840.13
5803.71
5743.02
5658.06
5548.82
5415.3
5257.5
5075.43
4869.09
4638.46
4383.57
4104.39
3800.94
3473.21
3121.2
1962.73
1935.14
1908.44
1882.58
)


20
(
6867.69
6852.41
6806.59
6730.21
6623.28
6485.8
6317.77
6119.2
5890.06
5630.38
5340.15
5019.37
4668.03
4286.14
3873.71
3430.72
1972.82
1938.09
1904.49
1871.96
)


20
(
7792.54
7774.37
7719.85
7628.99
7501.79
7338.25
7138.36
6902.12
6629.55
6320.62
5975.36
5593.75
5175.8
4721.5
4230.86
3703.87
1969.53
1928.22
1888.25
1849.55
)


20
(
8612.45
8591.67
8529.33
8425.42
8279.95
8092.91
7864.31
7594.15
7282.43
6929.14
6534.29
6097.87
5619.89
5100.35
4539.24
3936.57
1953.15
1905.9
1860.19
1815.93
)


20
(
9314.67
9291.6
9222.41
9107.09
8945.65
8738.07
8484.37
8184.54
7838.59
7446.5
7008.29
6523.95
5993.48
5416.89
4794.16
4125.31
1924.08
1871.65
1820.92
1771.8
)


20
(
9888.24
9863.26
9788.31
9663.4
9488.53
9263.69
8988.88
8664.12
8289.38
7864.69
7390.03
6865.4
6290.81
5666.25
4991.73
4267.25
1882.94
1826.14
1771.19
1717.98
)


20
(
10324.2
10297.7
10218.2
10085.7
9900.11
9661.55
9369.98
9025.4
8627.8
8177.19
7673.56
7116.93
6507.27
5844.61
5128.93
4360.24
1830.44
1770.18
1711.88
1655.42
)


20
(
10615.8
10588.2
10505.3
10367.3
10174
9925.47
9621.73
9262.76
8848.57
8379.15
7854.5
7274.63
6639.53
5949.21
5203.66
4402.88
1767.49
1704.72
1643.98
1585.17
)


20
(
10758.4
10730.1
10645.3
10503.9
10305.9
10051.3
9740.19
9372.51
8948.25
8467.42
7930.03
7336.07
6685.55
5978.45
5214.79
4394.55
1695.14
1630.84
1568.63
1508.38
)


20
(
10749.9
10721.4
10635.8
10493.3
10293.7
10037.2
9723.56
9352.95
8925.32
8440.68
7899.01
7300.33
6644.64
5931.92
5162.19
4335.43
1614.56
1549.75
1487.05
1426.32
)


20
(
10590.4
10562.1
10477.2
10335.8
10137.8
9883.28
9572.15
9204.47
8780.21
8299.38
7761.99
7168.03
6517.5
5810.4
5046.74
4226.51
1527.09
1462.78
1400.58
1340.33
)


20
(
10282.5
10254.9
10172
10034
9840.68
9592.16
9288.42
8929.45
8515.25
8045.83
7521.19
6941.31
6306.21
5615.89
4870.33
4069.56
1434.16
1371.38
1310.65
1251.84
)


20
(
9831.11
9804.6
9725.08
9592.55
9407
9168.44
8876.87
8532.28
8134.68
7684.07
7180.44
6623.8
6014.14
5351.48
4635.79
3867.1
1337.29
1277.03
1218.73
1162.27
)


20
(
9243.28
9218.29
9143.35
9018.43
8843.56
8618.72
8343.91
8019.14
7644.41
7219.71
6745.04
6220.41
5645.82
5021.26
4346.73
3622.24
1237.92
1181.12
1126.17
1072.96
)


20
(
8527.84
8504.78
8435.59
8320.27
8158.82
7951.24
7697.54
7397.71
7051.74
6659.66
6221.44
5737.09
5206.62
4630.02
4007.29
3338.43
1137.19
1084.76
1034.03
984.901
)


20
(
7694.97
7674.19
7611.84
7507.93
7362.46
7175.42
6946.82
6676.66
6364.93
6011.64
5616.78
5180.36
4702.38
4182.83
3621.72
3019.04
1035.61
988.366
942.658
898.393
)


20
(
6755.58
6737.41
6682.89
6592.03
6464.83
6301.28
6101.38
5865.15
5592.56
5283.64
4938.37
4556.75
4138.79
3684.49
3193.84
2666.84
932.484
891.17
851.202
812.495
)


20
(
5720
5704.72
5658.9
5582.52
5475.59
5338.1
5170.07
4971.49
4742.35
4482.66
4192.42
3871.63
3520.29
3138.4
2725.95
2282.95
825.028
790.298
756.7
724.163
)


20
(
4596.79
4584.65
4548.23
4487.54
4402.57
4293.32
4159.8
4002
3819.92
3613.57
3382.93
3128.02
2848.84
2545.37
2217.63
1865.61
707.105
679.508
652.81
626.954
)


20
(
3391.11
3382.3
3355.87
3311.82
3250.15
3170.86
3073.96
2959.43
2827.29
2677.52
2510.14
2325.14
2122.51
1902.27
1664.41
1408.93
568.13
548.102
528.725
509.961
)


20
(
2107.92
2102.58
2086.56
2059.85
2022.45
1974.38
1915.62
1846.17
1766.04
1675.23
1573.74
1461.56
1338.69
1205.15
1060.91
906
396.169
384.024
372.275
360.897
)


20
(
766.638
764.848
759.477
750.527
737.996
721.885
702.193
678.922
652.07
621.638
587.625
550.033
508.86
464.107
415.774
363.86
193.011
188.941
185.004
181.191
)


20
(
2460.53
2458.72
2453.29
2444.24
2431.57
2415.28
2395.37
2371.84
2344.69
2313.92
2279.53
2241.52
2199.89
2154.63
2105.76
2053.27
1880.5
1876.39
1872.41
1868.55
)


20
(
3662.73
3657.32
3641.12
3614.1
3576.29
3527.66
3468.23
3398
3316.96
3225.11
3122.46
3009.01
2884.74
2749.67
2603.8
2447.12
1931.47
1919.19
1907.3
1895.79
)


20
(
4824.16
4815.25
4788.52
4743.97
4681.6
4601.41
4503.4
4387.57
4253.91
4102.44
3933.15
3746.04
3541.1
3318.35
3077.77
2819.37
1968.97
1948.71
1929.12
1910.14
)


20
(
5926.91
5914.63
5877.8
5816.41
5730.48
5619.98
5484.94
5325.33
5141.18
4932.47
4699.2
4441.39
4159.01
3852.08
3520.6
3164.56
1992.82
1964.91
1937.91
1911.76
)


20
(
6953.9
6938.45
6892.1
6814.85
6706.7
6567.64
6397.69
6196.84
5965.08
5702.42
5408.87
5084.41
4729.05
4342.79
3925.63
3477.56
2002.96
1967.84
1933.85
1900.95
)


20
(
7889.21
7870.83
7815.69
7723.79
7595.13
7429.71
7227.53
6988.59
6712.89
6400.43
6051.21
5665.23
5242.49
4782.99
4286.73
3753.7
1999.5
1957.71
1917.29
1878.14
)


20
(
8718.29
8697.27
8634.21
8529.12
8381.98
8192.8
7961.58
7688.33
7373.03
7015.7
6616.32
6174.91
5691.45
5165.96
4598.42
3988.84
1982.71
1934.92
1888.69
1843.91
)


20
(
9428.26
9404.93
9334.94
9218.3
9055.01
8845.06
8588.45
8285.19
7935.27
7538.69
7095.46
6605.57
6069.03
5485.83
4855.97
4179.45
1953.01
1899.98
1848.67
1798.98
)


20
(
10008
9982.76
9906.96
9780.62
9603.74
9376.32
9098.37
8769.88
8390.86
7961.3
7481.2
6950.56
6369.39
5737.68
5055.43
4322.65
1911.03
1853.58
1798
1744.18
)


20
(
10448.6
10421.8
10341.3
10207.3
10019.6
9778.31
9483.4
9134.87
8732.72
8276.95
7767.55
7204.54
6587.9
5917.65
5193.77
4416.27
1857.5
1796.54
1737.58
1680.47
)


20
(
10743
10715.1
10631.3
10491.6
10296.1
10044.8
9737.53
9374.45
8955.52
8480.72
7950.07
7363.55
6721.18
6022.95
5268.86
4458.91
1793.33
1729.84
1668.41
1608.92
)


20
(
10886.7
10858.1
10772.3
10629.2
10429
10171.5
9856.8
9484.9
9055.79
8569.46
8025.91
7425.14
6767.16
6051.97
5279.56
4449.93
1719.59
1654.55
1591.63
1530.7
)


20
(
10877.4
10848.6
10762.1
10617.9
10416.1
10156.6
9839.37
9464.51
9031.99
8541.79
7993.92
7388.38
6725.17
6004.29
5225.74
4389.52
1637.48
1571.92
1508.5
1447.08
)


20
(
10715.4
10686.8
10601
10458
10257.7
10000.2
9685.56
9313.66
8884.54
8398.21
7854.66
7253.9
6595.92
5880.72
5108.31
4278.68
1548.34
1483.3
1420.38
1359.44
)


20
(
10403.3
10375.4
10291.6
10151.9
9956.44
9705.08
9397.86
9034.78
8615.84
8141.04
7610.38
7023.87
6381.49
5683.26
4929.17
4119.22
1453.63
1390.14
1328.71
1269.22
)


20
(
9946.02
9919.21
9838.78
9704.73
9517.06
9275.76
8980.85
8632.32
8230.16
7774.39
7264.99
6701.97
6085.34
5415.08
4691.2
3913.7
1354.91
1293.96
1234.99
1177.88
)


20
(
9350.71
9325.44
9249.64
9123.3
8946.42
8719
8441.05
8112.56
7733.53
7303.96
6823.86
6293.22
5712.05
5080.33
4398.08
3665.29
1253.65
1196.21
1140.63
1086.81
)


20
(
8626.39
8603.06
8533.07
8416.43
8253.13
8043.18
7786.57
7483.3
7133.38
6736.8
6293.56
5803.67
5267.12
4683.91
4054.05
3377.53
1151.08
1098.04
1046.73
997.041
)


20
(
7783.37
7762.35
7699.29
7594.19
7447.05
7257.87
7026.66
6753.4
6438.1
6080.76
5681.38
5239.96
4756.5
4231
3663.46
3053.88
1047.73
999.946
953.715
908.942
)


20
(
6832.77
6814.39
6759.25
6667.35
6538.69
6373.27
6171.08
5932.14
5656.43
5343.97
4994.74
4608.75
4186.01
3726.5
3230.23
2697.2
942.973
901.185
860.759
821.609
)


20
(
5785.06
5769.6
5723.25
5646
5537.84
5398.79
5228.83
5027.97
4796.21
4533.55
4239.98
3915.52
3560.15
3173.88
2756.71
2308.64
834.013
798.886
764.903
731.993
)


20
(
4648.88
4636.6
4599.77
4538.38
4452.43
4341.94
4206.88
4047.27
3863.11
3654.39
3421.12
3163.29
2880.9
2573.96
2242.47
1886.41
714.636
686.723
659.72
633.568
)


20
(
3429.36
3420.45
3393.71
3349.16
3286.79
3206.59
3108.58
2992.74
2859.08
2707.6
2538.3
2351.18
2146.23
1923.47
1682.88
1424.47
574.043
553.785
534.187
515.207
)


20
(
2131.36
2125.96
2109.75
2082.73
2044.91
1996.28
1936.85
1866.61
1785.56
1693.71
1591.05
1477.59
1353.32
1218.24
1072.36
915.668
399.997
387.713
375.829
364.321
)


20
(
774.502
772.691
767.259
758.206
745.532
729.236
709.319
685.781
658.621
627.841
593.439
555.416
513.771
468.505
419.619
367.11
194.304
190.188
186.206
182.349
)


20
(
2419.75
2417.97
2412.61
2403.68
2391.18
2375.1
2355.45
2332.23
2305.44
2275.07
2241.13
2203.62
2162.54
2117.88
2069.65
2017.84
1847.35
1843.28
1839.35
1835.55
)


20
(
3605.99
3600.66
3584.66
3558
3520.68
3472.7
3414.05
3344.73
3264.76
3174.12
3072.82
2960.85
2838.22
2704.92
2560.96
2406.33
1897.46
1885.33
1873.61
1862.25
)


20
(
4752.08
4743.28
4716.91
4672.94
4611.39
4532.25
4435.53
4321.22
4189.32
4039.84
3872.76
3688.11
3485.86
3266.03
3028.61
2773.61
1934.37
1914.38
1895.04
1876.31
)


20
(
5840.35
5828.23
5791.88
5731.3
5646.49
5537.45
5404.18
5246.67
5064.93
4858.96
4628.76
4374.33
4095.66
3792.76
3465.63
3114.26
1957.91
1930.36
1903.71
1877.91
)


20
(
6853.94
6838.7
6792.95
6716.72
6609.98
6472.76
6305.04
6106.82
5878.11
5618.9
5329.19
5009
4658.3
4277.11
3865.43
3423.24
1968
1933.34
1899.8
1867.33
)


20
(
7777.15
7759.01
7704.6
7613.9
7486.93
7323.68
7124.16
6888.36
6616.28
6307.92
5963.28
5582.37
5165.18
4711.71
4221.96
3695.94
1964.77
1923.53
1883.63
1845
)


20
(
8595.62
8574.88
8512.65
8408.93
8263.72
8077.03
7848.85
7579.18
7268.02
6915.38
6521.24
6085.62
5608.52
5089.92
4529.83
3928.26
1948.46
1901.3
1855.67
1811.49
)


20
(
9296.62
9273.59
9204.53
9089.42
8928.27
8721.07
8467.84
8168.55
7823.23
7431.86
6994.45
6510.99
5981.49
5405.94
4784.35
4116.72
1919.51
1867.17
1816.54
1767.5
)


20
(
9869.21
9844.28
9769.47
9644.78
9470.23
9245.8
8971.5
8647.32
8273.27
7849.35
7375.56
6851.89
6278.34
5654.93
4981.64
4258.47
1878.51
1821.82
1766.97
1713.86
)


20
(
10304.5
10278
10198.6
10066.4
9881.15
9643.02
9351.98
9008.03
8611.15
8161.36
7658.66
7103.04
6494.5
5833.04
5118.67
4351.38
1826.19
1766.04
1707.85
1651.49
)


20
(
10595.6
10568
10485.4
10347.5
10154.6
9906.54
9603.36
9245.04
8831.61
8363.04
7839.35
7260.54
6626.6
5937.54
5193.35
4394.03
1763.45
1700.79
1640.17
1581.46
)


20
(
10738.1
10709.8
10625.1
10484
10286.3
10032.3
9721.71
9354.69
8931.21
8451.26
7914.85
7321.97
6672.63
5966.82
5204.55
4385.82
1691.33
1627.14
1565.05
1504.91
)


20
(
10729.6
10701.2
10615.8
10473.5
10274.3
10018.2
9705.21
9335.28
8908.43
8424.66
7883.99
7286.4
6631.9
5920.48
5152.15
4326.91
1611
1546.3
1483.71
1423.1
)


20
(
10570.5
10542.3
10457.6
10316.5
10118.8
9864.74
9554.19
9187.17
8763.69
8283.74
7747.32
7154.45
6505.11
5799.3
5037.03
4218.29
1523.79
1459.61
1397.51
1337.38
)


20
(
10263.3
10235.8
10153.1
10015.3
9822.33
9574.27
9271.08
8912.77
8499.33
8030.76
7507.07
6928.26
6294.32
5605.25
4861.06
4061.74
1431.15
1368.49
1307.87
1249.16
)


20
(
9812.9
9786.44
9707.07
9574.78
9389.57
9151.44
8860.4
8516.44
8119.57
7669.78
7167.07
6611.44
6002.9
5341.44
4627.06
3859.77
1334.58
1274.42
1216.23
1159.87
)


20
(
9226.26
9201.32
9126.51
9001.83
8827.27
8602.84
8328.53
8004.35
7630.3
7206.38
6732.58
6208.91
5635.36
5011.94
4338.64
3615.47
1235.5
1178.81
1123.96
1070.84
)


20
(
8512.23
8489.21
8420.15
8305.04
8143.88
7936.68
7683.44
7384.16
7038.83
6647.46
6210.04
5726.58
5197.07
4621.52
3999.93
3332.29
1135.06
1082.72
1032.09
983.051
)


20
(
7680.97
7660.23
7597.99
7494.27
7349.07
7162.37
6934.19
6664.52
6353.36
6000.71
5606.57
5170.95
4693.84
4175.24
3615.15
3013.57
1033.76
986.6
940.975
896.79
)


20
(
6743.36
6725.22
6670.81
6580.11
6453.14
6289.89
6090.36
5854.55
5582.47
5274.1
4929.46
4548.54
4131.34
3677.87
3188.11
2662.08
930.887
889.648
849.753
811.117
)


20
(
5709.71
5694.46
5648.72
5572.48
5465.74
5328.51
5160.79
4962.56
4733.85
4474.63
4184.92
3864.72
3514.01
3132.82
2721.12
2278.93
823.668
789.002
755.465
722.987
)


20
(
4588.56
4576.45
4540.1
4479.52
4394.7
4285.65
4152.37
3994.86
3813.11
3607.14
3376.92
3122.48
2843.8
2540.89
2213.75
1862.37
705.976
678.429
651.78
625.972
)


20
(
3385.08
3376.29
3349.91
3305.94
3244.39
3165.24
3068.51
2954.2
2822.29
2672.8
2505.72
2321.06
2118.8
1898.96
1661.54
1406.52
567.257
547.264
527.923
509.193
)


20
(
2104.24
2098.91
2082.91
2056.25
2018.93
1970.94
1912.28
1842.97
1762.98
1672.34
1571.03
1459.05
1336.41
1203.11
1059.14
904.509
395.608
383.486
371.758
360.401
)


20
(
765.394
763.607
758.247
749.313
736.805
720.723
701.067
677.838
651.035
620.659
586.708
549.184
508.087
463.415
415.17
363.351
192.814
188.751
184.821
181.015
)


20
(
2452.6
2450.79
2445.38
2436.35
2423.72
2407.47
2387.61
2364.14
2337.06
2306.37
2272.07
2234.16
2192.64
2147.5
2098.76
2046.4
1874.09
1869.98
1866.01
1862.17
)


20
(
3651.61
3646.22
3630.06
3603.11
3565.39
3516.9
3457.62
3387.57
3306.74
3215.14
3112.75
2999.59
2875.65
2740.94
2595.44
2439.17
1924.86
1912.61
1900.76
1889.28
)


20
(
4809.98
4801.09
4774.43
4730
4667.79
4587.81
4490.05
4374.52
4241.22
4090.14
3921.29
3734.66
3530.26
3308.09
3068.14
2810.42
1962.23
1942.03
1922.48
1903.55
)


20
(
5909.83
5897.59
5860.85
5799.63
5713.91
5603.71
5469.01
5309.83
5126.15
4917.98
4685.33
4428.18
4146.54
3840.42
3509.8
3154.69
1986
1958.16
1931.23
1905.15
)


20
(
6934.15
6918.74
6872.51
6795.46
6687.59
6548.9
6379.38
6179.05
5947.9
5685.93
5393.14
5069.53
4715.09
4329.84
3913.77
3466.87
1996.12
1961.08
1927.19
1894.36
)


20
(
7867.03
7848.7
7793.7
7702.04
7573.72
7408.73
7207.08
6968.76
6693.78
6382.14
6033.83
5648.85
5227.21
4768.91
4273.94
3742.31
1992.68
1951
1910.68
1871.63
)


20
(
8693.99
8673.03
8610.13
8505.31
8358.55
8169.87
7939.26
7666.71
7352.24
6995.84
6597.5
6157.24
5675.04
5150.92
4584.86
3976.87
1975.96
1928.3
1882.19
1837.53
)


20
(
9402.16
9378.89
9309.09
9192.75
9029.89
8820.48
8564.54
8262.07
7913.06
7517.52
7075.44
6586.83
6051.69
5470.01
4841.79
4167.04
1946.41
1893.51
1842.33
1792.77
)


20
(
9980.49
9955.29
9879.68
9753.67
9577.26
9350.43
9073.21
8745.58
8367.54
7939.1
7460.25
6931
6351.34
5721.28
5040.81
4309.94
1904.6
1847.3
1791.87
1738.19
)


20
(
10420
10393.2
10313
10179.3
9992.13
9751.47
9457.32
9109.7
8708.6
8254.01
7745.95
7184.4
6569.37
5900.86
5178.87
4403.4
1851.3
1790.5
1731.69
1674.73
)


20
(
10713.7
10685.9
10602.3
10463
10268
10017.3
9710.89
9348.76
8930.92
8457.36
7928.09
7343.1
6702.4
6005.99
5253.87
4446.03
1787.4
1724.07
1662.81
1603.47
)


20
(
10857.2
10828.6
10743
10600.4
10400.6
10143.8
9829.97
9459.04
9031.04
8545.98
8003.85
7404.65
6748.39
6035.06
5264.66
4437.19
1713.97
1649.1
1586.35
1525.57
)


20
(
10848.1
10819.3
10733
10589.2
10387.9
10129.1
9812.72
9438.84
9007.44
8518.52
7972.08
7368.12
6706.64
5987.64
5211.11
4377.07
1632.21
1566.82
1503.57
1442.31
)


20
(
10686.6
10658.1
10572.5
10429.8
10230.1
9973.32
9659.45
9288.52
8860.52
8375.46
7833.33
7234.13
6577.86
5864.53
5094.13
4266.67
1543.44
1478.57
1415.82
1355.04
)


20
(
10375.5
10347.6
10264.1
10124.8
9929.79
9679.08
9372.66
9010.52
8592.68
8119.12
7589.84
7004.86
6364.16
5667.74
4915.62
4107.78
1449.14
1385.81
1324.54
1265.21
)


20
(
9919.56
9892.82
9812.6
9678.9
9491.71
9251.05
8956.9
8609.28
8208.17
7753.59
7245.52
6683.97
6068.94
5400.43
4678.43
3902.96
1350.84
1290.05
1231.24
1174.28
)


20
(
9325.97
9300.77
9225.16
9099.15
8922.73
8695.9
8418.68
8091.04
7713
7284.56
6805.71
6276.45
5696.79
5066.72
4386.25
3655.37
1250.02
1192.72
1137.29
1083.61
)


20
(
8603.69
8580.42
8510.62
8394.28
8231.41
8022
7766.06
7463.59
7114.58
6719.03
6276.95
5788.33
5253.18
4671.5
4043.27
3368.52
1147.87
1094.97
1043.79
994.235
)


20
(
7763.01
7742.05
7679.15
7574.32
7427.57
7238.88
7008.27
6735.72
6421.24
6064.84
5666.5
5226.23
4744.03
4219.9
3653.84
3045.85
1044.93
997.269
951.158
906.502
)


20
(
6814.99
6796.66
6741.66
6650
6521.67
6356.68
6155.03
5916.71
5641.72
5330.07
4981.75
4596.77
4175.13
3716.82
3221.84
2690.2
940.548
898.869
858.548
819.5
)


20
(
5770.07
5754.66
5708.43
5631.38
5523.5
5384.81
5215.29
5014.96
4783.8
4521.82
4229.02
3905.4
3550.96
3165.7
2749.62
2302.71
831.935
796.899
763.005
730.18
)


20
(
4636.88
4624.63
4587.89
4526.67
4440.95
4330.74
4196.03
4036.84
3853.16
3644.98
3412.32
3155.16
2873.51
2567.37
2236.74
1881.62
712.893
685.053
658.12
632.036
)


20
(
3420.54
3411.65
3384.99
3340.56
3278.34
3198.36
3100.6
2985.06
2851.75
2700.67
2531.81
2345.17
2140.76
1918.58
1678.62
1420.89
572.674
552.468
532.921
513.991
)


20
(
2125.96
2120.57
2104.4
2077.46
2039.73
1991.23
1931.95
1861.9
1781.06
1689.45
1587.06
1473.89
1349.94
1215.22
1069.72
913.435
399.109
386.857
375.004
363.526
)


20
(
772.69
770.884
765.467
756.437
743.796
727.543
707.677
684.201
657.112
626.412
592.099
554.175
512.639
467.492
418.732
366.361
194.005
189.9
185.928
182.081
)


20
(
2452.6
2450.79
2445.38
2436.35
2423.72
2407.47
2387.61
2364.14
2337.06
2306.37
2272.07
2234.16
2192.64
2147.5
2098.76
2046.4
1874.09
1869.98
1866.01
1862.17
)


20
(
3651.61
3646.22
3630.06
3603.11
3565.39
3516.9
3457.62
3387.57
3306.74
3215.14
3112.75
2999.59
2875.65
2740.94
2595.44
2439.17
1924.86
1912.61
1900.76
1889.28
)


20
(
4809.98
4801.09
4774.43
4730
4667.79
4587.81
4490.05
4374.52
4241.22
4090.14
3921.29
3734.66
3530.26
3308.09
3068.14
2810.42
1962.23
1942.03
1922.48
1903.55
)


20
(
5909.83
5897.59
5860.85
5799.63
5713.91
5603.71
5469.01
5309.83
5126.15
4917.99
4685.33
4428.18
4146.54
3840.42
3509.8
3154.69
1986
1958.16
1931.23
1905.15
)


20
(
6934.14
6918.73
6872.5
6795.45
6687.58
6548.89
6379.38
6179.05
5947.9
5685.93
5393.14
5069.53
4715.09
4329.84
3913.77
3466.87
1996.12
1961.08
1927.19
1894.36
)


20
(
7867.03
7848.7
7793.7
7702.04
7573.72
7408.73
7207.08
6968.76
6693.78
6382.14
6033.83
5648.85
5227.21
4768.91
4273.94
3742.31
1992.68
1951
1910.68
1871.63
)


20
(
8693.99
8673.03
8610.13
8505.31
8358.55
8169.87
7939.26
7666.71
7352.24
6995.84
6597.5
6157.24
5675.04
5150.92
4584.86
3976.87
1975.96
1928.3
1882.19
1837.53
)


20
(
9402.16
9378.89
9309.09
9192.75
9029.88
8820.48
8564.54
8262.07
7913.06
7517.52
7075.44
6586.83
6051.69
5470.01
4841.79
4167.04
1946.41
1893.51
1842.33
1792.77
)


20
(
9980.49
9955.29
9879.68
9753.67
9577.26
9350.43
9073.21
8745.58
8367.54
7939.1
7460.25
6931
6351.34
5721.28
5040.81
4309.94
1904.6
1847.3
1791.87
1738.19
)


20
(
10420
10393.2
10313
10179.3
9992.13
9751.47
9457.32
9109.7
8708.6
8254.01
7745.95
7184.4
6569.37
5900.86
5178.87
4403.4
1851.3
1790.5
1731.69
1674.73
)


20
(
10713.7
10685.9
10602.3
10463
10268
10017.3
9710.89
9348.76
8930.92
8457.36
7928.09
7343.1
6702.4
6005.99
5253.87
4446.03
1787.4
1724.07
1662.81
1603.47
)


20
(
10857.2
10828.6
10743
10600.4
10400.6
10143.8
9829.97
9459.04
9031.04
8545.98
8003.85
7404.65
6748.39
6035.06
5264.66
4437.19
1713.97
1649.1
1586.35
1525.57
)


20
(
10848.1
10819.3
10733
10589.2
10387.9
10129.1
9812.72
9438.84
9007.44
8518.52
7972.08
7368.12
6706.64
5987.64
5211.11
4377.07
1632.21
1566.82
1503.57
1442.31
)


20
(
10686.6
10658.1
10572.5
10429.8
10230.1
9973.32
9659.45
9288.52
8860.52
8375.46
7833.32
7234.13
6577.86
5864.53
5094.13
4266.67
1543.44
1478.57
1415.82
1355.04
)


20
(
10375.5
10347.6
10264.1
10124.8
9929.79
9679.08
9372.66
9010.52
8592.68
8119.12
7589.84
7004.86
6364.16
5667.74
4915.62
4107.78
1449.14
1385.81
1324.54
1265.21
)


20
(
9919.56
9892.82
9812.6
9678.89
9491.71
9251.05
8956.9
8609.28
8208.17
7753.59
7245.52
6683.97
6068.94
5400.43
4678.43
3902.96
1350.84
1290.05
1231.24
1174.28
)


20
(
9325.97
9300.77
9225.16
9099.15
8922.73
8695.9
8418.68
8091.04
7713
7284.56
6805.71
6276.45
5696.79
5066.72
4386.25
3655.37
1250.02
1192.72
1137.29
1083.61
)


20
(
8603.69
8580.42
8510.62
8394.28
8231.41
8022
7766.06
7463.59
7114.58
6719.03
6276.95
5788.33
5253.18
4671.5
4043.27
3368.52
1147.87
1094.97
1043.79
994.235
)


20
(
7763.01
7742.05
7679.15
7574.32
7427.57
7238.88
7008.27
6735.72
6421.24
6064.84
5666.5
5226.23
4744.03
4219.9
3653.84
3045.85
1044.93
997.269
951.158
906.502
)


20
(
6814.99
6796.66
6741.66
6650
6521.67
6356.68
6155.03
5916.71
5641.72
5330.07
4981.75
4596.77
4175.13
3716.82
3221.84
2690.2
940.547
898.869
858.548
819.5
)


20
(
5770.07
5754.66
5708.43
5631.38
5523.5
5384.81
5215.29
5014.96
4783.8
4521.82
4229.02
3905.4
3550.96
3165.7
2749.62
2302.71
831.935
796.899
763.005
730.18
)


20
(
4636.88
4624.63
4587.89
4526.67
4440.95
4330.74
4196.04
4036.84
3853.16
3644.98
3412.32
3155.16
2873.51
2567.37
2236.74
1881.62
712.893
685.053
658.12
632.036
)


20
(
3420.54
3411.66
3384.99
3340.56
3278.35
3198.36
3100.6
2985.06
2851.75
2700.67
2531.81
2345.17
2140.76
1918.58
1678.62
1420.89
572.674
552.468
532.921
513.991
)


20
(
2125.96
2120.57
2104.4
2077.46
2039.73
1991.23
1931.95
1861.9
1781.06
1689.45
1587.06
1473.89
1349.94
1215.22
1069.72
913.435
399.109
386.857
375.004
363.526
)


20
(
772.69
770.884
765.467
756.437
743.796
727.543
707.678
684.201
657.112
626.412
592.099
554.175
512.639
467.492
418.732
366.361
194.005
189.9
185.928
182.081
)


20
(
2419.76
2417.97
2412.61
2403.68
2391.18
2375.1
2355.45
2332.23
2305.44
2275.07
2241.13
2203.62
2162.54
2117.88
2069.65
2017.84
1847.35
1843.29
1839.36
1835.55
)


20
(
3605.99
3600.66
3584.66
3558
3520.68
3472.7
3414.05
3344.74
3264.76
3174.12
3072.82
2960.85
2838.22
2704.92
2560.96
2406.34
1897.46
1885.34
1873.61
1862.25
)


20
(
4752.08
4743.29
4716.91
4672.94
4611.39
4532.25
4435.53
4321.22
4189.32
4039.84
3872.77
3688.11
3485.87
3266.03
3028.62
2773.61
1934.37
1914.38
1895.04
1876.31
)


20
(
5840.35
5828.23
5791.88
5731.31
5646.49
5537.45
5404.18
5246.67
5064.93
4858.96
4628.76
4374.33
4095.66
3792.76
3465.63
3114.27
1957.91
1930.36
1903.72
1877.91
)


20
(
6853.94
6838.7
6792.95
6716.72
6609.99
6472.76
6305.04
6106.82
5878.11
5618.9
5329.2
5009
4658.3
4277.11
3865.43
3423.24
1968.01
1933.34
1899.8
1867.33
)


20
(
7777.15
7759.01
7704.6
7613.9
7486.93
7323.69
7124.16
6888.36
6616.28
6307.92
5963.29
5582.37
5165.18
4711.71
4221.96
3695.94
1964.77
1923.53
1883.63
1845
)


20
(
8595.62
8574.88
8512.65
8408.93
8263.72
8077.03
7848.85
7579.18
7268.02
6915.38
6521.25
6085.63
5608.52
5089.92
4529.84
3928.26
1948.46
1901.3
1855.68
1811.49
)


20
(
9296.62
9273.6
9204.53
9089.42
8928.27
8721.08
8467.84
8168.55
7823.23
7431.86
6994.45
6510.99
5981.49
5405.94
4784.36
4116.72
1919.51
1867.17
1816.54
1767.5
)


20
(
9869.21
9844.28
9769.47
9644.79
9470.23
9245.8
8971.5
8647.32
8273.28
7849.35
7375.56
6851.89
6278.35
5654.93
4981.64
4258.47
1878.51
1821.82
1766.97
1713.86
)


20
(
10304.5
10278
10198.6
10066.4
9881.15
9643.02
9351.98
9008.03
8611.16
8161.37
7658.66
7103.04
6494.5
5833.04
5118.67
4351.38
1826.19
1766.04
1707.85
1651.49
)


20
(
10595.6
10568
10485.4
10347.5
10154.6
9906.54
9603.36
9245.04
8831.61
8363.04
7839.36
7260.54
6626.6
5937.54
5193.35
4394.03
1763.45
1700.79
1640.17
1581.46
)


20
(
10738.1
10709.8
10625.1
10484
10286.3
10032.3
9721.71
9354.69
8931.21
8451.26
7914.85
7321.97
6672.63
5966.82
5204.55
4385.82
1691.33
1627.14
1565.05
1504.91
)


20
(
10729.6
10701.2
10615.8
10473.5
10274.3
10018.2
9705.21
9335.28
8908.43
8424.67
7883.99
7286.4
6631.9
5920.48
5152.15
4326.91
1611
1546.3
1483.72
1423.1
)


20
(
10570.5
10542.3
10457.6
10316.5
10118.8
9864.74
9554.19
9187.17
8763.69
8283.74
7747.33
7154.45
6505.11
5799.3
5037.03
4218.29
1523.8
1459.61
1397.52
1337.38
)


20
(
10263.3
10235.8
10153.1
10015.3
9822.33
9574.27
9271.08
8912.77
8499.33
8030.76
7507.07
6928.26
6294.32
5605.25
4861.06
4061.74
1431.15
1368.49
1307.87
1249.16
)


20
(
9812.9
9786.44
9707.07
9574.78
9389.57
9151.44
8860.4
8516.44
8119.57
7669.78
7167.07
6611.44
6002.9
5341.44
4627.06
3859.77
1334.58
1274.42
1216.23
1159.88
)


20
(
9226.26
9201.32
9126.51
9001.83
8827.27
8602.84
8328.53
8004.36
7630.3
7206.38
6732.58
6208.91
5635.36
5011.94
4338.64
3615.48
1235.5
1178.81
1123.96
1070.84
)


20
(
8512.23
8489.21
8420.15
8305.04
8143.88
7936.69
7683.44
7384.16
7038.83
6647.46
6210.04
5726.58
5197.07
4621.52
3999.93
3332.29
1135.06
1082.72
1032.09
983.052
)


20
(
7680.97
7660.23
7597.99
7494.27
7349.07
7162.37
6934.19
6664.52
6353.36
6000.71
5606.57
5170.95
4693.84
4175.24
3615.15
3013.57
1033.76
986.601
940.976
896.791
)


20
(
6743.36
6725.22
6670.81
6580.11
6453.14
6289.89
6090.36
5854.55
5582.47
5274.1
4929.46
4548.54
4131.34
3677.87
3188.11
2662.08
930.888
889.649
849.754
811.117
)


20
(
5709.71
5694.46
5648.72
5572.48
5465.74
5328.51
5160.79
4962.56
4733.85
4474.63
4184.92
3864.72
3514.01
3132.82
2721.12
2278.93
823.668
789.002
755.466
722.987
)


20
(
4588.57
4576.45
4540.1
4479.52
4394.7
4285.66
4152.38
3994.86
3813.12
3607.14
3376.93
3122.48
2843.8
2540.89
2213.75
1862.37
705.977
678.43
651.781
625.973
)


20
(
3385.08
3376.29
3349.91
3305.94
3244.39
3165.24
3068.51
2954.2
2822.29
2672.8
2505.72
2321.06
2118.81
1898.97
1661.54
1406.52
567.257
547.265
527.924
509.194
)


20
(
2104.24
2098.91
2082.91
2056.25
2018.93
1970.94
1912.28
1842.97
1762.98
1672.34
1571.03
1459.05
1336.41
1203.11
1059.14
904.51
395.609
383.486
371.759
360.401
)


20
(
765.395
763.608
758.247
749.313
736.805
720.723
701.067
677.838
651.035
620.659
586.708
549.184
508.087
463.415
415.17
363.351
192.814
188.752
184.822
181.015
)


20
(
2460.53
2458.72
2453.29
2444.24
2431.57
2415.28
2395.37
2371.84
2344.69
2313.92
2279.53
2241.52
2199.89
2154.63
2105.76
2053.27
1880.5
1876.39
1872.41
1868.55
)


20
(
3662.73
3657.32
3641.12
3614.1
3576.28
3527.66
3468.23
3398
3316.96
3225.11
3122.46
3009.01
2884.74
2749.67
2603.8
2447.12
1931.47
1919.19
1907.3
1895.79
)


20
(
4824.16
4815.25
4788.52
4743.97
4681.6
4601.41
4503.4
4387.57
4253.92
4102.44
3933.15
3746.04
3541.1
3318.35
3077.77
2819.37
1968.97
1948.71
1929.12
1910.14
)


20
(
5926.91
5914.63
5877.8
5816.42
5730.48
5619.98
5484.94
5325.34
5141.18
4932.47
4699.21
4441.39
4159.01
3852.08
3520.6
3164.56
1992.82
1964.91
1937.91
1911.76
)


20
(
6953.9
6938.45
6892.1
6814.85
6706.7
6567.64
6397.69
6196.84
5965.08
5702.42
5408.87
5084.41
4729.05
4342.79
3925.63
3477.56
2002.96
1967.84
1933.85
1900.94
)


20
(
7889.21
7870.83
7815.69
7723.79
7595.13
7429.71
7227.53
6988.59
6712.89
6400.43
6051.21
5665.23
5242.49
4782.99
4286.72
3753.7
1999.5
1957.71
1917.29
1878.14
)


20
(
8718.29
8697.27
8634.21
8529.12
8381.98
8192.8
7961.58
7688.33
7373.03
7015.7
6616.32
6174.91
5691.45
5165.96
4598.42
3988.84
1982.71
1934.92
1888.69
1843.91
)


20
(
9428.25
9404.93
9334.94
9218.3
9055.01
8845.06
8588.45
8285.19
7935.27
7538.69
7095.46
6605.57
6069.03
5485.82
4855.97
4179.45
1953.01
1899.98
1848.67
1798.98
)


20
(
10008
9982.76
9906.96
9780.62
9603.74
9376.32
9098.37
8769.88
8390.86
7961.3
7481.2
6950.56
6369.39
5737.68
5055.43
4322.65
1911.03
1853.58
1798
1744.18
)


20
(
10448.6
10421.8
10341.3
10207.3
10019.6
9778.31
9483.4
9134.87
8732.72
8276.95
7767.55
7204.54
6587.9
5917.65
5193.77
4416.27
1857.5
1796.54
1737.58
1680.47
)


20
(
10743
10715.1
10631.3
10491.6
10296.1
10044.8
9737.53
9374.45
8955.52
8480.72
7950.07
7363.55
6721.18
6022.95
5268.86
4458.91
1793.33
1729.84
1668.41
1608.92
)


20
(
10886.7
10858.1
10772.2
10629.2
10429
10171.5
9856.8
9484.9
9055.79
8569.45
8025.91
7425.14
6767.16
6051.97
5279.56
4449.93
1719.59
1654.55
1591.63
1530.7
)


20
(
10877.4
10848.6
10762.1
10617.9
10416.1
10156.6
9839.37
9464.51
9031.99
8541.79
7993.92
7388.38
6725.17
6004.29
5225.74
4389.52
1637.48
1571.92
1508.5
1447.08
)


20
(
10715.4
10686.8
10601
10458
10257.7
10000.2
9685.56
9313.66
8884.54
8398.21
7854.66
7253.89
6595.91
5880.72
5108.31
4278.68
1548.34
1483.3
1420.38
1359.44
)


20
(
10403.3
10375.4
10291.6
10151.9
9956.44
9705.08
9397.86
9034.78
8615.84
8141.04
7610.38
7023.87
6381.49
5683.26
4929.17
4119.22
1453.63
1390.14
1328.71
1269.22
)


20
(
9946.02
9919.21
9838.78
9704.73
9517.06
9275.76
8980.85
8632.32
8230.16
7774.39
7264.99
6701.97
6085.34
5415.08
4691.2
3913.7
1354.91
1293.96
1234.99
1177.88
)


20
(
9350.71
9325.44
9249.64
9123.3
8946.42
8719
8441.05
8112.56
7733.53
7303.96
6823.86
6293.22
5712.05
5080.33
4398.08
3665.29
1253.65
1196.21
1140.63
1086.81
)


20
(
8626.38
8603.06
8533.07
8416.43
8253.13
8043.18
7786.57
7483.3
7133.38
6736.8
6293.56
5803.67
5267.12
4683.91
4054.05
3377.53
1151.08
1098.04
1046.73
997.041
)


20
(
7783.37
7762.35
7699.29
7594.19
7447.05
7257.87
7026.66
6753.4
6438.1
6080.76
5681.38
5239.96
4756.5
4231
3663.46
3053.88
1047.73
999.946
953.715
908.942
)


20
(
6832.77
6814.39
6759.25
6667.35
6538.69
6373.27
6171.08
5932.14
5656.43
5343.97
4994.74
4608.75
4186.01
3726.5
3230.23
2697.2
942.973
901.185
860.759
821.609
)


20
(
5785.06
5769.6
5723.25
5646
5537.84
5398.79
5228.83
5027.97
4796.21
4533.55
4239.98
3915.52
3560.15
3173.88
2756.71
2308.64
834.013
798.886
764.903
731.993
)


20
(
4648.88
4636.6
4599.77
4538.38
4452.44
4341.94
4206.88
4047.27
3863.11
3654.39
3421.12
3163.29
2880.9
2573.96
2242.47
1886.41
714.636
686.723
659.72
633.568
)


20
(
3429.36
3420.45
3393.71
3349.16
3286.79
3206.59
3108.58
2992.74
2859.08
2707.6
2538.3
2351.18
2146.23
1923.47
1682.88
1424.47
574.044
553.785
534.187
515.208
)


20
(
2131.36
2125.96
2109.75
2082.73
2044.91
1996.28
1936.85
1866.61
1785.56
1693.71
1591.05
1477.59
1353.32
1218.24
1072.36
915.668
399.997
387.713
375.829
364.321
)


20
(
774.502