/*--------------------------------*- C++ -*----------------------------------*\
| =========                 |                                                 |
| \\      /  F ield         | OpenFOAM: The Open Source CFD Toolbox           |
|  \\    /   O peration     | Version:  2212                                  |
|   \\  /    A nd           | Website:  www.openfoam.com                      |
|    \\/     M anipulation  |                                                 |
\*---------------------------------------------------------------------------*/
FoamFile
{
    version     2.0;
    format      ascii;
    arch        "LSB;label=32;scalar=64";
    class       volScalarField;
    location    "25/neutroRegion";
    object      TCool;
}
// * * * * * * * * * * * * * * * * * * * * * * * * * * * * * * * * * * * * * //

dimensions      [0 0 0 1 0 0 0];

internalField   nonuniform List<scalar> 
350
(
83.2886
83.2891
83.2896
83.29
83.2905
83.291
83.2915
83.292
83.2925
83.293
83.2934
83.2939
83.2944
83.2949
83.2954
83.2958
83.2963
83.2968
83.2973
83.2977
83.2982
83.2987
83.2991
83.2996
83.3
83.2886
83.2891
83.2896
83.29
83.2905
83.291
83.2915
83.292
83.2925
83.293
83.2934
83.2939
83.2944
83.2949
83.2954
83.2958
83.2963
83.2968
83.2973
83.2977
83.2982
83.2987
83.2991
83.2996
83.3
1719.57
1716.9
1702.13
1675.45
1637.2
1587.85
1527.99
1458.35
1379.77
1293.24
1199.9
1101.05
998.202
893.058
787.51
683.558
583.184
488.23
400.312
320.812
250.951
191.903
144.839
110.805
90.3512
1745.38
1743
1728.3
1701.49
1662.9
1613
1552.4
1481.83
1402.14
1314.33
1219.54
1119.09
1014.5
907.508
800.033
694.132
591.853
495.101
405.544
324.603
253.52
193.482
145.672
111.141
90.423
1715.37
1712.67
1697.9
1671.26
1633.08
1583.84
1524.11
1454.63
1376.24
1289.93
1196.83
1098.25
995.68
890.834
785.594
681.949
581.873
487.198
399.531
320.251
250.574
191.673
144.718
110.756
90.3398
1739.58
1737.12
1722.39
1695.59
1657.07
1607.29
1546.85
1476.47
1397.03
1309.5
1215.04
1114.95
1010.76
904.183
797.147
691.692
589.85
493.512
404.334
323.725
252.924
193.116
145.479
111.063
90.4065
1739.58
1737.12
1722.39
1695.59
1657.07
1607.29
1546.85
1476.47
1397.03
1309.5
1215.04
1114.95
1010.76
904.183
797.147
691.692
589.85
493.512
404.334
323.725
252.924
193.116
145.479
111.063
90.4065
1715.37
1712.67
1697.9
1671.26
1633.08
1583.84
1524.11
1454.63
1376.24
1289.93
1196.83
1098.25
995.681
890.835
785.595
681.949
581.874
487.199
399.532
320.251
250.574
191.673
144.718
110.756
90.3398
1745.38
1743
1728.3
1701.49
1662.9
1613
1552.4
1481.83
1402.14
1314.33
1219.54
1119.09
1014.5
907.508
800.033
694.132
591.853
495.101
405.544
324.603
253.52
193.482
145.672
111.141
90.423
1719.57
1716.9
1702.13
1675.45
1637.2
1587.85
1527.99
1458.35
1379.77
1293.24
1199.9
1101.05
998.202
893.058
787.51
683.558
583.184
488.23
400.312
320.812
250.951
191.903
144.839
110.805
90.3512
1739.58
1737.12
1722.39
1695.59
1657.07
1607.29
1546.85
1476.47
1397.03
1309.5
1215.04
1114.95
1010.76
904.183
797.147
691.692
589.85
493.512
404.334
323.725
252.924
193.116
145.479
111.063
90.4065
1715.37
1712.67
1697.9
1671.26
1633.08
1583.84
1524.11
1454.63
1376.24
1289.93
1196.83
1098.25
995.68
890.834
785.594
681.948
581.873
487.198
399.531
320.251
250.574
191.673
144.718
110.756
90.3398
1715.37
1712.67
1697.9
1671.26
1633.08
1583.84
1524.11
1454.63
1376.24
1289.93
1196.83
1098.25
995.681
890.835
785.595
681.949
581.873
487.199
399.532
320.251
250.574
191.673
144.718
110.756
90.3397
1739.58
1737.12
1722.39
1695.59
1657.07
1607.29
1546.85
1476.47
1397.03
1309.5
1215.04
1114.95
1010.76
904.183
797.147
691.692
589.85
493.512
404.334
323.725
252.924
193.116
145.479
111.063
90.4065
)
;

boundaryField
{
    outletCentralUnloaded
    {
        type            zeroGradient;
    }
    inletCentralUnloaded
    {
        type            zeroGradient;
    }
    outletFuelElement
    {
        type            zeroGradient;
    }
    inletFuelElement
    {
        type            zeroGradient;
    }
    defaultFaces
    {
        type            zeroGradient;
    }
}


// ************************************************************************* //
