/*--------------------------------*- C++ -*----------------------------------*\
| =========                 |                                                 |
| \\      /  F ield         | OpenFOAM: The Open Source CFD Toolbox           |
|  \\    /   O peration     | Version:  2212                                  |
|   \\  /    A nd           | Website:  www.openfoam.com                      |
|    \\/     M anipulation  |                                                 |
\*---------------------------------------------------------------------------*/
FoamFile
{
    version     2.0;
    format      ascii;
    arch        "LSB;label=32;scalar=64";
    class       volScalarField;
    location    "33/neutroRegion";
    object      prec4;
}
// * * * * * * * * * * * * * * * * * * * * * * * * * * * * * * * * * * * * * //

dimensions      [0 -3 0 0 0 0 0];

internalField   nonuniform List<scalar> 
350
(
0
0
0
0
0
0
0
0
0
0
0
0
0
0
0
0
0
0
0
0
0
0
0
0
0
0
0
0
0
0
0
0
0
0
0
0
0
0
0
0
0
0
0
0
0
0
0
0
0
0
1.0814e+16
3.22713e+16
5.32197e+16
7.33288e+16
9.22814e+16
1.09779e+17
1.25545e+17
1.39331e+17
1.50919e+17
1.60128e+17
1.66811e+17
1.70864e+17
1.72222e+17
1.70864e+17
1.66811e+17
1.60128e+17
1.50919e+17
1.39331e+17
1.25545e+17
1.09779e+17
9.22814e+16
7.33288e+16
5.32197e+16
3.22713e+16
1.08139e+16
1.09376e+16
3.26403e+16
5.38282e+16
7.41671e+16
9.33365e+16
1.11034e+17
1.2698e+17
1.40924e+17
1.52645e+17
1.61959e+17
1.68718e+17
1.72817e+17
1.74191e+17
1.72817e+17
1.68718e+17
1.61959e+17
1.52645e+17
1.40924e+17
1.2698e+17
1.11034e+17
9.33365e+16
7.41671e+16
5.38282e+16
3.26403e+16
1.09376e+16
1.07943e+16
3.22126e+16
5.31228e+16
7.31953e+16
9.21134e+16
1.09579e+17
1.25316e+17
1.39077e+17
1.50645e+17
1.59836e+17
1.66508e+17
1.70553e+17
1.71908e+17
1.70553e+17
1.66508e+17
1.59836e+17
1.50645e+17
1.39077e+17
1.25316e+17
1.09579e+17
9.21134e+16
7.31953e+16
5.31228e+16
3.22126e+16
1.07943e+16
1.09091e+16
3.25553e+16
5.36881e+16
7.39741e+16
9.30936e+16
1.10745e+17
1.2665e+17
1.40557e+17
1.52248e+17
1.61537e+17
1.68279e+17
1.72368e+17
1.73738e+17
1.72368e+17
1.68279e+17
1.61537e+17
1.52248e+17
1.40557e+17
1.2665e+17
1.10745e+17
9.30936e+16
7.39741e+16
5.36881e+16
3.25553e+16
1.09091e+16
1.09091e+16
3.25553e+16
5.36881e+16
7.39741e+16
9.30936e+16
1.10745e+17
1.2665e+17
1.40557e+17
1.52248e+17
1.61537e+17
1.68279e+17
1.72368e+17
1.73738e+17
1.72368e+17
1.68279e+17
1.61537e+17
1.52248e+17
1.40557e+17
1.2665e+17
1.10745e+17
9.30936e+16
7.39741e+16
5.36881e+16
3.25553e+16
1.09091e+16
1.07943e+16
3.22126e+16
5.31228e+16
7.31953e+16
9.21134e+16
1.09579e+17
1.25316e+17
1.39077e+17
1.50645e+17
1.59836e+17
1.66508e+17
1.70553e+17
1.71908e+17
1.70553e+17
1.66508e+17
1.59836e+17
1.50645e+17
1.39077e+17
1.25316e+17
1.09579e+17
9.21134e+16
7.31953e+16
5.31228e+16
3.22126e+16
1.07943e+16
1.09376e+16
3.26403e+16
5.38282e+16
7.41671e+16
9.33364e+16
1.11034e+17
1.2698e+17
1.40924e+17
1.52645e+17
1.61959e+17
1.68718e+17
1.72817e+17
1.74191e+17
1.72817e+17
1.68718e+17
1.61959e+17
1.52645e+17
1.40924e+17
1.2698e+17
1.11034e+17
9.33364e+16
7.41671e+16
5.38282e+16
3.26403e+16
1.09376e+16
1.0814e+16
3.22713e+16
5.32197e+16
7.33288e+16
9.22814e+16
1.09779e+17
1.25545e+17
1.39331e+17
1.50919e+17
1.60128e+17
1.66811e+17
1.70864e+17
1.72222e+17
1.70864e+17
1.66811e+17
1.60128e+17
1.50919e+17
1.39331e+17
1.25545e+17
1.09779e+17
9.22814e+16
7.33288e+16
5.32197e+16
3.22713e+16
1.0814e+16
1.09091e+16
3.25553e+16
5.36881e+16
7.39741e+16
9.30936e+16
1.10745e+17
1.2665e+17
1.40557e+17
1.52248e+17
1.61537e+17
1.68279e+17
1.72368e+17
1.73738e+17
1.72368e+17
1.68279e+17
1.61537e+17
1.52248e+17
1.40557e+17
1.2665e+17
1.10745e+17
9.30936e+16
7.39741e+16
5.36881e+16
3.25553e+16
1.09091e+16
1.07943e+16
3.22126e+16
5.31228e+16
7.31953e+16
9.21134e+16
1.09579e+17
1.25316e+17
1.39077e+17
1.50645e+17
1.59836e+17
1.66508e+17
1.70553e+17
1.71908e+17
1.70553e+17
1.66508e+17
1.59836e+17
1.50645e+17
1.39077e+17
1.25316e+17
1.09579e+17
9.21134e+16
7.31953e+16
5.31228e+16
3.22126e+16
1.07943e+16
1.07943e+16
3.22126e+16
5.31228e+16
7.31953e+16
9.21134e+16
1.09579e+17
1.25316e+17
1.39077e+17
1.50645e+17
1.59836e+17
1.66508e+17
1.70553e+17
1.71908e+17
1.70553e+17
1.66508e+17
1.59836e+17
1.50645e+17
1.39077e+17
1.25316e+17
1.09579e+17
9.21134e+16
7.31953e+16
5.31228e+16
3.22126e+16
1.07943e+16
1.09091e+16
3.25553e+16
5.36881e+16
7.39741e+16
9.30936e+16
1.10745e+17
1.2665e+17
1.40557e+17
1.52248e+17
1.61537e+17
1.68279e+17
1.72368e+17
1.73738e+17
1.72368e+17
1.68279e+17
1.61537e+17
1.52248e+17
1.40557e+17
1.2665e+17
1.10745e+17
9.30936e+16
7.39741e+16
5.36881e+16
3.25553e+16
1.09091e+16
)
;

boundaryField
{
    outletCentralUnloaded
    {
        type            zeroGradient;
    }
    inletCentralUnloaded
    {
        type            zeroGradient;
    }
    outletFuelElement
    {
        type            zeroGradient;
    }
    inletFuelElement
    {
        type            zeroGradient;
    }
    defaultFaces
    {
        type            zeroGradient;
    }
}


// ************************************************************************* //
