/*--------------------------------*- C++ -*----------------------------------*\
| =========                 |                                                 |
| \\      /  F ield         | OpenFOAM: The Open Source CFD Toolbox           |
|  \\    /   O peration     | Version:  2212                                  |
|   \\  /    A nd           | Website:  www.openfoam.com                      |
|    \\/     M anipulation  |                                                 |
\*---------------------------------------------------------------------------*/
FoamFile
{
    version     2.0;
    format      ascii;
    arch        "LSB;label=32;scalar=64";
    class       volScalarField;
    location    "33/neutroRegion";
    object      TCool;
}
// * * * * * * * * * * * * * * * * * * * * * * * * * * * * * * * * * * * * * //

dimensions      [0 0 0 1 0 0 0];

internalField   nonuniform List<scalar> 
350
(
83.2888
83.2892
83.2897
83.2902
83.2906
83.2911
83.2916
83.2921
83.2926
83.2931
83.2936
83.2941
83.2945
83.295
83.2955
83.296
83.2964
83.2969
83.2973
83.2978
83.2982
83.2987
83.2991
83.2996
83.3
83.2888
83.2892
83.2897
83.2902
83.2906
83.2911
83.2916
83.2921
83.2926
83.2931
83.2936
83.2941
83.2945
83.295
83.2955
83.296
83.2964
83.2969
83.2973
83.2978
83.2982
83.2987
83.2991
83.2996
83.3
1796.59
1791.61
1774.26
1744.75
1703.44
1650.8
1587.45
1514.14
1431.75
1341.26
1243.85
1140.81
1033.69
924.211
814.328
706.117
601.658
502.888
411.499
328.922
256.4
195.129
146.325
111.119
90.1617
1824.16
1819.42
1802.1
1772.4
1730.67
1677.42
1613.26
1538.95
1455.36
1363.51
1264.56
1159.85
1050.9
939.479
827.571
717.307
610.835
510.163
417.04
332.938
259.123
196.805
147.21
111.475
90.2376
1792.11
1787.11
1769.77
1740.31
1699.08
1646.56
1583.36
1510.23
1428.03
1337.78
1240.61
1137.86
1031.03
921.866
812.306
704.419
600.274
501.799
410.675
328.329
256.002
194.886
146.197
111.066
90.1495
1817.96
1813.16
1795.81
1766.14
1724.5
1671.37
1607.39
1533.29
1449.97
1358.42
1259.82
1155.48
1046.94
935.965
824.518
714.724
608.714
508.481
415.758
332.007
258.491
196.416
147.004
111.392
90.2201
1817.96
1813.16
1795.81
1766.14
1724.5
1671.37
1607.39
1533.29
1449.97
1358.42
1259.82
1155.48
1046.94
935.965
824.519
714.724
608.714
508.481
415.758
332.007
258.491
196.416
147.004
111.392
90.2201
1792.11
1787.11
1769.77
1740.32
1699.08
1646.56
1583.36
1510.23
1428.03
1337.78
1240.62
1137.86
1031.03
921.868
812.307
704.42
600.275
501.799
410.676
328.33
256.002
194.886
146.197
111.066
90.1495
1824.16
1819.42
1802.09
1772.4
1730.67
1677.42
1613.26
1538.95
1455.36
1363.51
1264.56
1159.85
1050.9
939.479
827.571
717.307
610.835
510.163
417.041
332.938
259.123
196.805
147.21
111.475
90.2376
1796.59
1791.61
1774.26
1744.75
1703.44
1650.8
1587.45
1514.14
1431.75
1341.26
1243.85
1140.81
1033.69
924.211
814.328
706.117
601.658
502.888
411.499
328.922
256.4
195.129
146.325
111.119
90.1617
1817.96
1813.16
1795.81
1766.14
1724.5
1671.37
1607.39
1533.29
1449.97
1358.42
1259.82
1155.48
1046.94
935.965
824.518
714.724
608.714
508.481
415.758
332.007
258.491
196.416
147.004
111.392
90.2201
1792.11
1787.11
1769.77
1740.31
1699.08
1646.56
1583.36
1510.23
1428.03
1337.78
1240.61
1137.86
1031.03
921.866
812.306
704.418
600.274
501.798
410.675
328.329
256.001
194.886
146.197
111.066
90.1495
1792.11
1787.11
1769.77
1740.32
1699.08
1646.56
1583.36
1510.23
1428.03
1337.78
1240.62
1137.86
1031.03
921.868
812.307
704.42
600.275
501.799
410.676
328.33
256.002
194.886
146.197
111.066
90.1496
1817.96
1813.16
1795.81
1766.14
1724.5
1671.37
1607.39
1533.29
1449.97
1358.42
1259.82
1155.48
1046.94
935.965
824.519
714.724
608.715
508.481
415.758
332.007
258.491
196.416
147.004
111.392
90.2201
)
;

boundaryField
{
    outletCentralUnloaded
    {
        type            zeroGradient;
    }
    inletCentralUnloaded
    {
        type            zeroGradient;
    }
    outletFuelElement
    {
        type            zeroGradient;
    }
    inletFuelElement
    {
        type            zeroGradient;
    }
    defaultFaces
    {
        type            zeroGradient;
    }
}


// ************************************************************************* //
