/*--------------------------------*- C++ -*----------------------------------*\
| =========                 |                                                 |
| \\      /  F ield         | OpenFOAM: The Open Source CFD Toolbox           |
|  \\    /   O peration     | Version:  2212                                  |
|   \\  /    A nd           | Website:  www.openfoam.com                      |
|    \\/     M anipulation  |                                                 |
\*---------------------------------------------------------------------------*/
FoamFile
{
    version     2.0;
    format      ascii;
    arch        "LSB;label=32;scalar=64";
    class       volScalarField;
    location    "27/fluidRegion";
    object      alphat;
}
// * * * * * * * * * * * * * * * * * * * * * * * * * * * * * * * * * * * * * //

dimensions      [1 -1 -1 0 0 0 0];

internalField   nonuniform List<scalar> 
350
(
0.0025852
0.0025852
0.0025852
0.0025852
0.0025852
0.00258521
0.00258521
0.00258522
0.00258523
0.00258524
0.00258527
0.0025853
0.00258536
0.00258545
0.00258558
0.00258578
0.00258609
0.00258656
0.00258729
0.00258839
0.00259008
0.00259265
0.00259659
0.00260261
0.00261181
0.0025852
0.0025852
0.0025852
0.0025852
0.0025852
0.00258521
0.00258521
0.00258522
0.00258523
0.00258524
0.00258527
0.0025853
0.00258536
0.00258545
0.00258558
0.00258578
0.00258609
0.00258656
0.00258729
0.00258839
0.00259008
0.00259265
0.00259659
0.00260261
0.00261181
0.000891873
0.000879896
0.000868259
0.000856496
0.000844499
0.000832162
0.000819382
0.000806064
0.000792127
0.000777514
0.000762195
0.00074618
0.000729509
0.000712246
0.000694465
0.000676262
0.000657829
0.000639659
0.000622988
0.000610708
0.000609201
0.000631532
0.000699347
0.000828664
0.000994029
0.000884238
0.000872269
0.000860661
0.000848933
0.00083698
0.000824694
0.000811973
0.00079872
0.000784853
0.000770315
0.000755079
0.00073916
0.000722607
0.000705494
0.000687907
0.000669948
0.000651808
0.000633967
0.000617639
0.000605695
0.000604503
0.000627177
0.000695576
0.000826127
0.000993348
0.000893093
0.000881105
0.00086946
0.000857687
0.000845678
0.000833327
0.000820533
0.000807201
0.000793248
0.000778618
0.000763281
0.000747245
0.00073055
0.000713257
0.000695438
0.000677189
0.000658703
0.000640474
0.00062374
0.000611397
0.000609828
0.000632098
0.000699829
0.000828995
0.000994155
0.000885992
0.000874025
0.000862413
0.00085068
0.000838719
0.000826423
0.00081369
0.000800423
0.000786541
0.000771985
0.000756731
0.000740789
0.000724208
0.00070706
0.000689428
0.000671412
0.000653204
0.000635287
0.00061888
0.000606857
0.000605592
0.000628187
0.000696452
0.000826717
0.000993505
0.000885992
0.000874025
0.000862413
0.00085068
0.000838719
0.000826423
0.00081369
0.000800423
0.000786541
0.000771985
0.000756731
0.000740789
0.000724208
0.00070706
0.000689428
0.000671412
0.000653204
0.000635287
0.00061888
0.000606857
0.000605592
0.000628187
0.000696452
0.000826718
0.000993507
0.000893093
0.000881105
0.00086946
0.000857686
0.000845677
0.000833327
0.000820533
0.0008072
0.000793248
0.000778617
0.00076328
0.000747244
0.000730549
0.000713256
0.000695437
0.000677188
0.000658702
0.000640473
0.000623739
0.000611395
0.000609825
0.000632094
0.000699824
0.000828989
0.000994148
0.000884238
0.000872269
0.000860661
0.000848933
0.00083698
0.000824694
0.000811973
0.00079872
0.000784853
0.000770315
0.000755079
0.00073916
0.000722607
0.000705494
0.000687907
0.000669948
0.000651808
0.000633967
0.000617639
0.000605695
0.000604503
0.000627177
0.000695576
0.000826128
0.000993349
0.000891872
0.000879896
0.000868259
0.000856497
0.0008445
0.000832162
0.000819382
0.000806064
0.000792128
0.000777514
0.000762195
0.00074618
0.00072951
0.000712246
0.000694465
0.000676262
0.000657829
0.000639659
0.000622987
0.000610706
0.000609197
0.000631526
0.000699336
0.000828646
0.000994002
0.000885992
0.000874025
0.000862413
0.00085068
0.000838719
0.000826423
0.00081369
0.000800423
0.000786541
0.000771985
0.000756731
0.000740789
0.000724208
0.00070706
0.000689428
0.000671412
0.000653204
0.000635287
0.00061888
0.000606857
0.000605592
0.000628186
0.000696449
0.000826713
0.000993499
0.000893093
0.000881105
0.00086946
0.000857687
0.000845678
0.000833328
0.000820534
0.000807201
0.000793248
0.000778618
0.000763281
0.000747245
0.00073055
0.000713257
0.000695438
0.000677189
0.000658703
0.000640475
0.000623741
0.000611399
0.000609833
0.000632107
0.000699846
0.000829024
0.000994196
0.000893093
0.000881105
0.00086946
0.000857686
0.000845677
0.000833327
0.000820533
0.0008072
0.000793248
0.000778617
0.00076328
0.000747244
0.000730549
0.000713256
0.000695437
0.000677188
0.000658702
0.000640472
0.000623738
0.000611394
0.000609825
0.000632094
0.000699825
0.000828991
0.000994154
0.000885992
0.000874025
0.000862413
0.00085068
0.000838719
0.000826423
0.00081369
0.000800423
0.000786541
0.000771986
0.000756731
0.000740789
0.000724208
0.00070706
0.000689428
0.000671412
0.000653204
0.000635286
0.000618878
0.000606855
0.000605588
0.000628179
0.000696436
0.000826691
0.000993468
)
;

boundaryField
{
    outletCentralUnloaded
    {
        type            zeroGradient;
    }
    inletCentralUnloaded
    {
        type            zeroGradient;
    }
    outletFuelElement
    {
        type            zeroGradient;
    }
    inletFuelElement
    {
        type            zeroGradient;
    }
    defaultFaces
    {
        type            zeroGradient;
    }
    baffle_master
    {
        type            calculated;
        value           nonuniform List<scalar> 
150
(
0.0025852
0.0025852
0.0025852
0.0025852
0.0025852
0.0025852
0.0025852
0.0025852
0.0025852
0.0025852
0.0025852
0.0025852
0.0025852
0.0025852
0.0025852
0.00258521
0.00258521
0.00258521
0.00258521
0.00258521
0.00258521
0.00258522
0.00258522
0.00258522
0.00258523
0.00258523
0.00258523
0.00258524
0.00258524
0.00258524
0.00258527
0.00258527
0.00258527
0.0025853
0.0025853
0.0025853
0.00258536
0.00258536
0.00258536
0.00258545
0.00258545
0.00258545
0.00258558
0.00258558
0.00258558
0.00258578
0.00258578
0.00258578
0.00258609
0.00258609
0.00258609
0.00258656
0.00258656
0.00258656
0.00258729
0.00258729
0.00258729
0.00258839
0.00258839
0.00258839
0.00259008
0.00259008
0.00259008
0.00259265
0.00259265
0.00259265
0.00259659
0.00259659
0.00259659
0.00260261
0.00260261
0.00260261
0.00261181
0.00261181
0.00261181
0.0025852
0.0025852
0.0025852
0.0025852
0.0025852
0.0025852
0.0025852
0.0025852
0.0025852
0.0025852
0.0025852
0.0025852
0.0025852
0.0025852
0.0025852
0.00258521
0.00258521
0.00258521
0.00258521
0.00258521
0.00258521
0.00258522
0.00258522
0.00258522
0.00258523
0.00258523
0.00258523
0.00258524
0.00258524
0.00258524
0.00258527
0.00258527
0.00258527
0.0025853
0.0025853
0.0025853
0.00258536
0.00258536
0.00258536
0.00258545
0.00258545
0.00258545
0.00258558
0.00258558
0.00258558
0.00258578
0.00258578
0.00258578
0.00258609
0.00258609
0.00258609
0.00258656
0.00258656
0.00258656
0.00258729
0.00258729
0.00258729
0.00258839
0.00258839
0.00258839
0.00259008
0.00259008
0.00259008
0.00259265
0.00259265
0.00259265
0.00259659
0.00259659
0.00259659
0.00260261
0.00260261
0.00260261
0.00261181
0.00261181
0.00261181
)
;
    }
    baffle_slave
    {
        type            calculated;
        value           nonuniform List<scalar> 
150
(
0.000884238
0.000885992
0.000885992
0.000872269
0.000874025
0.000874025
0.000860661
0.000862413
0.000862413
0.000848933
0.00085068
0.00085068
0.00083698
0.000838719
0.000838719
0.000824694
0.000826423
0.000826423
0.000811973
0.00081369
0.00081369
0.00079872
0.000800423
0.000800423
0.000784853
0.000786541
0.000786541
0.000770315
0.000771985
0.000771986
0.000755079
0.000756731
0.000756731
0.00073916
0.000740789
0.000740789
0.000722607
0.000724208
0.000724208
0.000705494
0.00070706
0.00070706
0.000687907
0.000689428
0.000689428
0.000669948
0.000671412
0.000671412
0.000651808
0.000653204
0.000653204
0.000633967
0.000635287
0.000635286
0.000617639
0.00061888
0.000618878
0.000605695
0.000606857
0.000606855
0.000604503
0.000605592
0.000605588
0.000627177
0.000628187
0.000628179
0.000695576
0.000696452
0.000696436
0.000826127
0.000826717
0.000826691
0.000993348
0.000993505
0.000993468
0.000885992
0.000884238
0.000885992
0.000874025
0.000872269
0.000874025
0.000862413
0.000860661
0.000862413
0.00085068
0.000848933
0.00085068
0.000838719
0.00083698
0.000838719
0.000826423
0.000824694
0.000826423
0.00081369
0.000811973
0.00081369
0.000800423
0.00079872
0.000800423
0.000786541
0.000784853
0.000786541
0.000771985
0.000770315
0.000771985
0.000756731
0.000755079
0.000756731
0.000740789
0.00073916
0.000740789
0.000724208
0.000722607
0.000724208
0.00070706
0.000705494
0.00070706
0.000689428
0.000687907
0.000689428
0.000671412
0.000669948
0.000671412
0.000653204
0.000651808
0.000653204
0.000635287
0.000633967
0.000635287
0.00061888
0.000617639
0.00061888
0.000606857
0.000605695
0.000606857
0.000605592
0.000604503
0.000605592
0.000628187
0.000627177
0.000628186
0.000696452
0.000695576
0.000696449
0.000826718
0.000826128
0.000826713
0.000993507
0.000993349
0.000993499
)
;
    }
}


// ************************************************************************* //
