/*--------------------------------*- C++ -*----------------------------------*\
| =========                 |                                                 |
| \\      /  F ield         | OpenFOAM: The Open Source CFD Toolbox           |
|  \\    /   O peration     | Version:  2212                                  |
|   \\  /    A nd           | Website:  www.openfoam.com                      |
|    \\/     M anipulation  |                                                 |
\*---------------------------------------------------------------------------*/
FoamFile
{
    version     2.0;
    format      ascii;
    arch        "LSB;label=32;scalar=64";
    class       volScalarField;
    location    "27/fluidRegion";
    object      epsilon;
}
// * * * * * * * * * * * * * * * * * * * * * * * * * * * * * * * * * * * * * //

dimensions      [0 2 -3 0 0 0 0];

internalField   nonuniform List<scalar> 
350
(
66.9482
66.9316
66.9151
66.8986
66.8821
66.8656
66.8493
66.833
66.8168
66.8009
66.7852
66.77
66.7556
66.7422
66.7305
66.7213
66.716
66.7166
66.7262
66.7497
66.7942
66.871
66.9971
67.1985
67.5148
66.9482
66.9316
66.9151
66.8986
66.8821
66.8656
66.8493
66.833
66.8168
66.8009
66.7852
66.77
66.7556
66.7422
66.7305
66.7213
66.716
66.7166
66.7262
66.7497
66.7942
66.871
66.9971
67.1985
67.5148
6.66463e+06
6.16495e+06
5.602e+06
4.99189e+06
4.3598e+06
3.72924e+06
3.12093e+06
2.55206e+06
2.03581e+06
1.58114e+06
1.19285e+06
871805
615413
418201
272579
169723
100499
56302.3
29677.3
14650.5
6779.78
2998.69
1358.21
733.621
549.649
6.80573e+06
6.29688e+06
5.72341e+06
5.10133e+06
4.45643e+06
3.81272e+06
3.19143e+06
2.61017e+06
2.08247e+06
1.61753e+06
1.22032e+06
891817
629410
427554
278518
173284
102501
57347.7
30177.8
14866.2
6861.26
3024.66
1364.86
734.983
550.06
6.64147e+06
6.14327e+06
5.58214e+06
4.97405e+06
4.34411e+06
3.71573e+06
3.10956e+06
2.54273e+06
2.02835e+06
1.57534e+06
1.18848e+06
868634
613201
416725
271643
169161
100183
56136.3
29596.9
14615.1
6765.83
2993.82
1356.68
733.16
549.487
6.77449e+06
6.26761e+06
5.6964e+06
5.07693e+06
4.43483e+06
3.79402e+06
3.1756e+06
2.5971e+06
2.07195e+06
1.60931e+06
1.2141e+06
887276
626228
425424
277163
172471
102044
57108.6
30063.3
14816.9
6842.69
3018.79
1363.38
734.7
549.982
6.7745e+06
6.26761e+06
5.6964e+06
5.07693e+06
4.43483e+06
3.79402e+06
3.1756e+06
2.5971e+06
2.07195e+06
1.60931e+06
1.2141e+06
887276
626228
425424
277163
172471
102044
57108.6
30063.3
14816.9
6842.69
3018.79
1363.38
734.7
549.982
6.64149e+06
6.14328e+06
5.58215e+06
4.97406e+06
4.34412e+06
3.71574e+06
3.10957e+06
2.54273e+06
2.02835e+06
1.57535e+06
1.18848e+06
868635
613202
416726
271643
169162
100183
56136.3
29596.9
14615.1
6765.82
2993.81
1356.67
733.156
549.485
6.80573e+06
6.29688e+06
5.72341e+06
5.10133e+06
4.45643e+06
3.81272e+06
3.19143e+06
2.61017e+06
2.08247e+06
1.61753e+06
1.22032e+06
891817
629410
427554
278518
173284
102501
57347.7
30177.8
14866.2
6861.26
3024.66
1364.86
734.983
550.061
6.66463e+06
6.16495e+06
5.602e+06
4.99189e+06
4.3598e+06
3.72924e+06
3.12093e+06
2.55206e+06
2.03581e+06
1.58114e+06
1.19285e+06
871805
615413
418201
272579
169723
100499
56302.3
29677.3
14650.4
6779.77
2998.69
1358.2
733.616
549.644
6.77449e+06
6.26761e+06
5.6964e+06
5.07693e+06
4.43483e+06
3.79402e+06
3.1756e+06
2.5971e+06
2.07195e+06
1.60931e+06
1.2141e+06
887276
626228
425424
277163
172471
102044
57108.6
30063.3
14816.9
6842.69
3018.79
1363.38
734.699
549.98
6.64147e+06
6.14327e+06
5.58214e+06
4.97405e+06
4.34412e+06
3.71574e+06
3.10957e+06
2.54273e+06
2.02835e+06
1.57534e+06
1.18848e+06
868634
613201
416725
271643
169161
100183
56136.3
29596.9
14615.1
6765.83
2993.82
1356.69
733.165
549.493
6.64149e+06
6.14328e+06
5.58215e+06
4.97406e+06
4.34412e+06
3.71574e+06
3.10957e+06
2.54273e+06
2.02835e+06
1.57535e+06
1.18848e+06
868635
613202
416726
271643
169162
100183
56136.3
29596.9
14615.1
6765.82
2993.81
1356.67
733.156
549.486
6.77449e+06
6.26761e+06
5.6964e+06
5.07693e+06
4.43483e+06
3.79402e+06
3.1756e+06
2.5971e+06
2.07195e+06
1.60931e+06
1.2141e+06
887276
626228
425424
277163
172471
102044
57108.6
30063.3
14816.9
6842.68
3018.78
1363.37
734.693
549.974
)
;

boundaryField
{
    outletCentralUnloaded
    {
        type            zeroGradient;
    }
    inletCentralUnloaded
    {
        type            zeroGradient;
    }
    outletFuelElement
    {
        type            zeroGradient;
    }
    inletFuelElement
    {
        type            zeroGradient;
    }
    defaultFaces
    {
        type            zeroGradient;
    }
    baffle_master
    {
        type            zeroGradient;
    }
    baffle_slave
    {
        type            zeroGradient;
    }
}


// ************************************************************************* //
