/*--------------------------------*- C++ -*----------------------------------*\
| =========                 |                                                 |
| \\      /  F ield         | OpenFOAM: The Open Source CFD Toolbox           |
|  \\    /   O peration     | Version:  2212                                  |
|   \\  /    A nd           | Website:  www.openfoam.com                      |
|    \\/     M anipulation  |                                                 |
\*---------------------------------------------------------------------------*/
FoamFile
{
    version     2.0;
    format      ascii;
    arch        "LSB;label=32;scalar=64";
    class       volScalarField;
    location    "27/fluidRegion";
    object      heatFlux.structure;
}
// * * * * * * * * * * * * * * * * * * * * * * * * * * * * * * * * * * * * * //

dimensions      [1 0 -3 0 0 0 0];

internalField   nonuniform List<scalar> 
350
(
-258267
-258270
-258272
-258275
-258278
-258281
-258284
-258287
-258290
-258293
-258296
-258298
-258301
-258304
-258307
-258310
-258313
-258316
-258319
-258321
-258324
-258327
-258330
-258333
-258785
-258267
-258270
-258272
-258275
-258278
-258281
-258284
-258287
-258290
-258293
-258296
-258298
-258301
-258304
-258307
-258310
-258313
-258316
-258319
-258321
-258324
-258327
-258330
-258333
-258785
248253
1.11365e+06
1.95974e+06
2.77315e+06
3.54107e+06
4.2514e+06
4.89295e+06
5.45562e+06
5.93055e+06
6.3103e+06
6.5889e+06
6.762e+06
6.82689e+06
6.78257e+06
6.62976e+06
6.37083e+06
6.00985e+06
5.55246e+06
5.00588e+06
4.37896e+06
3.68199e+06
2.92711e+06
2.1283e+06
1.30109e+06
459105
249143
1.12446e+06
1.98025e+06
2.80301e+06
3.57977e+06
4.29829e+06
4.94724e+06
5.51641e+06
5.99686e+06
6.38104e+06
6.66291e+06
6.83807e+06
6.9038e+06
6.85907e+06
6.70461e+06
6.44284e+06
6.07784e+06
5.61533e+06
5.06259e+06
4.42858e+06
3.72368e+06
2.96017e+06
2.15221e+06
1.31554e+06
463946
248117
1.11193e+06
1.95647e+06
2.76839e+06
3.5349e+06
4.24393e+06
4.88429e+06
5.44592e+06
5.91998e+06
6.29902e+06
6.5771e+06
6.74987e+06
6.81462e+06
6.77037e+06
6.61782e+06
6.35935e+06
5.999e+06
5.54243e+06
4.99683e+06
4.37104e+06
3.67534e+06
2.92183e+06
2.12448e+06
1.29878e+06
458332
248917
1.12196e+06
1.97551e+06
2.79612e+06
3.57085e+06
4.28748e+06
4.93473e+06
5.50241e+06
5.9816e+06
6.36475e+06
6.64587e+06
6.82056e+06
6.88609e+06
6.84146e+06
6.68738e+06
6.42626e+06
6.06219e+06
5.60086e+06
5.04954e+06
4.41716e+06
3.71408e+06
2.95256e+06
2.1467e+06
1.31221e+06
462832
248917
1.12196e+06
1.97551e+06
2.79612e+06
3.57085e+06
4.28748e+06
4.93473e+06
5.50241e+06
5.9816e+06
6.36475e+06
6.64587e+06
6.82056e+06
6.88609e+06
6.84146e+06
6.68738e+06
6.42626e+06
6.06219e+06
5.60086e+06
5.04954e+06
4.41716e+06
3.71408e+06
2.95256e+06
2.14671e+06
1.31221e+06
462832
248117
1.11193e+06
1.95647e+06
2.76839e+06
3.5349e+06
4.24393e+06
4.88429e+06
5.44592e+06
5.91998e+06
6.29902e+06
6.5771e+06
6.74987e+06
6.81462e+06
6.77037e+06
6.61782e+06
6.35935e+06
5.999e+06
5.54243e+06
4.99683e+06
4.37104e+06
3.67534e+06
2.92183e+06
2.12448e+06
1.29878e+06
458333
249143
1.12446e+06
1.98026e+06
2.80301e+06
3.57977e+06
4.29828e+06
4.94724e+06
5.51641e+06
5.99686e+06
6.38104e+06
6.66291e+06
6.83807e+06
6.9038e+06
6.85907e+06
6.70461e+06
6.44284e+06
6.07784e+06
5.61533e+06
5.06259e+06
4.42858e+06
3.72368e+06
2.96017e+06
2.15221e+06
1.31554e+06
463946
248253
1.11365e+06
1.95974e+06
2.77315e+06
3.54107e+06
4.2514e+06
4.89295e+06
5.45562e+06
5.93055e+06
6.3103e+06
6.5889e+06
6.762e+06
6.82689e+06
6.78257e+06
6.62976e+06
6.37083e+06
6.00985e+06
5.55246e+06
5.00588e+06
4.37896e+06
3.68199e+06
2.92711e+06
2.1283e+06
1.30109e+06
459105
248917
1.12196e+06
1.97552e+06
2.79612e+06
3.57085e+06
4.28748e+06
4.93473e+06
5.50241e+06
5.9816e+06
6.36475e+06
6.64587e+06
6.82056e+06
6.88609e+06
6.84146e+06
6.68738e+06
6.42626e+06
6.06219e+06
5.60086e+06
5.04954e+06
4.41716e+06
3.71408e+06
2.95256e+06
2.14671e+06
1.31221e+06
462832
248117
1.11193e+06
1.95647e+06
2.76839e+06
3.5349e+06
4.24393e+06
4.88429e+06
5.44592e+06
5.91998e+06
6.29902e+06
6.5771e+06
6.74987e+06
6.81462e+06
6.77037e+06
6.61782e+06
6.35935e+06
5.999e+06
5.54243e+06
4.99683e+06
4.37104e+06
3.67534e+06
2.92183e+06
2.12448e+06
1.29878e+06
458333
248117
1.11193e+06
1.95647e+06
2.76839e+06
3.5349e+06
4.24393e+06
4.88429e+06
5.44592e+06
5.91998e+06
6.29902e+06
6.5771e+06
6.74987e+06
6.81462e+06
6.77037e+06
6.61782e+06
6.35935e+06
5.999e+06
5.54243e+06
4.99683e+06
4.37104e+06
3.67533e+06
2.92183e+06
2.12448e+06
1.29878e+06
458332
248917
1.12196e+06
1.97551e+06
2.79612e+06
3.57085e+06
4.28748e+06
4.93473e+06
5.50241e+06
5.9816e+06
6.36475e+06
6.64587e+06
6.82056e+06
6.88609e+06
6.84146e+06
6.68738e+06
6.42626e+06
6.06219e+06
5.60086e+06
5.04954e+06
4.41716e+06
3.71408e+06
2.95256e+06
2.14671e+06
1.31221e+06
462832
)
;

boundaryField
{
    outletCentralUnloaded
    {
        type            zeroGradient;
    }
    inletCentralUnloaded
    {
        type            zeroGradient;
    }
    outletFuelElement
    {
        type            zeroGradient;
    }
    inletFuelElement
    {
        type            zeroGradient;
    }
    defaultFaces
    {
        type            zeroGradient;
    }
    baffle_master
    {
        type            zeroGradient;
    }
    baffle_slave
    {
        type            zeroGradient;
    }
}


// ************************************************************************* //
