/*--------------------------------*- C++ -*----------------------------------*\
| =========                 |                                                 |
| \\      /  F ield         | OpenFOAM: The Open Source CFD Toolbox           |
|  \\    /   O peration     | Version:  2212                                  |
|   \\  /    A nd           | Website:  www.openfoam.com                      |
|    \\/     M anipulation  |                                                 |
\*---------------------------------------------------------------------------*/
FoamFile
{
    version     2.0;
    format      ascii;
    arch        "LSB;label=32;scalar=64";
    class       volScalarField;
    location    "27/fluidRegion";
    object      htc;
}
// * * * * * * * * * * * * * * * * * * * * * * * * * * * * * * * * * * * * * //

dimensions      [1 0 -3 -1 0 0 0];

internalField   nonuniform List<scalar> 
350
(
3100.86
3100.88
3100.9
3100.91
3100.93
3100.95
3100.96
3100.98
3101
3101.01
3101.03
3101.05
3101.06
3101.08
3101.1
3101.11
3101.13
3101.15
3101.16
3101.18
3101.2
3101.21
3101.23
3101.25
3106.67
3100.86
3100.88
3100.9
3100.91
3100.93
3100.95
3100.96
3100.98
3101
3101.01
3101.03
3101.05
3101.06
3101.08
3101.1
3101.11
3101.13
3101.15
3101.16
3101.18
3101.2
3101.21
3101.23
3101.25
3106.67
26313.6
26251.7
26092.9
25810.5
25405.9
24881.5
24240.2
23486.2
22624.8
21663.4
20611.8
19482.2
18289.3
17049.1
15776.7
14484.8
13183.3
11880.1
10585.2
9315.17
8098.57
6981.1
6030.84
5334.77
4902.38
26397.5
26335.4
26177.4
25895.1
25490.2
24964.9
24322
23565.6
22700.9
21735.2
20677.9
19541.5
18340.9
17092.5
15812.2
14513.3
13205.8
11897.6
10598.3
9324.07
8103.09
6981.39
6027.86
5330.76
4900.55
26300.2
26238
26079.1
25796.8
25392.3
24868.1
24227.1
23473.5
22612.6
21652
20601.2
19472.8
18281.1
17042.1
15770.9
14480.1
13179.4
11877
10582.7
9313.27
8097.25
6980.32
6030.45
5334.52
4902.24
26378.9
26316.9
26158.6
25876.3
25471.4
24946.2
24303.7
23547.8
22683.8
21719
20663
19528.1
18329.2
17082.7
15804.1
14506.9
13200.7
11893.7
10595.4
9322.12
8102.15
6981.42
6028.65
5331.8
4901.03
26378.9
26316.9
26158.6
25876.3
25471.4
24946.2
24303.7
23547.8
22683.8
21719
20663
19528.1
18329.2
17082.7
15804.1
14506.9
13200.7
11893.7
10595.4
9322.12
8102.15
6981.42
6028.65
5331.8
4901.03
26300.2
26238
26079.2
25796.8
25392.3
24868.1
24227.1
23473.5
22612.6
21652
20601.2
19472.8
18281.1
17042.1
15770.9
14480.1
13179.4
11877
10582.7
9313.27
8097.25
6980.31
6030.44
5334.51
4902.23
26397.5
26335.4
26177.4
25895.1
25490.2
24964.9
24322
23565.6
22700.9
21735.2
20677.9
19541.5
18340.9
17092.5
15812.2
14513.3
13205.8
11897.6
10598.3
9324.07
8103.09
6981.39
6027.86
5330.76
4900.55
26313.6
26251.7
26092.9
25810.5
25405.9
24881.5
24240.2
23486.2
22624.8
21663.4
20611.8
19482.2
18289.3
17049.1
15776.7
14484.8
13183.3
11880.1
10585.2
9315.17
8098.57
6981.1
6030.84
5334.77
4902.38
26378.9
26316.9
26158.6
25876.3
25471.4
24946.2
24303.7
23547.8
22683.8
21719
20663
19528.1
18329.2
17082.7
15804.1
14506.9
13200.7
11893.7
10595.4
9322.12
8102.15
6981.42
6028.65
5331.8
4901.03
26300.2
26238
26079.1
25796.8
25392.3
24868.1
24227.1
23473.5
22612.6
21652
20601.2
19472.8
18281.1
17042.1
15770.9
14480.1
13179.4
11877
10582.7
9313.27
8097.25
6980.32
6030.45
5334.52
4902.24
26300.2
26238
26079.2
25796.8
25392.3
24868.1
24227.1
23473.5
22612.6
21652
20601.2
19472.8
18281.1
17042.1
15770.9
14480.1
13179.4
11877
10582.7
9313.27
8097.25
6980.31
6030.44
5334.51
4902.23
26378.9
26316.9
26158.6
25876.3
25471.4
24946.2
24303.7
23547.8
22683.8
21719
20663
19528.1
18329.2
17082.7
15804.1
14506.9
13200.7
11893.7
10595.4
9322.12
8102.15
6981.42
6028.65
5331.8
4901.03
)
;

boundaryField
{
    outletCentralUnloaded
    {
        type            zeroGradient;
    }
    inletCentralUnloaded
    {
        type            zeroGradient;
    }
    outletFuelElement
    {
        type            zeroGradient;
    }
    inletFuelElement
    {
        type            zeroGradient;
    }
    defaultFaces
    {
        type            zeroGradient;
    }
    baffle_master
    {
        type            zeroGradient;
    }
    baffle_slave
    {
        type            zeroGradient;
    }
}


// ************************************************************************* //
