/*--------------------------------*- C++ -*----------------------------------*\
| =========                 |                                                 |
| \\      /  F ield         | OpenFOAM: The Open Source CFD Toolbox           |
|  \\    /   O peration     | Version:  2212                                  |
|   \\  /    A nd           | Website:  www.openfoam.com                      |
|    \\/     M anipulation  |                                                 |
\*---------------------------------------------------------------------------*/
FoamFile
{
    version     2.0;
    format      ascii;
    arch        "LSB;label=32;scalar=64";
    class       volTensorField;
    location    "27/fluidRegion";
    object      Kd;
}
// * * * * * * * * * * * * * * * * * * * * * * * * * * * * * * * * * * * * * //

dimensions      [1 -3 -1 0 0 0 0];

internalField   nonuniform List<tensor> 
350
(
(84.7289 0 0 0 84.7289 0 0 0 84.7289)
(84.7289 0 0 0 84.7289 0 0 0 84.7289)
(84.7289 0 0 0 84.7289 0 0 0 84.7289)
(84.7289 0 0 0 84.7289 0 0 0 84.7289)
(84.7289 0 0 0 84.7289 0 0 0 84.7289)
(84.7289 0 0 0 84.7289 0 0 0 84.7289)
(84.7289 0 0 0 84.7289 0 0 0 84.7289)
(84.7289 0 0 0 84.7289 0 0 0 84.7289)
(84.7289 0 0 0 84.7289 0 0 0 84.7289)
(84.7289 0 0 0 84.7289 0 0 0 84.7289)
(84.7289 0 0 0 84.7289 0 0 0 84.7289)
(84.7289 0 0 0 84.7289 0 0 0 84.7289)
(84.7289 0 0 0 84.7289 0 0 0 84.7289)
(84.7289 0 0 0 84.7289 0 0 0 84.7289)
(84.7289 0 0 0 84.7289 0 0 0 84.7289)
(84.7289 0 0 0 84.7289 0 0 0 84.7289)
(84.7289 0 0 0 84.7289 0 0 0 84.7289)
(84.7289 0 0 0 84.7289 0 0 0 84.7289)
(84.7289 0 0 0 84.7289 0 0 0 84.7289)
(84.7289 0 0 0 84.7289 0 0 0 84.7289)
(84.7289 0 0 0 84.7289 0 0 0 84.7289)
(84.7289 0 0 0 84.7289 0 0 0 84.7289)
(84.7289 0 0 0 84.7289 0 0 0 84.7289)
(84.7289 0 0 0 84.7289 0 0 0 84.7289)
(84.8673 0 0 0 84.8673 0 0 0 84.8673)
(84.7289 0 0 0 84.7289 0 0 0 84.7289)
(84.7289 0 0 0 84.7289 0 0 0 84.7289)
(84.7289 0 0 0 84.7289 0 0 0 84.7289)
(84.7289 0 0 0 84.7289 0 0 0 84.7289)
(84.7289 0 0 0 84.7289 0 0 0 84.7289)
(84.7289 0 0 0 84.7289 0 0 0 84.7289)
(84.7289 0 0 0 84.7289 0 0 0 84.7289)
(84.7289 0 0 0 84.7289 0 0 0 84.7289)
(84.7289 0 0 0 84.7289 0 0 0 84.7289)
(84.7289 0 0 0 84.7289 0 0 0 84.7289)
(84.7289 0 0 0 84.7289 0 0 0 84.7289)
(84.7289 0 0 0 84.7289 0 0 0 84.7289)
(84.7289 0 0 0 84.7289 0 0 0 84.7289)
(84.7289 0 0 0 84.7289 0 0 0 84.7289)
(84.7289 0 0 0 84.7289 0 0 0 84.7289)
(84.7289 0 0 0 84.7289 0 0 0 84.7289)
(84.7289 0 0 0 84.7289 0 0 0 84.7289)
(84.7289 0 0 0 84.7289 0 0 0 84.7289)
(84.7289 0 0 0 84.7289 0 0 0 84.7289)
(84.7289 0 0 0 84.7289 0 0 0 84.7289)
(84.7289 0 0 0 84.7289 0 0 0 84.7289)
(84.7289 0 0 0 84.7289 0 0 0 84.7289)
(84.7289 0 0 0 84.7289 0 0 0 84.7289)
(84.7289 0 0 0 84.7289 0 0 0 84.7289)
(84.8673 0 0 0 84.8673 0 0 0 84.8673)
(678.056 0 0 0 678.056 0 0 0 678.056)
(677.409 0 0 0 677.409 0 0 0 677.409)
(677.425 0 0 0 677.425 0 0 0 677.425)
(677.431 0 0 0 677.431 0 0 0 677.431)
(677.425 0 0 0 677.425 0 0 0 677.425)
(677.406 0 0 0 677.406 0 0 0 677.406)
(677.373 0 0 0 677.373 0 0 0 677.373)
(677.324 0 0 0 677.324 0 0 0 677.324)
(677.258 0 0 0 677.258 0 0 0 677.258)
(677.173 0 0 0 677.173 0 0 0 677.173)
(677.068 0 0 0 677.068 0 0 0 677.068)
(676.942 0 0 0 676.942 0 0 0 676.942)
(676.796 0 0 0 676.796 0 0 0 676.796)
(676.63 0 0 0 676.63 0 0 0 676.63)
(676.44 0 0 0 676.44 0 0 0 676.44)
(676.216 0 0 0 676.216 0 0 0 676.216)
(675.944 0 0 0 675.944 0 0 0 675.944)
(675.608 0 0 0 675.608 0 0 0 675.608)
(675.208 0 0 0 675.208 0 0 0 675.208)
(674.803 0 0 0 674.803 0 0 0 674.803)
(674.578 0 0 0 674.578 0 0 0 674.578)
(675.069 0 0 0 675.069 0 0 0 675.069)
(677.508 0 0 0 677.508 0 0 0 677.508)
(683.97 0 0 0 683.97 0 0 0 683.97)
(687.572 0 0 0 687.572 0 0 0 687.572)
(673.65 0 0 0 673.65 0 0 0 673.65)
(672.931 0 0 0 672.931 0 0 0 672.931)
(672.905 0 0 0 672.905 0 0 0 672.905)
(672.869 0 0 0 672.869 0 0 0 672.869)
(672.824 0 0 0 672.824 0 0 0 672.824)
(672.769 0 0 0 672.769 0 0 0 672.769)
(672.703 0 0 0 672.703 0 0 0 672.703)
(672.624 0 0 0 672.624 0 0 0 672.624)
(672.53 0 0 0 672.53 0 0 0 672.53)
(672.42 0 0 0 672.42 0 0 0 672.42)
(672.296 0 0 0 672.296 0 0 0 672.296)
(672.16 0 0 0 672.16 0 0 0 672.16)
(672.021 0 0 0 672.021 0 0 0 672.021)
(671.885 0 0 0 671.885 0 0 0 671.885)
(671.76 0 0 0 671.76 0 0 0 671.76)
(671.642 0 0 0 671.642 0 0 0 671.642)
(671.522 0 0 0 671.522 0 0 0 671.522)
(671.386 0 0 0 671.386 0 0 0 671.386)
(671.234 0 0 0 671.234 0 0 0 671.234)
(671.131 0 0 0 671.131 0 0 0 671.131)
(671.276 0 0 0 671.276 0 0 0 671.276)
(672.235 0 0 0 672.235 0 0 0 672.235)
(675.293 0 0 0 675.293 0 0 0 675.293)
(682.567 0 0 0 682.567 0 0 0 682.567)
(687.119 0 0 0 687.119 0 0 0 687.119)
(678.793 0 0 0 678.793 0 0 0 678.793)
(678.144 0 0 0 678.144 0 0 0 678.144)
(678.164 0 0 0 678.164 0 0 0 678.164)
(678.174 0 0 0 678.174 0 0 0 678.174)
(678.17 0 0 0 678.17 0 0 0 678.17)
(678.154 0 0 0 678.154 0 0 0 678.154)
(678.123 0 0 0 678.123 0 0 0 678.123)
(678.075 0 0 0 678.075 0 0 0 678.075)
(678.01 0 0 0 678.01 0 0 0 678.01)
(677.924 0 0 0 677.924 0 0 0 677.924)
(677.818 0 0 0 677.818 0 0 0 677.818)
(677.688 0 0 0 677.688 0 0 0 677.688)
(677.536 0 0 0 677.536 0 0 0 677.536)
(677.359 0 0 0 677.359 0 0 0 677.359)
(677.152 0 0 0 677.152 0 0 0 677.152)
(676.904 0 0 0 676.904 0 0 0 676.904)
(676.6 0 0 0 676.6 0 0 0 676.6)
(676.224 0 0 0 676.224 0 0 0 676.224)
(675.775 0 0 0 675.775 0 0 0 675.775)
(675.311 0 0 0 675.311 0 0 0 675.311)
(675.015 0 0 0 675.015 0 0 0 675.015)
(675.417 0 0 0 675.417 0 0 0 675.417)
(677.744 0 0 0 677.744 0 0 0 677.744)
(684.075 0 0 0 684.075 0 0 0 684.075)
(687.588 0 0 0 687.588 0 0 0 687.588)
(674.636 0 0 0 674.636 0 0 0 674.636)
(673.938 0 0 0 673.938 0 0 0 673.938)
(673.922 0 0 0 673.922 0 0 0 673.922)
(673.898 0 0 0 673.898 0 0 0 673.898)
(673.864 0 0 0 673.864 0 0 0 673.864)
(673.819 0 0 0 673.819 0 0 0 673.819)
(673.763 0 0 0 673.763 0 0 0 673.763)
(673.692 0 0 0 673.692 0 0 0 673.692)
(673.606 0 0 0 673.606 0 0 0 673.606)
(673.503 0 0 0 673.503 0 0 0 673.503)
(673.385 0 0 0 673.385 0 0 0 673.385)
(673.253 0 0 0 673.253 0 0 0 673.253)
(673.114 0 0 0 673.114 0 0 0 673.114)
(672.974 0 0 0 672.974 0 0 0 672.974)
(672.835 0 0 0 672.835 0 0 0 672.835)
(672.695 0 0 0 672.695 0 0 0 672.695)
(672.541 0 0 0 672.541 0 0 0 672.541)
(672.361 0 0 0 672.361 0 0 0 672.361)
(672.154 0 0 0 672.154 0 0 0 672.154)
(671.983 0 0 0 671.983 0 0 0 671.983)
(672.044 0 0 0 672.044 0 0 0 672.044)
(672.899 0 0 0 672.899 0 0 0 672.899)
(675.816 0 0 0 675.816 0 0 0 675.816)
(682.905 0 0 0 682.905 0 0 0 682.905)
(687.232 0 0 0 687.232 0 0 0 687.232)
(674.636 0 0 0 674.636 0 0 0 674.636)
(673.938 0 0 0 673.938 0 0 0 673.938)
(673.922 0 0 0 673.922 0 0 0 673.922)
(673.898 0 0 0 673.898 0 0 0 673.898)
(673.864 0 0 0 673.864 0 0 0 673.864)
(673.819 0 0 0 673.819 0 0 0 673.819)
(673.763 0 0 0 673.763 0 0 0 673.763)
(673.692 0 0 0 673.692 0 0 0 673.692)
(673.606 0 0 0 673.606 0 0 0 673.606)
(673.503 0 0 0 673.503 0 0 0 673.503)
(673.385 0 0 0 673.385 0 0 0 673.385)
(673.253 0 0 0 673.253 0 0 0 673.253)
(673.114 0 0 0 673.114 0 0 0 673.114)
(672.974 0 0 0 672.974 0 0 0 672.974)
(672.835 0 0 0 672.835 0 0 0 672.835)
(672.695 0 0 0 672.695 0 0 0 672.695)
(672.541 0 0 0 672.541 0 0 0 672.541)
(672.361 0 0 0 672.361 0 0 0 672.361)
(672.154 0 0 0 672.154 0 0 0 672.154)
(671.983 0 0 0 671.983 0 0 0 671.983)
(672.044 0 0 0 672.044 0 0 0 672.044)
(672.899 0 0 0 672.899 0 0 0 672.899)
(675.816 0 0 0 675.816 0 0 0 675.816)
(682.905 0 0 0 682.905 0 0 0 682.905)
(687.232 0 0 0 687.232 0 0 0 687.232)
(678.793 0 0 0 678.793 0 0 0 678.793)
(678.144 0 0 0 678.144 0 0 0 678.144)
(678.164 0 0 0 678.164 0 0 0 678.164)
(678.173 0 0 0 678.173 0 0 0 678.173)
(678.17 0 0 0 678.17 0 0 0 678.17)
(678.154 0 0 0 678.154 0 0 0 678.154)
(678.122 0 0 0 678.122 0 0 0 678.122)
(678.075 0 0 0 678.075 0 0 0 678.075)
(678.01 0 0 0 678.01 0 0 0 678.01)
(677.924 0 0 0 677.924 0 0 0 677.924)
(677.817 0 0 0 677.817 0 0 0 677.817)
(677.688 0 0 0 677.688 0 0 0 677.688)
(677.536 0 0 0 677.536 0 0 0 677.536)
(677.358 0 0 0 677.358 0 0 0 677.358)
(677.151 0 0 0 677.151 0 0 0 677.151)
(676.904 0 0 0 676.904 0 0 0 676.904)
(676.599 0 0 0 676.599 0 0 0 676.599)
(676.224 0 0 0 676.224 0 0 0 676.224)
(675.774 0 0 0 675.774 0 0 0 675.774)
(675.31 0 0 0 675.31 0 0 0 675.31)
(675.014 0 0 0 675.014 0 0 0 675.014)
(675.415 0 0 0 675.415 0 0 0 675.415)
(677.743 0 0 0 677.743 0 0 0 677.743)
(684.074 0 0 0 684.074 0 0 0 684.074)
(687.588 0 0 0 687.588 0 0 0 687.588)
(673.65 0 0 0 673.65 0 0 0 673.65)
(672.931 0 0 0 672.931 0 0 0 672.931)
(672.905 0 0 0 672.905 0 0 0 672.905)
(672.869 0 0 0 672.869 0 0 0 672.869)
(672.824 0 0 0 672.824 0 0 0 672.824)
(672.769 0 0 0 672.769 0 0 0 672.769)
(672.703 0 0 0 672.703 0 0 0 672.703)
(672.624 0 0 0 672.624 0 0 0 672.624)
(672.53 0 0 0 672.53 0 0 0 672.53)
(672.42 0 0 0 672.42 0 0 0 672.42)
(672.296 0 0 0 672.296 0 0 0 672.296)
(672.16 0 0 0 672.16 0 0 0 672.16)
(672.021 0 0 0 672.021 0 0 0 672.021)
(671.885 0 0 0 671.885 0 0 0 671.885)
(671.76 0 0 0 671.76 0 0 0 671.76)
(671.642 0 0 0 671.642 0 0 0 671.642)
(671.522 0 0 0 671.522 0 0 0 671.522)
(671.386 0 0 0 671.386 0 0 0 671.386)
(671.234 0 0 0 671.234 0 0 0 671.234)
(671.131 0 0 0 671.131 0 0 0 671.131)
(671.276 0 0 0 671.276 0 0 0 671.276)
(672.235 0 0 0 672.235 0 0 0 672.235)
(675.293 0 0 0 675.293 0 0 0 675.293)
(682.567 0 0 0 682.567 0 0 0 682.567)
(687.119 0 0 0 687.119 0 0 0 687.119)
(678.056 0 0 0 678.056 0 0 0 678.056)
(677.409 0 0 0 677.409 0 0 0 677.409)
(677.425 0 0 0 677.425 0 0 0 677.425)
(677.431 0 0 0 677.431 0 0 0 677.431)
(677.425 0 0 0 677.425 0 0 0 677.425)
(677.406 0 0 0 677.406 0 0 0 677.406)
(677.373 0 0 0 677.373 0 0 0 677.373)
(677.324 0 0 0 677.324 0 0 0 677.324)
(677.258 0 0 0 677.258 0 0 0 677.258)
(677.173 0 0 0 677.173 0 0 0 677.173)
(677.068 0 0 0 677.068 0 0 0 677.068)
(676.942 0 0 0 676.942 0 0 0 676.942)
(676.796 0 0 0 676.796 0 0 0 676.796)
(676.63 0 0 0 676.63 0 0 0 676.63)
(676.44 0 0 0 676.44 0 0 0 676.44)
(676.216 0 0 0 676.216 0 0 0 676.216)
(675.944 0 0 0 675.944 0 0 0 675.944)
(675.608 0 0 0 675.608 0 0 0 675.608)
(675.208 0 0 0 675.208 0 0 0 675.208)
(674.803 0 0 0 674.803 0 0 0 674.803)
(674.578 0 0 0 674.578 0 0 0 674.578)
(675.069 0 0 0 675.069 0 0 0 675.069)
(677.508 0 0 0 677.508 0 0 0 677.508)
(683.97 0 0 0 683.97 0 0 0 683.97)
(687.572 0 0 0 687.572 0 0 0 687.572)
(674.636 0 0 0 674.636 0 0 0 674.636)
(673.938 0 0 0 673.938 0 0 0 673.938)
(673.922 0 0 0 673.922 0 0 0 673.922)
(673.898 0 0 0 673.898 0 0 0 673.898)
(673.864 0 0 0 673.864 0 0 0 673.864)
(673.819 0 0 0 673.819 0 0 0 673.819)
(673.763 0 0 0 673.763 0 0 0 673.763)
(673.692 0 0 0 673.692 0 0 0 673.692)
(673.606 0 0 0 673.606 0 0 0 673.606)
(673.503 0 0 0 673.503 0 0 0 673.503)
(673.385 0 0 0 673.385 0 0 0 673.385)
(673.253 0 0 0 673.253 0 0 0 673.253)
(673.114 0 0 0 673.114 0 0 0 673.114)
(672.974 0 0 0 672.974 0 0 0 672.974)
(672.835 0 0 0 672.835 0 0 0 672.835)
(672.695 0 0 0 672.695 0 0 0 672.695)
(672.541 0 0 0 672.541 0 0 0 672.541)
(672.361 0 0 0 672.361 0 0 0 672.361)
(672.154 0 0 0 672.154 0 0 0 672.154)
(671.983 0 0 0 671.983 0 0 0 671.983)
(672.044 0 0 0 672.044 0 0 0 672.044)
(672.899 0 0 0 672.899 0 0 0 672.899)
(675.816 0 0 0 675.816 0 0 0 675.816)
(682.905 0 0 0 682.905 0 0 0 682.905)
(687.232 0 0 0 687.232 0 0 0 687.232)
(678.793 0 0 0 678.793 0 0 0 678.793)
(678.144 0 0 0 678.144 0 0 0 678.144)
(678.164 0 0 0 678.164 0 0 0 678.164)
(678.174 0 0 0 678.174 0 0 0 678.174)
(678.17 0 0 0 678.17 0 0 0 678.17)
(678.154 0 0 0 678.154 0 0 0 678.154)
(678.123 0 0 0 678.123 0 0 0 678.123)
(678.075 0 0 0 678.075 0 0 0 678.075)
(678.01 0 0 0 678.01 0 0 0 678.01)
(677.924 0 0 0 677.924 0 0 0 677.924)
(677.818 0 0 0 677.818 0 0 0 677.818)
(677.688 0 0 0 677.688 0 0 0 677.688)
(677.536 0 0 0 677.536 0 0 0 677.536)
(677.359 0 0 0 677.359 0 0 0 677.359)
(677.152 0 0 0 677.152 0 0 0 677.152)
(676.904 0 0 0 676.904 0 0 0 676.904)
(676.6 0 0 0 676.6 0 0 0 676.6)
(676.224 0 0 0 676.224 0 0 0 676.224)
(675.775 0 0 0 675.775 0 0 0 675.775)
(675.311 0 0 0 675.311 0 0 0 675.311)
(675.015 0 0 0 675.015 0 0 0 675.015)
(675.417 0 0 0 675.417 0 0 0 675.417)
(677.744 0 0 0 677.744 0 0 0 677.744)
(684.075 0 0 0 684.075 0 0 0 684.075)
(687.588 0 0 0 687.588 0 0 0 687.588)
(678.793 0 0 0 678.793 0 0 0 678.793)
(678.144 0 0 0 678.144 0 0 0 678.144)
(678.164 0 0 0 678.164 0 0 0 678.164)
(678.173 0 0 0 678.173 0 0 0 678.173)
(678.17 0 0 0 678.17 0 0 0 678.17)
(678.154 0 0 0 678.154 0 0 0 678.154)
(678.122 0 0 0 678.122 0 0 0 678.122)
(678.075 0 0 0 678.075 0 0 0 678.075)
(678.01 0 0 0 678.01 0 0 0 678.01)
(677.924 0 0 0 677.924 0 0 0 677.924)
(677.817 0 0 0 677.817 0 0 0 677.817)
(677.688 0 0 0 677.688 0 0 0 677.688)
(677.536 0 0 0 677.536 0 0 0 677.536)
(677.358 0 0 0 677.358 0 0 0 677.358)
(677.151 0 0 0 677.151 0 0 0 677.151)
(676.904 0 0 0 676.904 0 0 0 676.904)
(676.599 0 0 0 676.599 0 0 0 676.599)
(676.224 0 0 0 676.224 0 0 0 676.224)
(675.774 0 0 0 675.774 0 0 0 675.774)
(675.31 0 0 0 675.31 0 0 0 675.31)
(675.014 0 0 0 675.014 0 0 0 675.014)
(675.415 0 0 0 675.415 0 0 0 675.415)
(677.743 0 0 0 677.743 0 0 0 677.743)
(684.074 0 0 0 684.074 0 0 0 684.074)
(687.588 0 0 0 687.588 0 0 0 687.588)
(674.636 0 0 0 674.636 0 0 0 674.636)
(673.938 0 0 0 673.938 0 0 0 673.938)
(673.922 0 0 0 673.922 0 0 0 673.922)
(673.898 0 0 0 673.898 0 0 0 673.898)
(673.864 0 0 0 673.864 0 0 0 673.864)
(673.819 0 0 0 673.819 0 0 0 673.819)
(673.763 0 0 0 673.763 0 0 0 673.763)
(673.692 0 0 0 673.692 0 0 0 673.692)
(673.606 0 0 0 673.606 0 0 0 673.606)
(673.503 0 0 0 673.503 0 0 0 673.503)
(673.385 0 0 0 673.385 0 0 0 673.385)
(673.253 0 0 0 673.253 0 0 0 673.253)
(673.114 0 0 0 673.114 0 0 0 673.114)
(672.974 0 0 0 672.974 0 0 0 672.974)
(672.835 0 0 0 672.835 0 0 0 672.835)
(672.695 0 0 0 672.695 0 0 0 672.695)
(672.541 0 0 0 672.541 0 0 0 672.541)
(672.361 0 0 0 672.361 0 0 0 672.361)
(672.154 0 0 0 672.154 0 0 0 672.154)
(671.983 0 0 0 671.983 0 0 0 671.983)
(672.044 0 0 0 672.044 0 0 0 672.044)
(672.899 0 0 0 672.899 0 0 0 672.899)
(675.816 0 0 0 675.816 0 0 0 675.816)
(682.905 0 0 0 682.905 0 0 0 682.905)
(687.232 0 0 0 687.232 0 0 0 687.232)
)
;

boundaryField
{
    outletCentralUnloaded
    {
        type            zeroGradient;
    }
    inletCentralUnloaded
    {
        type            zeroGradient;
    }
    outletFuelElement
    {
        type            zeroGradient;
    }
    inletFuelElement
    {
        type            zeroGradient;
    }
    defaultFaces
    {
        type            zeroGradient;
    }
    baffle_master
    {
        type            zeroGradient;
    }
    baffle_slave
    {
        type            zeroGradient;
    }
}


// ************************************************************************* //
