/*--------------------------------*- C++ -*----------------------------------*\
| =========                 |                                                 |
| \\      /  F ield         | OpenFOAM: The Open Source CFD Toolbox           |
|  \\    /   O peration     | Version:  2212                                  |
|   \\  /    A nd           | Website:  www.openfoam.com                      |
|    \\/     M anipulation  |                                                 |
\*---------------------------------------------------------------------------*/
FoamFile
{
    version     2.0;
    format      ascii;
    arch        "LSB;label=32;scalar=64";
    class       volScalarField;
    location    "27/fluidRegion";
    object      p;
}
// * * * * * * * * * * * * * * * * * * * * * * * * * * * * * * * * * * * * * //

dimensions      [1 -1 -2 0 0 0 0];

internalField   nonuniform List<scalar> 
350
(
3.44743e+06
3.44772e+06
3.44802e+06
3.44831e+06
3.44861e+06
3.44891e+06
3.4492e+06
3.4495e+06
3.44979e+06
3.45009e+06
3.45038e+06
3.45068e+06
3.45097e+06
3.45127e+06
3.45156e+06
3.45186e+06
3.45216e+06
3.45245e+06
3.45275e+06
3.45304e+06
3.45334e+06
3.45363e+06
3.45393e+06
3.45422e+06
3.45451e+06
3.44743e+06
3.44772e+06
3.44802e+06
3.44831e+06
3.44861e+06
3.44891e+06
3.4492e+06
3.4495e+06
3.44979e+06
3.45009e+06
3.45038e+06
3.45068e+06
3.45097e+06
3.45127e+06
3.45156e+06
3.45186e+06
3.45216e+06
3.45245e+06
3.45275e+06
3.45304e+06
3.45334e+06
3.45363e+06
3.45393e+06
3.45422e+06
3.45451e+06
3.47226e+06
3.52112e+06
3.56951e+06
3.61715e+06
3.66372e+06
3.70894e+06
3.75255e+06
3.79432e+06
3.83403e+06
3.87149e+06
3.90654e+06
3.93904e+06
3.96888e+06
3.99598e+06
4.02028e+06
4.04178e+06
4.06052e+06
4.0766e+06
4.09013e+06
4.10128e+06
4.11024e+06
4.11723e+06
4.12247e+06
4.12625e+06
4.1289e+06
3.47226e+06
3.52112e+06
3.56951e+06
3.61715e+06
3.66372e+06
3.70894e+06
3.75255e+06
3.79432e+06
3.83403e+06
3.87149e+06
3.90654e+06
3.93904e+06
3.96888e+06
3.99598e+06
4.02028e+06
4.04178e+06
4.06052e+06
4.0766e+06
4.09013e+06
4.10128e+06
4.11024e+06
4.11723e+06
4.12247e+06
4.12625e+06
4.1289e+06
3.47226e+06
3.52112e+06
3.56951e+06
3.61715e+06
3.66372e+06
3.70894e+06
3.75255e+06
3.79432e+06
3.83403e+06
3.87149e+06
3.90654e+06
3.93904e+06
3.96888e+06
3.99598e+06
4.02028e+06
4.04178e+06
4.06052e+06
4.0766e+06
4.09013e+06
4.10128e+06
4.11024e+06
4.11723e+06
4.12247e+06
4.12625e+06
4.1289e+06
3.47226e+06
3.52112e+06
3.56951e+06
3.61715e+06
3.66372e+06
3.70894e+06
3.75255e+06
3.79432e+06
3.83403e+06
3.87149e+06
3.90654e+06
3.93904e+06
3.96888e+06
3.99598e+06
4.02028e+06
4.04178e+06
4.06052e+06
4.0766e+06
4.09013e+06
4.10128e+06
4.11024e+06
4.11723e+06
4.12247e+06
4.12625e+06
4.1289e+06
3.47226e+06
3.52112e+06
3.56951e+06
3.61715e+06
3.66372e+06
3.70894e+06
3.75255e+06
3.79432e+06
3.83403e+06
3.87149e+06
3.90654e+06
3.93904e+06
3.96888e+06
3.99598e+06
4.02028e+06
4.04178e+06
4.06052e+06
4.0766e+06
4.09013e+06
4.10128e+06
4.11024e+06
4.11723e+06
4.12247e+06
4.12625e+06
4.1289e+06
3.47226e+06
3.52112e+06
3.56951e+06
3.61715e+06
3.66372e+06
3.70894e+06
3.75255e+06
3.79432e+06
3.83403e+06
3.87149e+06
3.90654e+06
3.93904e+06
3.96888e+06
3.99598e+06
4.02028e+06
4.04178e+06
4.06052e+06
4.0766e+06
4.09013e+06
4.10128e+06
4.11024e+06
4.11723e+06
4.12247e+06
4.12625e+06
4.1289e+06
3.47226e+06
3.52112e+06
3.56951e+06
3.61715e+06
3.66372e+06
3.70894e+06
3.75255e+06
3.79432e+06
3.83403e+06
3.87149e+06
3.90654e+06
3.93904e+06
3.96888e+06
3.99598e+06
4.02028e+06
4.04178e+06
4.06052e+06
4.0766e+06
4.09013e+06
4.10128e+06
4.11024e+06
4.11723e+06
4.12247e+06
4.12625e+06
4.1289e+06
3.47226e+06
3.52112e+06
3.56951e+06
3.61715e+06
3.66372e+06
3.70894e+06
3.75255e+06
3.79432e+06
3.83403e+06
3.87149e+06
3.90654e+06
3.93904e+06
3.96888e+06
3.99598e+06
4.02028e+06
4.04178e+06
4.06052e+06
4.0766e+06
4.09013e+06
4.10128e+06
4.11024e+06
4.11723e+06
4.12247e+06
4.12625e+06
4.1289e+06
3.47226e+06
3.52112e+06
3.56951e+06
3.61715e+06
3.66372e+06
3.70894e+06
3.75255e+06
3.79432e+06
3.83403e+06
3.87149e+06
3.90654e+06
3.93904e+06
3.96888e+06
3.99598e+06
4.02028e+06
4.04178e+06
4.06052e+06
4.0766e+06
4.09013e+06
4.10128e+06
4.11024e+06
4.11723e+06
4.12247e+06
4.12625e+06
4.1289e+06
3.47226e+06
3.52112e+06
3.56951e+06
3.61715e+06
3.66372e+06
3.70894e+06
3.75255e+06
3.79432e+06
3.83403e+06
3.87149e+06
3.90654e+06
3.93904e+06
3.96888e+06
3.99598e+06
4.02028e+06
4.04178e+06
4.06052e+06
4.0766e+06
4.09013e+06
4.10128e+06
4.11024e+06
4.11723e+06
4.12247e+06
4.12625e+06
4.1289e+06
3.47226e+06
3.52112e+06
3.56951e+06
3.61715e+06
3.66372e+06
3.70894e+06
3.75255e+06
3.79432e+06
3.83403e+06
3.87149e+06
3.90654e+06
3.93904e+06
3.96888e+06
3.99598e+06
4.02028e+06
4.04178e+06
4.06052e+06
4.0766e+06
4.09013e+06
4.10128e+06
4.11024e+06
4.11723e+06
4.12247e+06
4.12625e+06
4.1289e+06
3.47226e+06
3.52112e+06
3.56951e+06
3.61715e+06
3.66372e+06
3.70894e+06
3.75255e+06
3.79432e+06
3.83403e+06
3.87149e+06
3.90654e+06
3.93904e+06
3.96888e+06
3.99598e+06
4.02028e+06
4.04178e+06
4.06052e+06
4.0766e+06
4.09013e+06
4.10128e+06
4.11024e+06
4.11723e+06
4.12247e+06
4.12625e+06
4.1289e+06
)
;

boundaryField
{
    outletCentralUnloaded
    {
        type            fixedValue;
        value           uniform 3.44728e+06;
    }
    inletCentralUnloaded
    {
        type            zeroGradient;
    }
    outletFuelElement
    {
        type            fixedValue;
        value           uniform 3.44728e+06;
    }
    inletFuelElement
    {
        type            zeroGradient;
    }
    defaultFaces
    {
        type            zeroGradient;
    }
    baffle_master
    {
        type            zeroGradient;
    }
    baffle_slave
    {
        type            zeroGradient;
    }
}


// ************************************************************************* //
