/*--------------------------------*- C++ -*----------------------------------*\
| =========                 |                                                 |
| \\      /  F ield         | OpenFOAM: The Open Source CFD Toolbox           |
|  \\    /   O peration     | Version:  2212                                  |
|   \\  /    A nd           | Website:  www.openfoam.com                      |
|    \\/     M anipulation  |                                                 |
\*---------------------------------------------------------------------------*/
FoamFile
{
    version     2.0;
    format      ascii;
    arch        "LSB;label=32;scalar=64";
    class       volScalarField;
    location    "27/fluidRegion";
    object      T;
}
// * * * * * * * * * * * * * * * * * * * * * * * * * * * * * * * * * * * * * //

dimensions      [0 0 0 1 0 0 0];

internalField   nonuniform List<scalar> 
350
(
83.2887
83.2892
83.2896
83.2901
83.2906
83.2911
83.2916
83.292
83.2925
83.293
83.2935
83.294
83.2944
83.2949
83.2954
83.2959
83.2963
83.2968
83.2973
83.2978
83.2982
83.2987
83.2992
83.2996
83.3
83.2887
83.2892
83.2896
83.2901
83.2906
83.2911
83.2916
83.292
83.2925
83.293
83.2935
83.294
83.2944
83.2949
83.2954
83.2959
83.2963
83.2968
83.2973
83.2978
83.2982
83.2987
83.2992
83.2996
83.3
1749.38
1745.91
1730.22
1702.52
1663.14
1612.56
1551.39
1480.35
1400.3
1312.24
1217.31
1116.82
1012.29
905.43
798.165
692.522
590.525
494.053
404.752
324.023
253.107
193.178
145.424
110.928
90.2792
1775.85
1772.66
1757.03
1729.17
1689.43
1638.28
1576.34
1504.34
1423.15
1333.77
1237.37
1135.25
1028.94
920.199
810.969
703.337
599.392
501.081
410.105
327.901
255.736
194.795
146.277
111.272
90.3525
1745.07
1741.58
1725.89
1698.23
1658.93
1608.46
1547.42
1476.55
1396.7
1308.86
1214.18
1113.96
1009.71
903.159
796.207
690.878
589.185
492.998
403.954
323.449
252.722
192.943
145.3
110.877
90.2675
1769.9
1766.63
1750.97
1723.14
1683.47
1632.44
1570.66
1498.87
1417.93
1328.85
1232.77
1131.02
1025.12
916.8
808.018
700.841
597.343
499.456
408.866
327.003
255.127
194.42
146.079
111.192
90.3357
1769.9
1766.63
1750.97
1723.14
1683.47
1632.44
1570.66
1498.87
1417.93
1328.85
1232.77
1131.02
1025.12
916.8
808.018
700.841
597.343
499.456
408.866
327.003
255.127
194.42
146.079
111.192
90.3357
1745.07
1741.58
1725.9
1698.24
1658.93
1608.46
1547.43
1476.55
1396.7
1308.86
1214.18
1113.96
1009.71
903.161
796.209
690.879
589.186
492.998
403.955
323.45
252.723
192.944
145.3
110.877
90.2675
1775.85
1772.66
1757.03
1729.17
1689.43
1638.28
1576.34
1504.34
1423.15
1333.77
1237.37
1135.25
1028.94
920.199
810.969
703.337
599.392
501.081
410.105
327.901
255.736
194.795
146.277
111.272
90.3525
1749.38
1745.91
1730.22
1702.52
1663.14
1612.56
1551.39
1480.35
1400.3
1312.24
1217.31
1116.82
1012.29
905.43
798.165
692.522
590.525
494.053
404.752
324.023
253.107
193.178
145.424
110.928
90.2792
1769.9
1766.63
1750.97
1723.14
1683.47
1632.44
1570.66
1498.87
1417.93
1328.85
1232.77
1131.02
1025.12
916.8
808.018
700.841
597.343
499.456
408.866
327.003
255.127
194.42
146.079
111.192
90.3357
1745.07
1741.58
1725.89
1698.23
1658.93
1608.46
1547.42
1476.55
1396.7
1308.86
1214.18
1113.96
1009.71
903.159
796.208
690.878
589.185
492.998
403.954
323.449
252.722
192.943
145.3
110.877
90.2675
1745.07
1741.58
1725.89
1698.24
1658.93
1608.46
1547.43
1476.55
1396.7
1308.86
1214.18
1113.96
1009.71
903.16
796.208
690.879
589.186
492.998
403.955
323.45
252.723
192.944
145.3
110.877
90.2675
1769.9
1766.63
1750.97
1723.14
1683.47
1632.44
1570.66
1498.87
1417.93
1328.85
1232.77
1131.02
1025.12
916.8
808.018
700.841
597.343
499.456
408.866
327.003
255.127
194.42
146.079
111.192
90.3357
)
;

boundaryField
{
    outletCentralUnloaded
    {
        type            zeroGradient;
    }
    inletCentralUnloaded
    {
        type            fixedValue;
        value           uniform 83.3;
    }
    outletFuelElement
    {
        type            zeroGradient;
    }
    inletFuelElement
    {
        type            fixedValue;
        value           uniform 83.3;
    }
    defaultFaces
    {
        type            zeroGradient;
    }
    baffle_master
    {
        type            zeroGradient;
    }
    baffle_slave
    {
        type            zeroGradient;
    }
}


// ************************************************************************* //
