/*--------------------------------*- C++ -*----------------------------------*\
| =========                 |                                                 |
| \\      /  F ield         | OpenFOAM: The Open Source CFD Toolbox           |
|  \\    /   O peration     | Version:  2212                                  |
|   \\  /    A nd           | Website:  www.openfoam.com                      |
|    \\/     M anipulation  |                                                 |
\*---------------------------------------------------------------------------*/
FoamFile
{
    version     2.0;
    format      ascii;
    arch        "LSB;label=32;scalar=64";
    class       volScalarField;
    location    "27/fluidRegion";
    object      Tco.nuclearFuelPin;
}
// * * * * * * * * * * * * * * * * * * * * * * * * * * * * * * * * * * * * * //

dimensions      [0 0 0 1 0 0 0];

internalField   nonuniform List<scalar> 
350
(
0
0
0
0
0
0
0
0
0
0
0
0
0
0
0
0
0
0
0
0
0
0
0
0
0
0
0
0
0
0
0
0
0
0
0
0
0
0
0
0
0
0
0
0
0
0
0
0
0
0
1758.81
1788.33
1805.33
1809.96
1802.52
1783.43
1753.24
1712.64
1662.42
1603.53
1536.97
1463.91
1385.56
1303.26
1218.39
1132.35
1046.39
961.428
877.667
794.111
707.754
612.469
498.326
354.816
183.929
1785.29
1815.35
1832.67
1837.41
1829.87
1810.45
1779.74
1738.42
1687.32
1627.36
1559.59
1485.17
1405.36
1321.49
1234.98
1147.26
1059.63
973.05
887.783
802.863
715.274
618.804
503.321
358.054
185.025
1754.5
1783.95
1800.91
1805.55
1798.14
1779.12
1749.03
1708.55
1658.5
1599.78
1533.43
1460.59
1382.48
1300.43
1215.83
1130.06
1044.36
959.652
876.126
792.784
706.621
611.525
497.592
354.344
183.762
1779.34
1809.26
1826.49
1831.2
1823.66
1804.31
1773.7
1732.54
1681.62
1621.9
1554.4
1480.29
1400.8
1317.29
1231.16
1143.82
1056.57
970.364
885.444
800.839
713.534
617.337
502.163
357.303
184.771
1779.34
1809.26
1826.49
1831.2
1823.66
1804.31
1773.7
1732.54
1681.62
1621.9
1554.4
1480.29
1400.8
1317.29
1231.16
1143.82
1056.57
970.364
885.444
800.839
713.534
617.337
502.163
357.303
184.771
1754.5
1783.96
1800.92
1805.55
1798.15
1779.12
1749.03
1708.56
1658.5
1599.78
1533.43
1460.59
1382.48
1300.43
1215.83
1130.06
1044.37
959.653
876.127
792.785
706.622
611.526
497.593
354.345
183.762
1785.29
1815.35
1832.67
1837.41
1829.87
1810.45
1779.74
1738.42
1687.32
1627.36
1559.59
1485.17
1405.36
1321.49
1234.98
1147.26
1059.63
973.05
887.783
802.863
715.274
618.804
503.321
358.054
185.025
1758.81
1788.33
1805.33
1809.96
1802.52
1783.43
1753.24
1712.64
1662.42
1603.53
1536.97
1463.91
1385.56
1303.26
1218.39
1132.35
1046.39
961.428
877.667
794.111
707.754
612.469
498.326
354.816
183.929
1779.34
1809.26
1826.49
1831.2
1823.66
1804.31
1773.7
1732.54
1681.62
1621.9
1554.4
1480.29
1400.8
1317.29
1231.16
1143.82
1056.57
970.364
885.444
800.839
713.534
617.337
502.163
357.303
184.771
1754.5
1783.95
1800.91
1805.55
1798.14
1779.12
1749.03
1708.55
1658.5
1599.78
1533.43
1460.59
1382.48
1300.43
1215.83
1130.06
1044.36
959.652
876.126
792.784
706.621
611.525
497.592
354.344
183.762
1754.5
1783.96
1800.92
1805.55
1798.15
1779.12
1749.03
1708.56
1658.5
1599.78
1533.43
1460.59
1382.48
1300.43
1215.83
1130.06
1044.36
959.653
876.127
792.785
706.622
611.526
497.593
354.345
183.762
1779.34
1809.26
1826.49
1831.2
1823.66
1804.31
1773.7
1732.54
1681.62
1621.9
1554.4
1480.29
1400.8
1317.29
1231.16
1143.82
1056.57
970.364
885.444
800.839
713.534
617.337
502.163
357.303
184.771
)
;

boundaryField
{
    outletCentralUnloaded
    {
        type            zeroGradient;
    }
    inletCentralUnloaded
    {
        type            zeroGradient;
    }
    outletFuelElement
    {
        type            zeroGradient;
    }
    inletFuelElement
    {
        type            zeroGradient;
    }
    defaultFaces
    {
        type            zeroGradient;
    }
    baffle_master
    {
        type            zeroGradient;
    }
    baffle_slave
    {
        type            zeroGradient;
    }
}


// ************************************************************************* //
