/*--------------------------------*- C++ -*----------------------------------*\
| =========                 |                                                 |
| \\      /  F ield         | OpenFOAM: The Open Source CFD Toolbox           |
|  \\    /   O peration     | Version:  2212                                  |
|   \\  /    A nd           | Website:  www.openfoam.com                      |
|    \\/     M anipulation  |                                                 |
\*---------------------------------------------------------------------------*/
FoamFile
{
    version     2.0;
    format      ascii;
    arch        "LSB;label=32;scalar=64";
    class       volScalarField;
    location    "27/fluidRegion";
    object      Tfo.nuclearFuelPin;
}
// * * * * * * * * * * * * * * * * * * * * * * * * * * * * * * * * * * * * * //

dimensions      [0 0 0 1 0 0 0];

internalField   nonuniform List<scalar> 
350
(
0
0
0
0
0
0
0
0
0
0
0
0
0
0
0
0
0
0
0
0
0
0
0
0
0
0
0
0
0
0
0
0
0
0
0
0
0
0
0
0
0
0
0
0
0
0
0
0
0
0
1864.69
2245.07
2605.08
2939.45
3243.28
3512.09
3741.9
3929.28
4071.47
4166.35
4212.55
4209.44
4157.16
4056.64
3909.55
3718.26
3485.66
3214.98
2909.35
2571.37
2202.19
1800.6
1362.26
882.883
369.942
1891.65
2276.59
2640.85
2979.12
3286.43
3558.23
3790.51
3979.81
4123.33
4218.95
4265.26
4261.63
4208.22
4105.96
3956.56
3762.42
3526.52
3252.14
2942.5
2600.27
2226.64
1820.36
1376.97
891.992
373.006
1860.31
2239.98
2599.32
2933.09
3236.39
3504.74
3734.16
3921.25
4063.24
4158.02
4204.21
4201.19
4149.1
4048.86
3902.14
3711.3
3479.23
3209.13
2904.14
2566.83
2198.36
1797.51
1359.98
881.473
369.462
1885.58
2269.46
2632.72
2970.08
3276.58
3547.68
3779.38
3968.23
4111.43
4206.87
4253.14
4249.63
4196.47
4094.6
3945.73
3752.25
3517.1
3243.57
2934.86
2593.61
2221
1815.8
1373.58
889.89
372.299
1885.58
2269.46
2632.72
2970.08
3276.58
3547.68
3779.38
3968.23
4111.43
4206.87
4253.14
4249.63
4196.47
4094.6
3945.73
3752.25
3517.1
3243.57
2934.86
2593.61
2221
1815.8
1373.58
889.89
372.3
1860.31
2239.98
2599.32
2933.09
3236.39
3504.74
3734.16
3921.25
4063.24
4158.02
4204.21
4201.19
4149.1
4048.86
3902.14
3711.3
3479.23
3209.13
2904.14
2566.83
2198.36
1797.51
1359.98
881.473
369.462
1891.65
2276.59
2640.85
2979.12
3286.43
3558.23
3790.51
3979.81
4123.33
4218.95
4265.26
4261.63
4208.22
4105.96
3956.56
3762.42
3526.52
3252.14
2942.5
2600.27
2226.64
1820.36
1376.97
891.992
373.006
1864.69
2245.07
2605.08
2939.45
3243.28
3512.09
3741.9
3929.28
4071.47
4166.35
4212.55
4209.44
4157.16
4056.64
3909.55
3718.26
3485.66
3214.98
2909.35
2571.37
2202.19
1800.6
1362.27
882.883
369.942
1885.58
2269.46
2632.72
2970.08
3276.58
3547.68
3779.38
3968.23
4111.43
4206.87
4253.14
4249.63
4196.47
4094.6
3945.73
3752.25
3517.1
3243.57
2934.86
2593.61
2221
1815.8
1373.58
889.89
372.299
1860.31
2239.98
2599.32
2933.09
3236.39
3504.74
3734.16
3921.25
4063.24
4158.02
4204.21
4201.19
4149.1
4048.86
3902.14
3711.3
3479.23
3209.13
2904.14
2566.83
2198.36
1797.51
1359.98
881.473
369.462
1860.31
2239.98
2599.32
2933.09
3236.39
3504.74
3734.16
3921.25
4063.24
4158.02
4204.21
4201.19
4149.1
4048.86
3902.14
3711.3
3479.23
3209.13
2904.14
2566.83
2198.36
1797.51
1359.98
881.474
369.462
1885.58
2269.46
2632.72
2970.08
3276.58
3547.68
3779.38
3968.23
4111.43
4206.87
4253.14
4249.63
4196.47
4094.6
3945.73
3752.24
3517.1
3243.57
2934.86
2593.61
2221
1815.8
1373.58
889.89
372.299
)
;

boundaryField
{
    outletCentralUnloaded
    {
        type            zeroGradient;
    }
    inletCentralUnloaded
    {
        type            zeroGradient;
    }
    outletFuelElement
    {
        type            zeroGradient;
    }
    inletFuelElement
    {
        type            zeroGradient;
    }
    defaultFaces
    {
        type            zeroGradient;
    }
    baffle_master
    {
        type            zeroGradient;
    }
    baffle_slave
    {
        type            zeroGradient;
    }
}


// ************************************************************************* //
